Title
82350
    1SAPS     N    1   3.652   3.732   9.975  0.0553 -0.0570  0.3718
    1SAPS   HN1    2   3.752   3.717   9.950 -0.1799 -0.7811 -0.1609
    1SAPS   HN2    3   3.595   3.768   9.896  1.2766 -0.9506 -0.9635
    1SAPS   HN3    4   3.653   3.806  10.048 -0.2200  0.7996 -0.4684
    1SAPS   C12    5   3.593   3.609  10.026 -0.1056  1.0017 -0.9850
    1SAPS  H12A    6   3.594   3.530   9.952  2.0608  0.8553 -0.8507
    1SAPS   C13    7   3.668   3.547  10.148 -0.8000  0.7958 -0.2332
    1SAPS  O13A    8   3.768   3.605  10.202 -0.2971 -0.1746 -0.2437
    1SAPS  O13B    9   3.633   3.431  10.180 -0.1549  0.1226  0.7471
    1SAPS   C11   10   3.447   3.627  10.062 -0.6174  0.2853  0.2598
    1SAPS  H11A   11   3.443   3.662  10.167  1.2675 -0.6193  0.6832
    1SAPS  H11B   12   3.392   3.530  10.062 -1.1114  0.5240 -1.3880
    1SAPS     P   13   3.311   3.671   9.834  0.5657 -0.1511 -0.1044
    1SAPS   O13   14   3.216   3.564   9.868  0.1422 -0.1833 -0.3825
    1SAPS   O14   15   3.256   3.792   9.760  0.0943  0.6145 -0.0443
    1SAPS   O12   16   3.380   3.716   9.970 -0.4790  0.0595 -0.8399
    1SAPS   O11   17   3.437   3.612   9.755 -0.7422 -0.3999  0.4202
    1SAPS    C1   18   3.430   3.477   9.721  1.4350  0.1712  0.0719
    1SAPS    HA   19   3.425   3.406   9.807 -1.0184 -0.0396 -0.1637
    1SAPS    HB   20   3.349   3.459   9.647  0.2543  0.7072  1.1871
    1SAPS    C2   21   3.571   3.421   9.669 -0.3618  0.5771  0.3416
    1SAPS    HS   22   3.650   3.450   9.742 -0.5401  1.4703  0.1952
    1SAPS   O21   23   3.595   3.474   9.539 -0.6356 -0.1059 -0.0964
    1SAPS   C21   24   3.643   3.598   9.530  0.0677  0.3339  0.1355
    1SAPS   O22   25   3.675   3.670   9.624 -0.3799  0.4105 -0.4147
    1SAPS   C22   26   3.661   3.642   9.389 -0.7031 -0.0368  0.5893
    1SAPS   H2R   27   3.771   3.647   9.370 -0.6734  1.1254  0.9955
    1SAPS   H2S   28   3.619   3.565   9.322 -2.0810  1.0944  0.0979
    1SAPS    C3   29   3.572   3.269   9.649 -0.6792 -1.1386  0.2107
    1SAPS    HX   30   3.567   3.219   9.748 -3.0778  0.3682  0.9258
    1SAPS    HY   31   3.669   3.245   9.600  0.0186  0.1447  0.9202
    1SAPS   O31   32   3.463   3.214   9.575  0.1080 -0.3993 -0.0924
    1SAPS   C31   33   3.444   3.086   9.576  0.5432 -0.1574  0.6347
    1SAPS   O32   34   3.508   3.011   9.650 -0.0037 -0.5528 -0.0071
    1SAPS   C32   35   3.331   3.052   9.476  0.9067 -0.3066  0.4081
    1SAPS   H2X   36   3.248   3.124   9.497 -0.7711 -1.8008 -0.7361
    1SAPS   H2Y   37   3.291   2.950   9.492  1.5321 -1.1790 -2.9192
    1SAPS   C23   38   3.597   3.782   9.365  0.1283 -0.0234 -0.3295
    1SAPS   H3R   39   3.658   3.858   9.418  0.7496 -1.2203  0.7497
    1SAPS   H3S   40   3.494   3.783   9.406  0.5094  2.1205  0.7266
    1SAPS   C24   41   3.597   3.828   9.220  0.5877  0.1316  0.3127
    1SAPS   H4R   42   3.693   3.860   9.175  0.0751  1.4330  0.0953
    1SAPS   H4S   43   3.538   3.922   9.221 -0.6283 -0.5979 -0.4337
    1SAPS   C25   44   3.523   3.735   9.132 -0.7395  0.0156 -0.2399
    1SAPS   H5R   45   3.476   3.648   9.180  1.3867 -1.0715 -0.0053
    1SAPS   C26   46   3.515   3.754   9.000  0.6932  0.0866  0.1390
    1SAPS   H6R   47   3.474   3.672   8.940  2.0490 -0.4206 -0.1362
    1SAPS   C27   48   3.591   3.861   8.927  0.5140 -0.1639 -0.2269
    1SAPS   H7R   49   3.661   3.925   8.986  1.8590  0.9358 -2.8504
    1SAPS   H7S   50   3.513   3.929   8.886  0.4940 -1.3618 -2.3305
    1SAPS   C28   51   3.667   3.800   8.812  0.0941  1.0016  0.4674
    1SAPS   H8R   52   3.719   3.709   8.843  1.9269  1.6431 -0.5756
    1SAPS   C29   53   3.658   3.833   8.682 -0.0510  0.3150  0.0287
    1SAPS   H9R   54   3.719   3.771   8.614 -0.2284 -0.6374  0.7324
    1SAPS  C210   55   3.583   3.945   8.618 -0.1479  0.1164 -0.6240
    1SAPS  H10R   56   3.649   4.030   8.589  1.6139 -1.6897 -2.1639
    1SAPS  H10S   57   3.513   3.996   8.689  0.2817 -1.3087  0.8910
    1SAPS  C211   58   3.518   3.894   8.487  0.1033 -0.3841 -0.1836
    1SAPS  H11R   59   3.409   3.897   8.479  0.2328  0.2960 -3.2105
    1SAPS  C212   60   3.581   3.873   8.370 -0.5425  0.4960  0.0805
    1SAPS  H12R   61   3.525   3.840   8.282  0.9074  0.7217 -0.9553
    1SAPS  C213   62   3.731   3.870   8.340  0.2587 -0.0098 -0.0279
    1SAPS  H13R   63   3.785   3.905   8.431 -2.1122 -1.7528  2.2149
    1SAPS  H13S   64   3.747   3.951   8.266  0.5673 -1.0288 -1.1022
    1SAPS  C214   65   3.776   3.735   8.299 -0.0924  0.2243  1.0271
    1SAPS  H14R   66   3.760   3.677   8.391 -0.7342  0.8781  1.3395
    1SAPS  C215   67   3.846   3.692   8.194  0.0288 -1.3356  0.1009
    1SAPS  H15R   68   3.870   3.585   8.189 -0.7273 -1.7726  3.6041
    1SAPS  C216   69   3.899   3.781   8.080  0.2093 -0.7237  0.0301
    1SAPS  H16R   70   3.999   3.745   8.046 -0.1477 -0.5864 -1.2094
    1SAPS  H16S   71   3.905   3.887   8.113 -3.4124 -0.6697  0.8895
    1SAPS  C217   72   3.801   3.778   7.966  0.1932  0.0467  0.1050
    1SAPS  H17R   73   3.701   3.814   7.999  0.4910  0.3379  0.7075
    1SAPS  H17S   74   3.775   3.672   7.944  2.5525 -0.4868 -0.3795
    1SAPS  C218   75   3.843   3.857   7.846 -0.2357  0.2251 -0.5591
    1SAPS  H18R   76   3.884   3.956   7.876  0.7062 -0.1380 -0.6226
    1SAPS  H18S   77   3.759   3.883   7.778  0.4322 -1.1209 -1.9586
    1SAPS  C219   78   3.951   3.793   7.762  0.1190 -0.0839 -0.3150
    1SAPS  H19R   79   3.917   3.690   7.736 -2.6922  0.1028  2.1398
    1SAPS  H19S   80   4.040   3.782   7.828 -1.3491 -0.3256  1.7184
    1SAPS  C220   81   3.992   3.889   7.646  0.3309  0.0396  0.1825
    1SAPS  H20R   82   4.092   3.850   7.616 -0.1102 -1.1258  0.1685
    1SAPS  H20S   83   3.998   3.992   7.686  3.8426  0.1059 -0.2188
    1SAPS  H20T   84   3.916   3.886   7.564  0.5835  2.2239 -0.1856
    1SAPS   C33   85   3.386   3.072   9.324  0.1216  0.1367  0.0575
    1SAPS   H3X   86   3.488   3.027   9.322  0.4953  0.8096  2.0060
    1SAPS   H3Y   87   3.397   3.177   9.291  0.0873 -0.3907 -1.7308
    1SAPS   C34   88   3.283   3.013   9.225 -0.5362 -0.1161  0.0213
    1SAPS   H4X   89   3.186   3.060   9.251 -1.6766 -1.7342 -1.1614
    1SAPS   H4Y   90   3.275   2.905   9.249  1.1640 -0.3312 -0.2646
    1SAPS   C35   91   3.307   3.043   9.073  0.7479 -0.3308  1.0793
    1SAPS   H5X   92   3.394   2.979   9.045  2.9849  2.0384  2.1612
    1SAPS   H5Y   93   3.352   3.143   9.057 -1.5634  0.4513 -1.1443
    1SAPS   C36   94   3.178   3.029   8.990 -0.1898 -0.2907 -0.0738
    1SAPS   H6X   95   3.095   3.092   9.028  0.3964  0.6805 -0.3763
    1SAPS   H6Y   96   3.142   2.925   9.006 -0.8245 -0.0688 -0.0567
    1SAPS   C37   97   3.211   3.054   8.844  0.1726  0.1919 -0.3752
    1SAPS   H7X   98   3.288   2.979   8.815  0.6057  0.4505  0.0897
    1SAPS   H7Y   99   3.252   3.157   8.833  2.5314 -0.6293  0.1931
    1SAPS   C38  100   3.089   3.046   8.748  0.2317  0.2338 -0.1639
    1SAPS   H8X  101   3.023   3.124   8.792 -0.2384  0.2034 -0.8029
    1SAPS   H8Y  102   3.034   2.950   8.750 -1.9942  1.3004 -2.8805
    1SAPS   C39  103   3.128   3.068   8.602  1.0636  0.2677 -0.1972
    1SAPS   H9X  104   3.207   2.996   8.573 -0.8620 -2.0615  0.1171
    1SAPS   H9Y  105   3.167   3.171   8.587  0.4838  0.4973 -0.1798
    1SAPS  C310  106   3.020   3.038   8.494 -0.8367  0.3125 -0.3281
    1SAPS  H10X  107   2.946   3.120   8.493 -2.4462 -0.9280  2.8780
    1SAPS  H10Y  108   2.962   2.948   8.523  0.8235 -1.4891 -2.3093
    1SAPS  C311  109   3.075   3.002   8.358 -0.5508 -0.0364  0.3853
    1SAPS  H11X  110   2.988   3.006   8.289 -0.2524  0.3643  0.0297
    1SAPS  H11Y  111   3.116   2.899   8.348  0.6640  0.5348 -0.6416
    1SAPS  C312  112   3.181   3.100   8.295  0.8865  0.6246 -0.5907
    1SAPS  H12X  113   3.269   3.094   8.363  0.2057  0.8527  0.3188
    1SAPS  H12Y  114   3.139   3.198   8.325  2.8147  0.3870  3.4519
    1SAPS  C313  115   3.232   3.054   8.164 -0.3524 -0.1431  0.2920
    1SAPS  H13X  116   3.270   2.950   8.169  0.3322 -0.2326 -3.5652
    1SAPS  H13Y  117   3.327   3.106   8.137  0.9721 -3.1630 -1.4089
    1SAPS  C314  118   3.121   3.083   8.057  0.1676 -0.3620 -0.0832
    1SAPS  H14X  119   3.087   3.187   8.078 -0.8245 -0.6449 -0.2227
    1SAPS  H14Y  120   3.042   3.004   8.063 -0.7486  0.5954  0.9071
    1SAPS  C315  121   3.179   3.079   7.909 -0.0717 -0.0797 -0.9865
    1SAPS  H15X  122   3.175   2.975   7.870 -1.2344  0.5182 -2.6115
    1SAPS  H15Y  123   3.282   3.118   7.923 -1.0437  1.3739  3.6134
    1SAPS  C316  124   3.111   3.162   7.807 -0.2406  0.2969 -0.4815
    1SAPS  H16X  125   3.154   3.148   7.705 -0.7376 -0.0940 -0.6425
    1SAPS  H16Y  126   3.119   3.271   7.828  0.9042 -0.1286  1.4995
    1SAPS  C317  127   2.958   3.132   7.789 -0.0967  0.1287 -0.2542
    1SAPS  H17X  128   2.915   3.199   7.711 -3.0943 -1.9499 -0.5517
    1SAPS  H17Y  129   2.898   3.153   7.880 -0.5098  1.0447 -0.7218
    1SAPS  C318  130   2.940   2.982   7.746  1.0687 -0.4354 -0.3353
    1SAPS  H18X  131   2.832   2.969   7.727  0.5992  2.3946 -0.0402
    1SAPS  H18Y  132   2.981   2.918   7.828  1.7086  0.3727 -0.0122
    1SAPS  H18Z  133   3.003   2.960   7.657  1.6796 -0.0064 -0.0187
    2SAPS     N  134   1.261   3.509   9.744 -0.4502 -0.4242  0.5607
    2SAPS   HN1  135   1.335   3.459   9.692  1.6774  2.1245  0.8818
    2SAPS   HN2  136   1.176   3.449   9.748  0.0666 -1.1151  1.9979
    2SAPS   HN3  137   1.234   3.587   9.681 -1.9414  0.0243  1.6883
    2SAPS   C12  138   1.304   3.551   9.881 -0.2455 -0.1703  0.4565
    2SAPS  H12A  139   1.405   3.587   9.868  1.0339 -2.7538  2.2738
    2SAPS   C13  140   1.218   3.661   9.952  0.4042 -0.2451 -0.3083
    2SAPS  O13A  141   1.116   3.715   9.901 -0.2149  0.4435  0.3564
    2SAPS  O13B  142   1.232   3.671  10.075 -0.2654 -0.3859  0.7162
    2SAPS   C11  143   1.297   3.419   9.962  0.1229 -0.3714 -0.0352
    2SAPS  H11A  144   1.190   3.392   9.955  0.3560 -1.0194 -1.7544
    2SAPS  H11B  145   1.318   3.445  10.068  1.8651  2.0855 -0.8949
    2SAPS     P  146   1.513   3.276   9.961 -0.2344  0.3892  0.0229
    2SAPS   O13  147   1.515   3.257  10.109  0.3199  0.4018  0.1580
    2SAPS   O14  148   1.566   3.160   9.878 -0.4649  0.0341 -0.1144
    2SAPS   O12  149   1.368   3.306   9.910 -0.0943 -0.3145  0.3050
    2SAPS   O11  150   1.596   3.407   9.925  0.0861  0.6194  0.5981
    2SAPS    C1  151   1.737   3.401   9.918 -0.2655 -0.1696  0.6104
    2SAPS    HA  152   1.781   3.324   9.985  2.2329 -0.3995 -1.1716
    2SAPS    HB  153   1.772   3.362   9.820 -0.6499 -1.8702  1.1083
    2SAPS    C2  154   1.807   3.538   9.928 -0.0508  0.0813 -0.7872
    2SAPS    HS  155   1.757   3.599  10.006  2.0732  3.1112 -1.6113
    2SAPS   O21  156   1.805   3.606   9.804  0.0902 -0.6591 -0.1355
    2SAPS   C21  157   1.847   3.734   9.811  0.3761 -0.2296  0.5902
    2SAPS   O22  158   1.860   3.806   9.908 -0.1929  0.1528  0.0938
    2SAPS   C22  159   1.892   3.772   9.668 -0.6738 -0.3518  0.2007
    2SAPS   H2R  160   1.802   3.809   9.613 -1.7053 -1.5588  1.0334
    2SAPS   H2S  161   1.969   3.849   9.689 -0.9865 -0.0827  0.3876
    2SAPS    C3  162   1.953   3.521   9.989 -0.5004  0.0908  0.6066
    2SAPS    HX  163   1.945   3.477  10.090  2.1135  0.6566  1.1117
    2SAPS    HY  164   1.999   3.621  10.000  1.9137 -0.8678 -0.1224
    2SAPS   O31  165   2.043   3.453   9.894  0.5978 -0.5857 -0.0922
    2SAPS   C31  166   2.069   3.325   9.917 -0.4956  0.3196 -0.3558
    2SAPS   O32  167   2.030   3.258  10.012  0.1964  0.5009  0.0693
    2SAPS   C32  168   2.182   3.280   9.830  1.1122  0.3214  0.3800
    2SAPS   H2X  169   2.210   3.184   9.879 -0.4746 -0.2885  0.1500
    2SAPS   H2Y  170   2.259   3.360   9.841  0.3215  1.2605 -0.7355
    2SAPS   C23  171   1.953   3.652   9.591  0.0184  0.2354  0.3102
    2SAPS   H3R  172   1.882   3.567   9.574  0.6533 -0.4233  0.8962
    2SAPS   H3S  173   2.029   3.599   9.652 -1.9182 -1.1251  1.6564
    2SAPS   C24  174   2.006   3.683   9.450  0.1295 -0.3144 -0.1066
    2SAPS   H4R  175   1.938   3.743   9.387  2.0863  2.6601  0.3679
    2SAPS   H4S  176   2.026   3.591   9.391 -2.7387 -2.4568  1.9443
    2SAPS   C25  177   2.129   3.767   9.460  1.1258 -0.3369  0.1343
    2SAPS   H5R  178   2.139   3.825   9.552  1.7914  2.2735 -1.4938
    2SAPS   C26  179   2.234   3.769   9.381  1.0012 -0.6620 -0.2568
    2SAPS   H6R  180   2.326   3.816   9.417  1.9245 -1.5265 -1.3942
    2SAPS   C27  181   2.249   3.696   9.246  0.2354 -0.3407  0.4083
    2SAPS   H7R  182   2.252   3.588   9.273  1.2842 -0.2054  0.8899
    2SAPS   H7S  183   2.351   3.720   9.209  0.9386 -1.3479  1.6082
    2SAPS   C28  184   2.159   3.725   9.128 -0.4506  0.0910 -1.3521
    2SAPS   H8R  185   2.052   3.733   9.154 -0.5150 -0.5092 -1.4112
    2SAPS   C29  186   2.184   3.708   9.002 -0.6232 -0.0246  0.4874
    2SAPS   H9R  187   2.110   3.720   8.921 -1.4486 -1.9530  0.9000
    2SAPS  C210  188   2.320   3.687   8.943 -0.4708 -0.9545  0.3007
    2SAPS  H10R  189   2.395   3.671   9.024  0.3376 -1.1466 -0.4721
    2SAPS  H10S  190   2.352   3.790   8.914 -0.1022 -0.5916  1.8697
    2SAPS  C211  191   2.325   3.579   8.838  0.2365 -0.1473  0.3848
    2SAPS  H11R  192   2.333   3.477   8.877 -2.4022  0.1293  1.8225
    2SAPS  C212  193   2.318   3.593   8.704  0.9904  0.1604 -0.7320
    2SAPS  H12R  194   2.310   3.502   8.642 -1.9632  0.2899 -0.6556
    2SAPS  C213  195   2.310   3.723   8.628  0.1929  0.6682  0.0656
    2SAPS  H13R  196   2.290   3.813   8.690  2.9079  0.9634  0.6473
    2SAPS  H13S  197   2.221   3.718   8.563 -3.0675 -0.6004  4.1695
    2SAPS  C214  198   2.451   3.737   8.576 -0.4025 -0.1332  0.4573
    2SAPS  H14R  199   2.534   3.702   8.639 -0.4579  0.4025  0.8372
    2SAPS  C215  200   2.495   3.788   8.459  0.0850  0.2444  0.2220
    2SAPS  H15R  201   2.602   3.782   8.437 -0.1256 -2.1227 -0.4658
    2SAPS  C216  202   2.409   3.841   8.349 -0.8210  0.3423 -0.1180
    2SAPS  H16R  203   2.452   3.941   8.325  1.1604  0.2392  2.5487
    2SAPS  H16S  204   2.307   3.861   8.388 -1.2248 -1.3268 -0.2396
    2SAPS  C217  205   2.401   3.744   8.227  0.1137  0.2457 -0.2946
    2SAPS  H17R  206   2.343   3.786   8.142  2.0754 -0.3742 -2.0399
    2SAPS  H17S  207   2.355   3.646   8.252  0.9232  0.1659  0.9869
    2SAPS  C218  208   2.543   3.701   8.175  0.1115  0.3437 -0.6204
    2SAPS  H18R  209   2.595   3.641   8.253 -2.9869 -0.6401  0.8714
    2SAPS  H18S  210   2.613   3.785   8.155  2.9673 -1.7901 -0.1584
    2SAPS  C219  211   2.535   3.608   8.054  0.0194  0.1039 -0.1541
    2SAPS  H19R  212   2.489   3.677   7.980  1.1470 -1.7912 -2.8047
    2SAPS  H19S  213   2.474   3.519   8.082 -1.8403  1.7414  1.2422
    2SAPS  C220  214   2.670   3.560   7.988 -0.4260 -0.4563 -0.6013
    2SAPS  H20R  215   2.726   3.521   8.076  2.0632  0.1590 -1.8312
    2SAPS  H20S  216   2.729   3.646   7.951 -0.4690  0.7650  1.9292
    2SAPS  H20T  217   2.646   3.486   7.909 -1.3944 -0.6003 -0.1825
    2SAPS   C33  218   2.146   3.233   9.690  0.1132  0.1393 -0.2187
    2SAPS   H3X  219   2.063   3.159   9.692  0.1427  0.1169  0.3358
    2SAPS   H3Y  220   2.239   3.189   9.648 -1.8968 -1.4555 -3.4126
    2SAPS   C34  221   2.096   3.340   9.585 -0.2983  0.2044  0.6999
    2SAPS   H4X  222   2.170   3.419   9.560 -2.3672  1.5933 -1.4383
    2SAPS   H4Y  223   2.009   3.389   9.634 -2.2350 -0.6367 -1.7048
    2SAPS   C35  224   2.043   3.275   9.454 -0.5150 -0.4409  0.5344
    2SAPS   H5X  225   2.002   3.368   9.409  1.5663  0.5945  0.6217
    2SAPS   H5Y  226   1.962   3.200   9.463 -0.4258 -0.9072 -1.8192
    2SAPS   C36  227   2.144   3.212   9.360  0.4299  0.4729 -0.5098
    2SAPS   H6X  228   2.159   3.106   9.387 -1.5506 -0.6815 -3.4772
    2SAPS   H6Y  229   2.247   3.252   9.376  1.1069 -1.1670 -0.6414
    2SAPS   C37  230   2.120   3.251   9.212  0.4324  0.2679 -0.2612
    2SAPS   H7X  231   2.126   3.362   9.222  2.7669  0.1671  0.1197
    2SAPS   H7Y  232   2.014   3.229   9.186 -1.0008  2.8842  2.6594
    2SAPS   C38  233   2.217   3.193   9.115 -0.3230  0.4425 -0.2953
    2SAPS   H8X  234   2.209   3.082   9.114 -0.7910  0.4659  0.5044
    2SAPS   H8Y  235   2.319   3.222   9.146 -1.3753  0.3175  3.8425
    2SAPS   C39  236   2.191   3.236   8.970 -0.3875  0.3394 -0.1553
    2SAPS   H9X  237   2.206   3.346   8.961 -2.5476  0.6695 -0.2764
    2SAPS   H9Y  238   2.089   3.210   8.934  0.1014  0.5546 -1.7750
    2SAPS  C310  239   2.282   3.159   8.877  0.1764  0.2955  0.4178
    2SAPS  H10X  240   2.267   3.188   8.771  3.0615  0.0658 -0.1333
    2SAPS  H10Y  241   2.269   3.049   8.875 -0.4333  0.3306  1.7878
    2SAPS  C311  242   2.432   3.172   8.896 -0.0606  0.9021  0.5489
    2SAPS  H11X  243   2.446   3.134   8.999  0.6816 -1.8653 -0.4903
    2SAPS  H11Y  244   2.467   3.277   8.902 -0.8734  1.1847  0.4550
    2SAPS  C312  245   2.523   3.097   8.792 -0.1860 -0.4310 -0.3635
    2SAPS  H12X  246   2.519   2.992   8.828 -0.7481  0.6102  2.9550
    2SAPS  H12Y  247   2.627   3.137   8.801 -0.3405  0.1251 -0.9887
    2SAPS  C313  248   2.471   3.111   8.647  0.9600 -0.4647  0.2052
    2SAPS  H13X  249   2.463   3.221   8.635  1.1062 -0.4163  0.5522
    2SAPS  H13Y  250   2.370   3.068   8.629  0.2804  0.4918  1.6019
    2SAPS  C314  251   2.572   3.063   8.546 -0.5494  0.0493  0.1673
    2SAPS  H14X  252   2.574   2.953   8.563  1.6986 -0.1340 -0.9170
    2SAPS  H14Y  253   2.663   3.122   8.570  0.2929 -1.4688  0.8129
    2SAPS  C315  254   2.540   3.089   8.401 -0.5080  0.8104  0.3599
    2SAPS  H15X  255   2.549   3.195   8.369  0.7168  0.5372 -0.2187
    2SAPS  H15Y  256   2.439   3.052   8.374  0.4198 -1.0634 -0.6839
    2SAPS  C316  257   2.632   3.002   8.308  0.0004 -0.8517 -0.2595
    2SAPS  H16X  258   2.625   2.897   8.344 -1.0910 -0.9846 -0.8166
    2SAPS  H16Y  259   2.731   3.049   8.326 -0.0820 -0.7045 -0.1969
    2SAPS  C317  260   2.610   3.006   8.155  0.2893  0.3655 -1.0530
    2SAPS  H17X  261   2.607   3.107   8.109 -0.8066 -0.1543 -2.1865
    2SAPS  H17Y  262   2.501   2.985   8.151 -0.0514  0.3258  3.3097
    2SAPS  C318  263   2.689   2.893   8.081  0.6354 -0.5310  0.2781
    2SAPS  H18X  264   2.797   2.919   8.079 -0.1805  3.5728 -1.3070
    2SAPS  H18Y  265   2.655   2.903   7.976  0.9666  1.1710  0.3003
    2SAPS  H18Z  266   2.659   2.791   8.112  0.8626 -1.2045 -1.5784
    3SAPS     N  267   1.912   5.398   9.909  0.1734 -0.1038  0.3128
    3SAPS   HN1  268   1.859   5.396   9.820  0.3190 -0.5439  0.2344
    3SAPS   HN2  269   1.946   5.496   9.923 -1.0818  0.9497 -3.0034
    3SAPS   HN3  270   1.998   5.341   9.897  1.4862  1.4749  1.6101
    3SAPS   C12  271   1.829   5.335  10.016 -0.4074  0.1890 -1.0730
    3SAPS  H12A  272   1.908   5.290  10.073  1.4272  4.3347 -0.0132
    3SAPS   C13  273   1.747   5.418  10.126 -0.4762  0.5011  0.5869
    3SAPS  O13A  274   1.759   5.545  10.111  0.6375 -0.3063  0.2613
    3SAPS  O13B  275   1.689   5.364  10.223 -0.1915  0.2385 -0.5320
    3SAPS   C11  276   1.738   5.218   9.967 -0.0834 -0.3995  0.8494
    3SAPS  H11A  277   1.653   5.260   9.909  0.3336  1.2561  1.3675
    3SAPS  H11B  278   1.688   5.164  10.050 -0.2634 -2.1833 -0.3779
    3SAPS     P  279   1.753   5.026   9.794  0.7726 -0.4861  0.2760
    3SAPS   O13  280   1.843   4.909   9.777  0.2607  0.3482 -0.1332
    3SAPS   O14  281   1.613   5.007   9.837 -0.4398 -0.1630 -0.5978
    3SAPS   O12  282   1.826   5.127   9.897  0.7477 -0.3616  0.6052
    3SAPS   O11  283   1.737   5.113   9.664 -0.0861 -0.2817  0.1971
    3SAPS    C1  284   1.615   5.116   9.582 -0.4348 -0.0224  0.0271
    3SAPS    HA  285   1.541   5.175   9.639  4.3230  5.6143  1.3077
    3SAPS    HB  286   1.639   5.176   9.491  3.1013 -0.8541  0.2747
    3SAPS    C2  287   1.584   4.974   9.522 -0.3508 -0.5200 -0.3174
    3SAPS    HS  288   1.588   4.897   9.602  0.0751 -0.0510  0.1192
    3SAPS   O21  289   1.688   4.937   9.424  0.1500 -0.0497  0.3030
    3SAPS   C21  290   1.690   4.806   9.403 -0.1912 -0.5679  0.7137
    3SAPS   O22  291   1.619   4.719   9.448  0.8857  0.0603  0.2535
    3SAPS   C22  292   1.807   4.768   9.313 -1.0415  0.6030  0.0743
    3SAPS   H2R  293   1.836   4.859   9.256 -0.1941  1.4683  1.8150
    3SAPS   H2S  294   1.885   4.735   9.385 -0.7256 -2.6596 -1.5677
    3SAPS    C3  295   1.449   4.978   9.464 -0.1693 -0.7238  0.4149
    3SAPS    HX  296   1.387   5.005   9.552  1.3930 -1.3720  1.7542
    3SAPS    HY  297   1.407   4.879   9.437 -0.2303 -0.8101  0.8266
    3SAPS   O31  298   1.441   5.068   9.354  0.3146 -0.1180 -0.3717
    3SAPS   C31  299   1.369   5.187   9.375 -0.1256  0.2567 -0.4193
    3SAPS   O32  300   1.286   5.200   9.459  0.7751 -0.1525  0.5500
    3SAPS   C32  301   1.407   5.302   9.277 -0.0759  0.0499  1.3924
    3SAPS   H2X  302   1.500   5.345   9.321  0.0985  0.5932  0.5255
    3SAPS   H2Y  303   1.326   5.378   9.275  2.1670  2.6193  0.2475
    3SAPS   C23  304   1.769   4.652   9.219 -0.2909  0.0564  0.3310
    3SAPS   H3R  305   1.696   4.686   9.142 -2.6059 -3.6368  0.6213
    3SAPS   H3S  306   1.726   4.575   9.286 -2.5270 -0.3647 -1.4409
    3SAPS   C24  307   1.888   4.587   9.137 -0.4012 -1.2635  0.0022
    3SAPS   H4R  308   1.849   4.517   9.059  0.6913 -0.8977 -0.9005
    3SAPS   H4S  309   1.940   4.522   9.210 -1.4319 -2.4794 -0.3065
    3SAPS   C25  310   1.977   4.692   9.069  0.4921 -0.0535 -0.0194
    3SAPS   H5R  311   2.070   4.721   9.120  0.6838  0.2439 -0.5352
    3SAPS   C26  312   1.953   4.758   8.952 -0.1194 -0.0678 -0.2788
    3SAPS   H6R  313   2.014   4.833   8.900 -1.6400  1.8355  0.5454
    3SAPS   C27  314   1.831   4.738   8.866 -0.2459  0.7589  0.6248
    3SAPS   H7R  315   1.776   4.646   8.893 -1.7655  1.6285  0.5679
    3SAPS   H7S  316   1.863   4.717   8.761  0.8721 -0.9397  1.2738
    3SAPS   C28  317   1.725   4.846   8.890  0.6635  0.1777  0.9593
    3SAPS   H8R  318   1.755   4.929   8.955  1.9532  0.1020  0.4784
    3SAPS   C29  319   1.597   4.844   8.837  0.8576 -0.0298  0.6584
    3SAPS   H9R  320   1.532   4.932   8.846 -1.5285 -1.6362  0.0082
    3SAPS  C210  321   1.532   4.742   8.749  0.0684  0.3684 -0.6448
    3SAPS  H10R  322   1.431   4.713   8.785  1.0975 -0.9937  1.4021
    3SAPS  H10S  323   1.580   4.641   8.750  0.9115  0.6881 -2.8624
    3SAPS  C211  324   1.537   4.789   8.604  0.4307  0.4318  0.0322
    3SAPS  H11R  325   1.622   4.747   8.547  1.0850 -1.4657  2.2463
    3SAPS  C212  326   1.446   4.864   8.543  0.3256 -0.5776  0.1483
    3SAPS  H12R  327   1.462   4.876   8.435  0.3724 -1.4524  0.0516
    3SAPS  C213  328   1.322   4.931   8.605 -0.9816 -0.4727  0.4169
    3SAPS  H13R  329   1.345   5.040   8.606 -1.8668 -0.2661 -0.6263
    3SAPS  H13S  330   1.315   4.904   8.713  0.0692 -1.4289  0.2630
    3SAPS  C214  331   1.197   4.900   8.531  0.5698 -0.5336  0.5110
    3SAPS  H14R  332   1.130   4.822   8.573  0.6706 -1.4150 -0.9000
    3SAPS  C215  333   1.163   4.951   8.409  0.5167  0.1453 -0.1282
    3SAPS  H15R  334   1.071   4.914   8.360  0.7526  1.3568 -1.5362
    3SAPS  C216  335   1.231   5.052   8.321 -0.2685  0.3753 -0.3784
    3SAPS  H16R  336   1.334   5.056   8.363  0.3764 -0.3110 -1.8420
    3SAPS  H16S  337   1.178   5.147   8.342  2.5544  1.5006  2.4389
    3SAPS  C217  338   1.226   5.035   8.171 -0.2163  0.1884  0.7850
    3SAPS  H17R  339   1.273   5.126   8.127 -1.1700  0.5385  0.4714
    3SAPS  H17S  340   1.120   5.010   8.148  0.0910  0.5072 -1.1594
    3SAPS  C218  341   1.307   4.903   8.132  0.7359 -0.7132 -0.5596
    3SAPS  H18R  342   1.251   4.822   8.185 -1.1017  0.9155  0.1249
    3SAPS  H18S  343   1.409   4.905   8.174  0.9795  2.3234 -1.0798
    3SAPS  C219  344   1.322   4.864   7.980  0.9531 -0.2724 -0.2111
    3SAPS  H19R  345   1.349   4.963   7.938 -1.3675  0.5138  0.0125
    3SAPS  H19S  346   1.224   4.827   7.945 -0.4298  1.7810  1.2439
    3SAPS  C220  347   1.428   4.751   7.945 -0.6673 -0.1311 -0.5085
    3SAPS  H20R  348   1.524   4.786   7.990 -0.8753  0.1899 -0.3065
    3SAPS  H20S  349   1.441   4.731   7.836  0.5189 -0.0429 -0.4034
    3SAPS  H20T  350   1.406   4.659   8.002  1.5616  0.0422  0.7878
    3SAPS   C33  351   1.429   5.260   9.129  0.6870  0.4641 -0.3134
    3SAPS   H3X  352   1.518   5.193   9.125  0.7486  0.5466 -0.3394
    3SAPS   H3Y  353   1.471   5.339   9.063 -0.2820  1.3291  0.0817
    3SAPS   C34  354   1.301   5.207   9.058 -0.7430  0.3742  1.0170
    3SAPS   H4X  355   1.214   5.273   9.078 -0.8147  0.9126 -0.8545
    3SAPS   H4Y  356   1.281   5.105   9.098  1.1414 -0.5899 -0.3169
    3SAPS   C35  357   1.314   5.195   8.902 -0.0399 -0.1511  0.3518
    3SAPS   H5X  358   1.228   5.130   8.874  0.0545 -1.3425  2.6519
    3SAPS   H5Y  359   1.404   5.142   8.864  0.2477  0.0621  0.7401
    3SAPS   C36  360   1.298   5.331   8.833 -0.2576  0.2868 -0.1998
    3SAPS   H6X  361   1.369   5.406   8.875 -0.9022 -0.5001  2.4508
    3SAPS   H6Y  362   1.202   5.383   8.848 -0.5916 -0.1344 -0.8292
    3SAPS   C37  363   1.311   5.300   8.685  0.0960 -0.3067 -0.6031
    3SAPS   H7X  364   1.216   5.245   8.665 -0.7065  0.9343 -0.3209
    3SAPS   H7Y  365   1.391   5.226   8.662 -0.2610 -1.0818  0.5621
    3SAPS   C38  366   1.318   5.428   8.601 -0.1134  0.2041 -0.0701
    3SAPS   H8X  367   1.424   5.459   8.592  0.2761 -1.0956 -0.1422
    3SAPS   H8Y  368   1.262   5.506   8.658 -1.5430 -0.1897 -0.8854
    3SAPS   C39  369   1.251   5.418   8.463  0.1817 -0.2556 -0.0128
    3SAPS   H9X  370   1.149   5.377   8.472  0.5745 -1.3529 -0.3644
    3SAPS   H9Y  371   1.306   5.335   8.413 -0.3342  0.1253 -1.2351
    3SAPS  C310  372   1.254   5.548   8.380 -0.3427  0.5803  0.6113
    3SAPS  H10X  373   1.356   5.590   8.366 -0.5721  1.7501  2.1707
    3SAPS  H10Y  374   1.197   5.630   8.429 -1.3722 -0.1791  0.7227
    3SAPS  C311  375   1.189   5.527   8.243  0.3881  0.2319  0.4318
    3SAPS  H11X  376   1.131   5.618   8.215 -0.3172  0.9221  3.6918
    3SAPS  H11Y  377   1.123   5.440   8.263 -1.4697  1.7500  1.2073
    3SAPS  C312  378   1.299   5.495   8.145  0.4234  0.4089  0.0216
    3SAPS  H12X  379   1.383   5.447   8.200 -0.0490 -1.0275 -0.4602
    3SAPS  H12Y  380   1.352   5.586   8.107  0.8778 -0.1918 -0.8249
    3SAPS  C313  381   1.261   5.410   8.018  0.1524  0.1176  0.3150
    3SAPS  H13X  382   1.207   5.316   8.044 -1.6188  0.7870 -0.7489
    3SAPS  H13Y  383   1.357   5.375   7.975  0.6332 -0.5963  1.9196
    3SAPS  C314  384   1.180   5.474   7.899 -0.3316  0.8529  0.4612
    3SAPS  H14X  385   1.194   5.422   7.802  0.7347  1.1634  0.4369
    3SAPS  H14Y  386   1.214   5.577   7.876 -1.6696  0.8140 -2.1138
    3SAPS  C315  387   1.028   5.473   7.927 -1.0832  0.0684  0.1891
    3SAPS  H15X  388   1.006   5.532   8.018 -1.1342 -1.3144  1.1047
    3SAPS  H15Y  389   1.001   5.365   7.934  1.6658 -0.7628 -0.9370
    3SAPS  C316  390   0.958   5.537   7.808 -0.0193 -0.2307 -0.3416
    3SAPS  H16X  391   1.006   5.499   7.715  0.3784 -1.1451  0.2288
    3SAPS  H16Y  392   0.980   5.646   7.808  1.2499 -0.4534  1.2516
    3SAPS  C317  393   0.804   5.530   7.801 -0.3020  0.1493  0.1871
    3SAPS  H17X  394   0.757   5.567   7.894 -1.5874  0.5893 -0.6120
    3SAPS  H17Y  395   0.777   5.423   7.786 -2.3618  0.9099 -2.2153
    3SAPS  C318  396   0.751   5.612   7.679 -0.6354  0.0344  0.4453
    3SAPS  H18X  397   0.765   5.555   7.585  1.3812 -0.3472  0.9193
    3SAPS  H18Y  398   0.806   5.709   7.672 -0.8263  0.1829  0.9494
    3SAPS  H18Z  399   0.643   5.633   7.696 -0.5507  0.3486  0.5966
    4SAPS     N  400   3.753   6.103   9.946 -0.4405  0.4654  0.2293
    4SAPS   HN1  401   3.703   6.114   9.856  0.5914 -0.5634 -0.5072
    4SAPS   HN2  402   3.850   6.065   9.938 -0.0473  1.3017  0.8222
    4SAPS   HN3  403   3.693   6.032   9.993 -1.3757  0.4537 -0.9472
    4SAPS   C12  404   3.742   6.222  10.033  0.0766  0.4315 -0.2607
    4SAPS  H12A  405   3.681   6.302   9.995 -2.1825  0.1269  2.3896
    4SAPS   C13  406   3.669   6.191  10.165  1.0057 -0.0678  0.4582
    4SAPS  O13A  407   3.624   6.076  10.171  0.3496 -0.8592 -0.1136
    4SAPS  O13B  408   3.628   6.292  10.228  0.2617 -0.4213  0.2774
    4SAPS   C11  409   3.888   6.276  10.054  0.0901 -0.3756 -1.0922
    4SAPS  H11A  410   3.949   6.198  10.105 -2.4977 -2.3450 -0.8366
    4SAPS  H11B  411   3.872   6.362  10.123 -0.4978 -0.9380 -0.5130
    4SAPS     P  412   4.084   6.400   9.927 -0.0079  0.0908 -0.0173
    4SAPS   O13  413   4.062   6.544   9.942 -0.0592  0.6279  0.4092
    4SAPS   O14  414   4.177   6.336  10.026 -0.3988  0.1032  0.4099
    4SAPS   O12  415   3.950   6.319   9.928  0.5274  0.0570 -0.5098
    4SAPS   O11  416   4.117   6.377   9.773 -0.4159 -0.0440 -0.1829
    4SAPS    C1  417   4.151   6.256   9.711  0.6257  0.0770 -0.1466
    4SAPS    HA  418   4.259   6.259   9.684  0.6504  0.2197 -0.0385
    4SAPS    HB  419   4.139   6.169   9.779 -0.8297  1.9877  2.2125
    4SAPS    C2  420   4.058   6.245   9.585  0.3994  0.9767 -0.4249
    4SAPS    HS  421   4.036   6.139   9.557 -0.1205  1.2030 -0.8696
    4SAPS   O21  422   4.122   6.307   9.476  0.4800  0.5393 -0.0603
    4SAPS   C21  423   4.222   6.243   9.418 -0.0338  0.4692 -0.0807
    4SAPS   O22  424   4.273   6.137   9.450 -0.2391 -0.2917 -0.3600
    4SAPS   C22  425   4.285   6.328   9.303 -0.2837 -0.3826 -0.3258
    4SAPS   H2R  426   4.372   6.275   9.258  0.0606  1.3981 -1.8991
    4SAPS   H2S  427   4.201   6.341   9.231 -1.7761  0.2286  1.4569
    4SAPS    C3  428   3.921   6.308   9.609 -0.8601  0.1170  0.1837
    4SAPS    HX  429   3.916   6.419   9.608 -2.1071  0.1335  2.3189
    4SAPS    HY  430   3.887   6.275   9.710  0.5669 -2.0091  0.0291
    4SAPS   O31  431   3.821   6.270   9.509  0.3085  0.2148 -0.5500
    4SAPS   C31  432   3.709   6.207   9.556  0.1142  0.0793 -0.0405
    4SAPS   O32  433   3.695   6.154   9.665 -0.4592  0.2368  0.2236
    4SAPS   C32  434   3.604   6.218   9.443  0.3087  0.2021  0.5864
    4SAPS   H2X  435   3.656   6.219   9.345 -0.0437  1.7757  0.3787
    4SAPS   H2Y  436   3.565   6.322   9.458  0.1359  0.0354  1.3267
    4SAPS   C23  437   4.339   6.471   9.343  0.3276  0.8542 -0.2685
    4SAPS   H3R  438   4.404   6.448   9.430 -0.1560 -2.6112 -0.6872
    4SAPS   H3S  439   4.257   6.537   9.380  0.9172  0.3150  2.1497
    4SAPS   C24  440   4.417   6.548   9.233  0.5892  0.9339 -0.5655
    4SAPS   H4R  441   4.485   6.486   9.171 -0.1836 -1.5689  0.9549
    4SAPS   H4S  442   4.475   6.635   9.269  0.6623 -0.1792  2.3018
    4SAPS   C25  443   4.306   6.600   9.150  0.4326 -0.1351 -0.1963
    4SAPS   H5R  444   4.248   6.683   9.195  0.3354  0.4385 -1.3312
    4SAPS   C26  445   4.278   6.568   9.022 -0.0622  0.0581  0.5956
    4SAPS   H6R  446   4.190   6.618   8.978  0.4363 -0.9084 -1.6440
    4SAPS   C27  447   4.343   6.475   8.919 -0.6368  0.2408  0.6656
    4SAPS   H7R  448   4.329   6.368   8.945  0.2179 -0.2300 -0.6967
    4SAPS   H7S  449   4.451   6.489   8.897 -1.0635  0.2959 -1.6768
    4SAPS   C28  450   4.272   6.484   8.787  0.7047  0.7471 -0.5971
    4SAPS   H8R  451   4.162   6.484   8.797  0.5673  1.1956 -1.8677
    4SAPS   C29  452   4.321   6.507   8.661 -0.0491  0.3156 -0.6043
    4SAPS   H9R  453   4.257   6.511   8.572  0.6623  1.3081 -1.0912
    4SAPS  C210  454   4.456   6.530   8.610  0.8099 -1.0122 -0.4427
    4SAPS  H10R  455   4.469   6.447   8.537 -1.7398 -0.1560 -1.9817
    4SAPS  H10S  456   4.535   6.507   8.685 -1.0556 -1.9405  1.3430
    4SAPS  C211  457   4.490   6.667   8.558 -0.2506  0.8333 -0.4462
    4SAPS  H11R  458   4.461   6.746   8.629  0.4404  0.4967  0.2262
    4SAPS  C212  459   4.556   6.702   8.446 -0.5288  0.3258  0.4533
    4SAPS  H12R  460   4.557   6.806   8.411  2.2634  0.2210 -0.0446
    4SAPS  C213  461   4.612   6.598   8.345  0.0581 -0.2169 -0.6139
    4SAPS  H13R  462   4.532   6.522   8.333 -1.3216  1.1500 -0.3921
    4SAPS  H13S  463   4.692   6.540   8.395 -0.6398  0.3360  1.2096
    4SAPS  C214  464   4.671   6.658   8.216  0.5307 -0.0791  0.2409
    4SAPS  H14R  465   4.622   6.634   8.121 -1.7496 -2.2549  1.8430
    4SAPS  C215  466   4.790   6.716   8.207 -0.3040  0.5053  0.1073
    4SAPS  H15R  467   4.812   6.755   8.107 -0.8057  0.5444  0.0107
    4SAPS  C216  468   4.892   6.752   8.315  0.2744 -0.7346 -0.0476
    4SAPS  H16R  469   4.995   6.732   8.278  0.0770 -0.6159 -0.6874
    4SAPS  H16S  470   4.878   6.684   8.401 -1.1909  2.1829  2.1902
    4SAPS  C217  471   4.884   6.894   8.377 -0.6546  0.3298  0.6289
    4SAPS  H17R  472   4.966   6.911   8.450 -2.1144  0.6925  2.2378
    4SAPS  H17S  473   4.791   6.908   8.435 -0.3219 -0.0033  1.2456
    4SAPS  C218  474   4.881   6.997   8.269  0.0336  0.1376  0.4145
    4SAPS  H18R  475   4.805   6.973   8.191  0.5837 -0.0282 -0.0815
    4SAPS  H18S  476   4.984   6.984   8.229 -0.1308  1.1022 -0.3470
    4SAPS  C219  477   4.861   7.147   8.324  0.1609  0.1986 -0.3123
    4SAPS  H19R  478   4.921   7.211   8.256  0.6653 -0.4190 -0.4542
    4SAPS  H19S  479   4.900   7.148   8.427  3.0647 -0.7859 -1.2999
    4SAPS  C220  480   4.711   7.181   8.327  0.3877  0.4750 -0.6028
    4SAPS  H20R  481   4.657   7.097   8.376  1.5139  0.1993  0.2137
    4SAPS  H20S  482   4.666   7.198   8.227 -0.3201  1.1702 -0.1734
    4SAPS  H20T  483   4.690   7.273   8.387  0.1942  0.8701 -1.2679
    4SAPS   C33  484   3.479   6.123   9.457  0.1785  0.0026 -0.5578
    4SAPS   H3X  485   3.409   6.167   9.383 -0.5815  2.5546  1.5154
    4SAPS   H3Y  486   3.448   6.132   9.564  1.1680  0.9951 -0.3345
    4SAPS   C34  487   3.501   5.973   9.422  0.6418  0.2178  0.0514
    4SAPS   H4X  488   3.407   5.915   9.415  1.5465 -1.4194  0.8617
    4SAPS   H4Y  489   3.556   5.941   9.513 -2.1211  1.4675  2.3199
    4SAPS   C35  490   3.591   5.942   9.303 -0.2078 -0.1196  0.4828
    4SAPS   H5X  491   3.605   5.832   9.297 -0.2075 -0.0887 -0.1513
    4SAPS   H5Y  492   3.697   5.975   9.308 -0.3065  0.0088  2.9286
    4SAPS   C36  493   3.528   5.980   9.164 -0.3307  0.1057 -0.6036
    4SAPS   H6X  494   3.487   6.083   9.167 -1.8453 -0.4241 -1.5514
    4SAPS   H6Y  495   3.439   5.913   9.166 -0.8765  0.8258 -0.3799
    4SAPS   C37  496   3.617   5.958   9.039 -0.1206  0.3001 -0.8933
    4SAPS   H7X  497   3.704   5.900   9.075  1.8853  2.8855 -1.3126
    4SAPS   H7Y  498   3.656   6.058   9.012 -0.3265  0.1110 -1.9422
    4SAPS   C38  499   3.546   5.888   8.919 -0.5343  0.0195  0.2245
    4SAPS   H8X  500   3.500   5.798   8.963 -2.5916  1.0683  0.3700
    4SAPS   H8Y  501   3.619   5.865   8.839  0.6770  0.7892  1.0801
    4SAPS   C39  502   3.443   5.976   8.846  0.3556  0.2804  0.3249
    4SAPS   H9X  503   3.485   6.072   8.812  1.0428 -0.4561 -1.0008
    4SAPS   H9Y  504   3.352   5.998   8.906  1.1293  3.3607  0.4962
    4SAPS  C310  505   3.371   5.902   8.723 -0.1687  0.5972  0.2808
    4SAPS  H10X  506   3.269   5.942   8.706  0.7816  2.5847 -1.3001
    4SAPS  H10Y  507   3.362   5.794   8.746  0.0402  0.1703 -1.4919
    4SAPS  C311  508   3.456   5.893   8.588 -0.3879  0.5040  0.1941
    4SAPS  H11X  509   3.407   5.823   8.517  2.5023 -0.6054 -0.8631
    4SAPS  H11Y  510   3.558   5.854   8.610  0.0372 -0.2452 -2.7230
    4SAPS  C312  511   3.454   6.028   8.521  0.3799 -0.7273  0.1633
    4SAPS  H12X  512   3.459   6.103   8.602  0.8558  0.4498 -0.9330
    4SAPS  H12Y  513   3.355   6.054   8.478 -0.5473 -1.3037  1.8410
    4SAPS  C313  514   3.569   6.047   8.421 -0.6186 -0.3464  0.0673
    4SAPS  H13X  515   3.670   6.071   8.461  0.2112  0.2476 -2.2125
    4SAPS  H13Y  516   3.549   6.139   8.362 -1.9348 -1.7797 -1.8983
    4SAPS  C314  517   3.574   5.929   8.318 -0.1561 -0.6331 -0.1421
    4SAPS  H14X  518   3.480   5.921   8.261 -0.3217 -0.4964  0.1093
    4SAPS  H14Y  519   3.584   5.835   8.377 -0.4819  0.6154  2.0534
    4SAPS  C315  520   3.690   5.937   8.215  0.6066 -0.0650  0.2324
    4SAPS  H15X  521   3.712   5.833   8.183 -0.1612 -0.3083  0.4938
    4SAPS  H15Y  522   3.776   5.971   8.277  0.2341  1.4396 -0.0265
    4SAPS  C316  523   3.667   6.043   8.110 -0.3416 -0.4761 -0.1510
    4SAPS  H16X  524   3.669   6.135   8.173  0.6851 -0.6003  0.0157
    4SAPS  H16Y  525   3.561   6.027   8.083 -1.7274 -0.6860  4.5185
    4SAPS  C317  526   3.757   6.045   7.995 -0.5592 -0.0068  0.0372
    4SAPS  H17X  527   3.766   5.945   7.948  2.7763  1.1842 -2.2328
    4SAPS  H17Y  528   3.857   6.083   8.026 -0.1041 -0.6340 -0.6351
    4SAPS  C318  529   3.703   6.133   7.887 -0.6002 -0.0307  0.0849
    4SAPS  H18X  530   3.680   6.236   7.921 -3.2540 -0.1672 -1.0308
    4SAPS  H18Y  531   3.604   6.095   7.854 -0.7509  1.4862 -1.3410
    4SAPS  H18Z  532   3.772   6.128   7.800 -0.1558  0.7245  0.3846
    5SAPS     N  533   6.612   4.179   9.891  0.3629 -0.3095 -0.1426
    5SAPS   HN1  534   6.616   4.077   9.908 -0.8604 -0.8751 -2.6330
    5SAPS   HN2  535   6.682   4.207   9.819  0.4141  2.2438  0.8076
    5SAPS   HN3  536   6.629   4.230   9.980 -1.2514  1.8313 -0.9532
    5SAPS   C12  537   6.469   4.206   9.837  0.1843 -0.2127  0.7572
    5SAPS  H12A  538   6.450   4.126   9.767 -0.4171 -0.2494  0.9546
    5SAPS   C13  539   6.357   4.220   9.954  0.0495 -0.0728  0.9787
    5SAPS  O13A  540   6.388   4.220  10.072 -0.2490 -0.7680 -0.1997
    5SAPS  O13B  541   6.235   4.218   9.915 -0.2476  0.2730  0.2792
    5SAPS   C11  542   6.466   4.344   9.757  0.6685 -0.4511 -0.3912
    5SAPS  H11A  543   6.369   4.351   9.702  0.5288  0.2777 -0.0647
    5SAPS  H11B  544   6.551   4.330   9.687  1.7948 -0.2709  0.9005
    5SAPS     P  545   6.596   4.574   9.811  0.0568 -0.0820  0.2704
    5SAPS   O13  546   6.528   4.699   9.828  0.1641  0.0853 -0.1446
    5SAPS   O14  547   6.712   4.547   9.894 -0.1431 -0.4846 -0.2676
    5SAPS   O12  548   6.493   4.459   9.836  0.2614  0.3992 -0.0555
    5SAPS   O11  549   6.633   4.558   9.660  0.4157 -0.0948  0.4435
    5SAPS    C1  550   6.552   4.572   9.550 -0.1021 -0.1599  0.6684
    5SAPS    HA  551   6.595   4.511   9.468  0.6549  0.3466  0.6783
    5SAPS    HB  552   6.452   4.525   9.563 -0.0622 -1.0230 -1.6190
    5SAPS    C2  553   6.537   4.719   9.505 -0.0476 -0.2145  0.1737
    5SAPS    HS  554   6.506   4.783   9.590 -2.6179 -0.5146 -0.4585
    5SAPS   O21  555   6.424   4.731   9.413 -0.1008  0.1933 -0.2360
    5SAPS   C21  556   6.380   4.844   9.377 -0.6045 -0.2443 -0.2646
    5SAPS   O22  557   6.431   4.956   9.391 -0.3311  0.0464  0.6765
    5SAPS   C22  558   6.235   4.821   9.328  0.3491 -0.5012 -0.1525
    5SAPS   H2R  559   6.242   4.739   9.254  1.0995 -0.3069 -0.3036
    5SAPS   H2S  560   6.177   4.787   9.416  0.0845 -1.1869 -0.5860
    5SAPS    C3  561   6.669   4.785   9.460  0.3968  0.3826  0.0985
    5SAPS    HX  562   6.739   4.757   9.542  1.1197  0.8646 -0.3437
    5SAPS    HY  563   6.669   4.896   9.456 -1.4599  0.3772 -1.5997
    5SAPS   O31  564   6.710   4.723   9.333 -0.2443 -0.1264  0.3653
    5SAPS   C31  565   6.826   4.657   9.330 -1.1081 -0.8495 -0.2670
    5SAPS   O32  566   6.901   4.646   9.424  0.2320 -0.3536 -0.0823
    5SAPS   C32  567   6.848   4.602   9.191  0.8799 -0.2348  0.0523
    5SAPS   H2X  568   6.770   4.657   9.135 -2.0093 -1.4633  2.5667
    5SAPS   H2Y  569   6.811   4.498   9.177 -2.1253  0.8648 -0.8773
    5SAPS   C23  570   6.166   4.943   9.274  0.0005 -0.1365  0.6590
    5SAPS   H3R  571   6.174   5.025   9.348 -0.3795 -1.2029  1.9138
    5SAPS   H3S  572   6.060   4.910   9.265  0.1947 -0.2491 -1.9694
    5SAPS   C24  573   6.210   4.993   9.132 -0.2609  0.6879  0.6209
    5SAPS   H4R  574   6.315   5.024   9.151 -0.1678  0.7262  0.0512
    5SAPS   H4S  575   6.146   5.081   9.113  0.0497  0.5830 -1.0730
    5SAPS   C25  576   6.188   4.895   9.018  0.2718  0.2984  0.3417
    5SAPS   H5R  577   6.089   4.895   8.972  1.3066  0.5118 -2.0525
    5SAPS   C26  578   6.286   4.808   8.972 -0.7103 -0.0695 -0.1296
    5SAPS   H6R  579   6.257   4.738   8.893 -1.0644  0.7135 -0.7122
    5SAPS   C27  580   6.429   4.810   9.014  0.1970  0.4547 -0.1243
    5SAPS   H7R  581   6.444   4.865   9.109  2.6031  1.2420 -0.9021
    5SAPS   H7S  582   6.480   4.872   8.937 -1.8800  0.4075 -1.6476
    5SAPS   C28  583   6.474   4.669   9.038 -0.6161 -1.0944 -0.1856
    5SAPS   H8R  584   6.458   4.627   9.138 -2.4782  0.1879  0.1165
    5SAPS   C29  585   6.564   4.613   8.955  0.3235  0.5261  0.1095
    5SAPS   H9R  586   6.601   4.512   8.977 -2.8628 -1.0865 -1.2486
    5SAPS  C210  587   6.618   4.678   8.825  0.2629 -0.0635 -0.3172
    5SAPS  H10R  588   6.720   4.634   8.814  1.0991  0.8302  2.8010
    5SAPS  H10S  589   6.637   4.780   8.864  0.9574 -1.4883  3.6141
    5SAPS  C211  590   6.532   4.690   8.704  0.2203 -0.7215 -0.1292
    5SAPS  H11R  591   6.435   4.740   8.717  0.2089 -0.6656 -0.4206
    5SAPS  C212  592   6.561   4.643   8.585  0.0426  0.1027 -0.0204
    5SAPS  H12R  593   6.485   4.640   8.505  1.2469 -0.4758 -1.1909
    5SAPS  C213  594   6.679   4.561   8.548 -0.1907 -0.2679  0.1167
    5SAPS  H13R  595   6.697   4.472   8.612  0.4331  1.8084  2.9882
    5SAPS  H13S  596   6.775   4.614   8.559 -1.2605  1.9295 -0.5741
    5SAPS  C214  597   6.673   4.511   8.403 -0.0362  0.1627  0.2645
    5SAPS  H14R  598   6.571   4.497   8.364 -0.5536  1.8598  0.8782
    5SAPS  C215  599   6.772   4.464   8.325 -0.0025 -0.4116 -0.2617
    5SAPS  H15R  600   6.752   4.445   8.218 -2.8448 -0.6454  0.2473
    5SAPS  C216  601   6.914   4.449   8.372  0.3645  0.4719 -0.1034
    5SAPS  H16R  602   6.929   4.508   8.465 -2.1432 -0.8273  1.2330
    5SAPS  H16S  603   6.983   4.491   8.296 -0.1398  0.0395 -0.8087
    5SAPS  C217  604   6.948   4.305   8.392 -0.2905  0.2564  0.1978
    5SAPS  H17R  605   6.867   4.257   8.450 -1.8593  0.4213 -1.7202
    5SAPS  H17S  606   7.030   4.289   8.465 -0.3285  0.8210  0.3690
    5SAPS  C218  607   6.981   4.223   8.270 -0.5264  0.1955  0.1151
    5SAPS  H18R  608   6.892   4.208   8.205 -0.1723  1.7633 -0.7903
    5SAPS  H18S  609   7.048   4.275   8.198 -0.0036 -0.9990 -0.2906
    5SAPS  C219  610   7.055   4.089   8.290 -0.3828 -0.4115  0.4485
    5SAPS  H19R  611   6.994   4.042   8.370  0.4063 -2.2434  0.0259
    5SAPS  H19S  612   7.155   4.105   8.336 -0.1696 -1.2509  0.2957
    5SAPS  C220  613   7.065   3.986   8.174 -0.0371  0.2281 -0.7423
    5SAPS  H20R  614   7.147   3.920   8.208  2.2781  2.1298 -2.3627
    5SAPS  H20S  615   7.108   4.039   8.086 -0.4873  0.5571 -0.7704
    5SAPS  H20T  616   6.964   3.946   8.150 -0.8273  1.9475 -0.4634
    5SAPS   C33  617   6.993   4.625   9.134  0.2161 -0.1964  0.2918
    5SAPS   H3X  618   7.061   4.543   9.165 -2.0499 -1.5738  1.9647
    5SAPS   H3Y  619   7.034   4.719   9.177  0.0088  0.5256 -1.0357
    5SAPS   C34  620   6.982   4.635   8.984 -0.3429  0.6620  0.1008
    5SAPS   H4X  621   6.920   4.721   8.950 -0.4455 -0.0143 -1.5067
    5SAPS   H4Y  622   6.940   4.544   8.936 -0.3430  0.4180  0.5604
    5SAPS   C35  623   7.123   4.658   8.920  0.9453  0.3812  0.0042
    5SAPS   H5X  624   7.193   4.572   8.924  0.8829  0.3083 -0.4190
    5SAPS   H5Y  625   7.162   4.744   8.978  0.5095 -1.1683  2.7949
    5SAPS   C36  626   7.124   4.696   8.764 -0.2078 -0.4150  0.4069
    5SAPS   H6X  627   7.136   4.806   8.757 -0.9456 -0.0563  3.3830
    5SAPS   H6Y  628   7.025   4.667   8.722  0.8397 -3.2851 -0.3046
    5SAPS   C37  629   7.248   4.632   8.699  0.3265  0.2725 -0.9211
    5SAPS   H7X  630   7.272   4.535   8.746 -1.0641  0.0442 -0.6170
    5SAPS   H7Y  631   7.337   4.698   8.706 -1.0176  2.1457 -0.5251
    5SAPS   C38  632   7.227   4.613   8.546 -0.1209  0.0199  0.5822
    5SAPS   H8X  633   7.134   4.557   8.525  0.8530 -1.7709  0.8193
    5SAPS   H8Y  634   7.317   4.558   8.513 -0.7740  0.1433 -1.5292
    5SAPS   C39  635   7.233   4.749   8.470  0.6621  0.6604 -0.3419
    5SAPS   H9X  636   7.310   4.811   8.521 -1.6635  1.9565  1.8697
    5SAPS   H9Y  637   7.139   4.807   8.478 -0.1141 -0.6664  0.4730
    5SAPS  C310  638   7.286   4.746   8.325  0.0748  0.2809 -0.6298
    5SAPS  H10X  639   7.201   4.706   8.265  0.2338 -1.9895  0.5475
    5SAPS  H10Y  640   7.363   4.666   8.319  0.0262  0.3353 -4.2051
    5SAPS  C311  641   7.336   4.875   8.265  0.4288 -0.2080 -0.5784
    5SAPS  H11X  642   7.414   4.915   8.334  0.7258  0.7336 -1.4338
    5SAPS  H11Y  643   7.247   4.941   8.260 -0.0797 -0.9690 -2.6652
    5SAPS  C312  644   7.406   4.849   8.132  0.6770 -0.7827  0.2337
    5SAPS  H12X  645   7.332   4.809   8.060  0.9944 -0.7310 -0.1209
    5SAPS  H12Y  646   7.484   4.771   8.142  0.6529 -0.9040 -0.4992
    5SAPS  C313  647   7.470   4.966   8.059  0.1992 -0.3081 -0.4126
    5SAPS  H13X  648   7.506   4.932   7.960 -2.3512  0.0524 -1.5214
    5SAPS  H13Y  649   7.560   5.006   8.111  0.2660 -0.0068 -0.7535
    5SAPS  C314  650   7.383   5.092   8.025  0.2207  0.0005 -0.1311
    5SAPS  H14X  651   7.321   5.118   8.113  1.5021 -0.6677  1.0098
    5SAPS  H14Y  652   7.311   5.069   7.943 -0.7046 -1.1014  0.9529
    5SAPS  C315  653   7.466   5.207   7.971  0.4152 -0.3602 -0.5364
    5SAPS  H15X  654   7.543   5.171   7.899 -0.4263 -1.0473 -1.1199
    5SAPS  H15Y  655   7.526   5.243   8.057 -0.8156  2.1437 -0.6466
    5SAPS  C316  656   7.388   5.319   7.910  0.3684 -0.7780 -0.1850
    5SAPS  H16X  657   7.296   5.346   7.966  0.1232 -0.3688 -0.7782
    5SAPS  H16Y  658   7.360   5.280   7.810  1.0023  0.3893 -0.8370
    5SAPS  C317  659   7.465   5.446   7.887 -0.2517  0.6496  0.0582
    5SAPS  H17X  660   7.480   5.485   7.989  1.4847 -0.7979  0.4212
    5SAPS  H17Y  661   7.406   5.519   7.828 -1.6067  0.3640  1.0214
    5SAPS  C318  662   7.595   5.424   7.814  0.9178 -0.5790 -0.6329
    5SAPS  H18X  663   7.588   5.403   7.705  1.0186 -1.5510 -0.4658
    5SAPS  H18Y  664   7.662   5.342   7.849  2.6387  0.7027 -0.8097
    5SAPS  H18Z  665   7.654   5.516   7.831  0.7986 -0.9933  2.7155
    6SAPS     N  666   6.877   4.198  10.262 -0.4791  0.5326 -0.0977
    6SAPS   HN1  667   6.893   4.107  10.311 -0.8649  0.5402  0.0449
    6SAPS   HN2  668   6.881   4.278  10.328 -3.2010 -0.5943  1.6272
    6SAPS   HN3  669   6.791   4.207  10.205 -0.3816  1.8348 -0.0669
    6SAPS   C12  670   6.998   4.214  10.178 -0.2003  0.4612 -0.7776
    6SAPS  H12A  671   7.002   4.307  10.125 -1.2458  0.2566 -1.2398
    6SAPS   C13  672   7.128   4.203  10.266 -0.4088  0.2080  0.8208
    6SAPS  O13A  673   7.128   4.187  10.384 -0.8128  0.3237  0.1708
    6SAPS  O13B  674   7.237   4.200  10.193 -0.0417 -0.6332  0.2044
    6SAPS   C11  675   7.016   4.096  10.078  0.4515 -0.3504 -0.2881
    6SAPS  H11A  676   6.989   4.001  10.129 -1.6712  0.3149 -0.0756
    6SAPS  H11B  677   7.115   4.092  10.030  1.0398  2.7267  0.4234
    6SAPS     P  678   6.949   4.166   9.830 -0.2595  0.0254 -0.1017
    6SAPS   O13  679   6.833   4.223   9.758 -0.2507 -0.2008 -0.4419
    6SAPS   O14  680   7.076   4.240   9.820  0.4564  0.1465 -0.9818
    6SAPS   O12  681   6.915   4.121   9.981  0.4521  0.1036  0.0902
    6SAPS   O11  682   6.976   4.022   9.769  0.2849 -0.2355  0.1340
    6SAPS    C1  683   6.886   3.951   9.692 -0.0832  0.4438 -0.5233
    6SAPS    HA  684   6.852   3.862   9.749 -0.0718  1.5892  1.3882
    6SAPS    HB  685   6.791   4.001   9.666 -0.1859 -0.2533 -1.5370
    6SAPS    C2  686   6.925   3.919   9.548  0.2746  0.0471 -0.0432
    6SAPS    HS  687   6.833   3.882   9.499  0.3719 -2.1365  1.2724
    6SAPS   O21  688   7.017   3.808   9.561  0.1863  0.0870 -0.4554
    6SAPS   C21  689   6.963   3.688   9.557 -0.2664  0.1645  0.3059
    6SAPS   O22  690   6.846   3.664   9.583  0.1977  0.0992  0.2931
    6SAPS   C22  691   7.073   3.585   9.508 -0.2700  0.0281  0.1258
    6SAPS   H2R  692   7.179   3.619   9.521  0.0146 -1.3992  1.9269
    6SAPS   H2S  693   7.059   3.492   9.567 -2.2604  0.2831  0.1169
    6SAPS    C3  694   6.991   4.038   9.471  0.0642  0.3123  0.5846
    6SAPS    HX  695   7.086   4.060   9.523  0.9026 -1.2758 -0.2052
    6SAPS    HY  696   6.920   4.124   9.469  0.0895  0.3282 -1.1026
    6SAPS   O31  697   7.019   4.000   9.327  0.4693  0.3902 -0.7028
    6SAPS   C31  698   7.072   4.096   9.259  0.7140  0.4932  0.0642
    6SAPS   O32  699   7.106   4.204   9.299  0.5200 -0.3619  0.4176
    6SAPS   C32  700   7.071   4.044   9.113 -0.2993  0.1197  0.2803
    6SAPS   H2X  701   6.968   4.017   9.083 -0.9035  0.7882  1.6739
    6SAPS   H2Y  702   7.136   3.954   9.121 -1.0251 -0.3724  0.6866
    6SAPS   C23  703   7.046   3.547   9.360 -0.3814 -0.8831 -0.0088
    6SAPS   H3R  704   6.953   3.486   9.355 -2.2143  1.3756  2.9264
    6SAPS   H3S  705   7.133   3.495   9.316 -0.6135  1.1600 -3.2102
    6SAPS   C24  706   7.005   3.659   9.261  0.0580 -0.1098 -1.0388
    6SAPS   H4R  707   7.077   3.742   9.273  1.6419 -1.6517  0.7862
    6SAPS   H4S  708   6.901   3.695   9.276  0.1783  0.3514 -1.3099
    6SAPS   C25  709   7.001   3.597   9.122  0.1962  0.3350 -0.6969
    6SAPS   H5R  710   6.901   3.557   9.099  0.4724 -0.9250  0.1844
    6SAPS   C26  711   7.090   3.599   9.023  0.3072 -0.3822 -0.3949
    6SAPS   H6R  712   7.069   3.551   8.926 -1.0718 -0.1750 -0.2158
    6SAPS   C27  713   7.229   3.648   9.046 -0.3478  0.8941 -0.5574
    6SAPS   H7R  714   7.251   3.644   9.155 -0.7993  0.3602 -0.4852
    6SAPS   H7S  715   7.240   3.756   9.019  1.2535  0.5516 -1.3911
    6SAPS   C28  716   7.323   3.560   8.967  0.6339 -0.1587  0.2269
    6SAPS   H8R  717   7.377   3.489   9.031 -1.1714 -1.3578  0.4989
    6SAPS   C29  718   7.350   3.565   8.836  0.1952  1.1600  0.2707
    6SAPS   H9R  719   7.432   3.507   8.791 -1.5111 -0.0590 -1.4410
    6SAPS  C210  720   7.274   3.644   8.732  0.0079  0.6490  0.2496
    6SAPS  H10R  721   7.344   3.712   8.680  1.9064  0.0079  1.8437
    6SAPS  H10S  722   7.199   3.713   8.776  0.0655  0.8855 -0.0211
    6SAPS  C211  723   7.207   3.557   8.627 -0.3539  0.1001  0.1060
    6SAPS  H11R  724   7.103   3.525   8.642 -1.0746  2.2407  0.0494
    6SAPS  C212  725   7.251   3.525   8.505 -0.8096  0.7543  0.0644
    6SAPS  H12R  726   7.180   3.458   8.454 -2.1165  1.7742  0.4903
    6SAPS  C213  727   7.382   3.551   8.445  0.7742  0.5947  0.2278
    6SAPS  H13R  728   7.398   3.470   8.371 -1.0600  0.4043 -0.0054
    6SAPS  H13S  729   7.457   3.547   8.527  0.2840  0.6714  0.6867
    6SAPS  C214  730   7.385   3.691   8.389  0.0835  1.2208 -0.1651
    6SAPS  H14R  731   7.333   3.770   8.446  0.4754  1.9927 -0.8570
    6SAPS  C215  732   7.442   3.725   8.276  0.6787  0.3703  0.4938
    6SAPS  H15R  733   7.434   3.833   8.256  0.2848 -0.0722 -2.1981
    6SAPS  C216  734   7.516   3.647   8.172  0.1626  0.4066  0.6753
    6SAPS  H16R  735   7.441   3.577   8.128  0.4743  1.1436 -1.0922
    6SAPS  H16S  736   7.598   3.588   8.219 -0.5813  0.3956  2.0203
    6SAPS  C217  737   7.578   3.728   8.054 -0.0163 -0.7522 -0.0552
    6SAPS  H17R  738   7.661   3.670   8.008 -0.4937 -1.1710 -0.4038
    6SAPS  H17S  739   7.610   3.827   8.092 -2.8314  0.4977 -0.7123
    6SAPS  C218  740   7.478   3.761   7.935  0.3657 -0.2383 -0.4179
    6SAPS  H18R  741   7.424   3.665   7.920 -1.3140  0.7084 -0.6434
    6SAPS  H18S  742   7.540   3.808   7.856  0.6865 -1.0152 -0.6358
    6SAPS  C219  743   7.366   3.865   7.978 -0.2174  0.8843 -0.6405
    6SAPS  H19R  744   7.414   3.953   8.025  0.9840 -1.1549  2.2204
    6SAPS  H19S  745   7.304   3.805   8.048  0.8625 -1.0312 -1.2243
    6SAPS  C220  746   7.275   3.907   7.863  0.4635 -0.4298 -0.0426
    6SAPS  H20R  747   7.221   3.996   7.900  2.5729  0.9950 -0.2355
    6SAPS  H20S  748   7.204   3.827   7.834  0.1443 -1.2735  2.7990
    6SAPS  H20T  749   7.345   3.943   7.784  1.4579 -3.4502 -0.6633
    6SAPS   C33  750   7.126   4.144   9.007  0.7358  0.0876 -0.1178
    6SAPS   H3X  751   7.184   4.225   9.054  0.8146  1.1365 -1.9228
    6SAPS   H3Y  752   7.038   4.196   8.964  0.3984  1.4419  2.0840
    6SAPS   C34  753   7.214   4.077   8.906 -0.4701 -0.3646 -0.2427
    6SAPS   H4X  754   7.155   3.990   8.869 -1.3312 -0.0105  0.2582
    6SAPS   H4Y  755   7.312   4.052   8.953 -1.0948  0.2128  1.4611
    6SAPS   C35  756   7.241   4.167   8.781 -0.2412 -0.4946 -0.0655
    6SAPS   H5X  757   7.291   4.262   8.809  1.4800 -2.3667  4.1733
    6SAPS   H5Y  758   7.142   4.182   8.732  0.1048 -1.1492 -0.9878
    6SAPS   C36  759   7.324   4.093   8.682 -0.3073  0.0924  0.9414
    6SAPS   H6X  760   7.258   4.012   8.645 -0.1288  0.3562  0.0157
    6SAPS   H6Y  761   7.411   4.048   8.734  0.0835  1.5674  1.6195
    6SAPS   C37  762   7.378   4.189   8.570 -0.7094  0.0163 -0.0681
    6SAPS   H7X  763   7.462   4.246   8.615 -0.8830  0.1267  0.1202
    6SAPS   H7Y  764   7.293   4.256   8.542 -1.8040 -1.3328 -0.1111
    6SAPS   C38  765   7.432   4.116   8.448  0.7962  0.2582 -0.0675
    6SAPS   H8X  766   7.352   4.052   8.403 -1.5993  1.1218  2.6253
    6SAPS   H8Y  767   7.505   4.043   8.489 -1.1200 -1.9538 -0.3648
    6SAPS   C39  768   7.483   4.201   8.331 -0.5325 -0.6387  0.0638
    6SAPS   H9X  769   7.570   4.145   8.289  0.5960  0.4190  0.8875
    6SAPS   H9Y  770   7.526   4.292   8.380 -0.7537 -0.0680 -0.7785
    6SAPS  C310  771   7.373   4.246   8.237  0.0818 -0.9252 -0.6237
    6SAPS  H10X  772   7.308   4.310   8.301  0.0300 -1.2659 -0.3329
    6SAPS  H10Y  773   7.322   4.153   8.204  1.1262 -1.2432 -1.3653
    6SAPS  C311  774   7.418   4.311   8.107  0.5670  0.2163 -0.4085
    6SAPS  H11X  775   7.512   4.263   8.073  0.7118  0.2243 -0.0289
    6SAPS  H11Y  776   7.438   4.416   8.138  2.9641 -0.8869  2.2256
    6SAPS  C312  777   7.307   4.311   8.002 -0.3662 -0.1655  0.2920
    6SAPS  H12X  778   7.214   4.333   8.060 -0.4084 -1.6666  0.8256
    6SAPS  H12Y  779   7.294   4.214   7.950  1.0250  0.7495 -1.8821
    6SAPS  C313  780   7.322   4.430   7.900  0.4535  0.2657  0.8284
    6SAPS  H13X  781   7.328   4.522   7.963  3.6783  1.4079 -0.9140
    6SAPS  H13Y  782   7.229   4.429   7.840  0.8536 -2.0543  0.1413
    6SAPS  C314  783   7.436   4.425   7.802  0.5849 -0.3100 -0.0501
    6SAPS  H14X  784   7.537   4.425   7.848 -0.2265  0.3848  1.8321
    6SAPS  H14Y  785   7.439   4.511   7.732 -0.2297  0.8515  1.3017
    6SAPS  C315  786   7.440   4.301   7.709 -0.2352  0.1005 -0.7584
    6SAPS  H15X  787   7.350   4.295   7.644  0.0043 -0.3325 -1.0588
    6SAPS  H15Y  788   7.458   4.211   7.772 -0.3260  1.1883  0.8812
    6SAPS  C316  789   7.549   4.321   7.606  0.2952  0.0481  0.5813
    6SAPS  H16X  790   7.650   4.317   7.651 -0.2682 -0.1871  1.8603
    6SAPS  H16Y  791   7.541   4.428   7.576 -0.5760  0.1905  1.2798
    6SAPS  C317  792   7.527   4.226   7.483 -0.2832 -0.1993 -0.2171
    6SAPS  H17X  793   7.589   4.261   7.398 -0.5661  0.0405 -0.3270
    6SAPS  H17Y  794   7.421   4.228   7.451 -0.2904 -2.6900 -0.5269
    6SAPS  C318  795   7.570   4.087   7.521 -0.2716 -0.5921 -0.0016
    6SAPS  H18X  796   7.510   4.051   7.607 -0.7225 -2.5393 -1.0650
    6SAPS  H18Y  797   7.680   4.081   7.537 -0.2274 -1.8349 -0.6429
    6SAPS  H18Z  798   7.541   4.015   7.441 -1.3365 -0.1326 -0.0441
    7SAPS     N  799   1.608   6.471  10.354 -0.6361  0.7790  0.1280
    7SAPS   HN1  800   1.564   6.431  10.269 -2.2720 -0.4334  1.4724
    7SAPS   HN2  801   1.611   6.399  10.430  2.2374 -1.0401 -1.5333
    7SAPS   HN3  802   1.558   6.561  10.370 -0.5190  0.9196 -0.2907
    7SAPS   C12  803   1.752   6.514  10.327  0.3165  0.3739  0.9044
    7SAPS  H12A  804   1.741   6.604  10.269 -0.1942  0.4595  1.1277
    7SAPS   C13  805   1.829   6.560  10.456  0.3105  0.0638  0.5640
    7SAPS  O13A  806   1.777   6.557  10.568  0.3365  0.1319 -0.6058
    7SAPS  O13B  807   1.951   6.572  10.446 -0.1627 -0.0089  0.0912
    7SAPS   C11  808   1.841   6.406  10.262  0.0308  0.4450  0.2078
    7SAPS  H11A  809   1.868   6.335  10.344 -0.3769  1.7309  1.5052
    7SAPS  H11B  810   1.932   6.461  10.229 -0.1252  0.2882 -0.4966
    7SAPS     P  811   1.795   6.369  10.012 -0.3074 -0.4697 -0.3154
    7SAPS   O13  812   1.839   6.508  10.004  0.0612 -0.1674  0.3293
    7SAPS   O14  813   1.900   6.263   9.980  0.2128 -0.4418 -0.0738
    7SAPS   O12  814   1.764   6.336  10.161 -0.3778  0.0820  0.7470
    7SAPS   O11  815   1.656   6.358   9.934  0.4396 -0.7404 -0.5381
    7SAPS    C1  816   1.590   6.232   9.932 -0.4233 -0.3376 -0.1403
    7SAPS    HA  817   1.655   6.147   9.963  0.5250 -0.3961 -2.1271
    7SAPS    HB  818   1.502   6.224   9.999  0.8890 -0.7273  1.6146
    7SAPS    C2  819   1.551   6.200   9.784 -0.2120 -0.5276 -0.1083
    7SAPS    HS  820   1.499   6.102   9.788 -1.7513  0.2253 -1.0298
    7SAPS   O21  821   1.675   6.180   9.723 -0.3910 -0.1108  0.1091
    7SAPS   C21  822   1.699   6.082   9.634 -0.4300 -0.2863 -0.8477
    7SAPS   O22  823   1.613   5.999   9.602 -0.0145  0.2814  0.0660
    7SAPS   C22  824   1.847   6.082   9.589 -0.6782 -0.4551 -0.5215
    7SAPS   H2R  825   1.897   6.176   9.622 -2.5478  1.0870 -1.8916
    7SAPS   H2S  826   1.901   6.000   9.642  0.6666  0.7378  0.0256
    7SAPS    C3  827   1.467   6.310   9.709 -0.6313  0.2598 -0.2555
    7SAPS    HX  828   1.511   6.412   9.717  0.2360 -0.2307  2.5766
    7SAPS    HY  829   1.377   6.304   9.773  1.4556 -2.6718  2.7568
    7SAPS   O31  830   1.438   6.274   9.572 -0.6820  0.2730 -0.2417
    7SAPS   C31  831   1.520   6.335   9.484 -0.1260  0.1277 -0.1494
    7SAPS   O32  832   1.617   6.397   9.510 -0.3361 -0.0998  0.1058
    7SAPS   C32  833   1.473   6.314   9.339 -0.6255 -0.1885 -0.0157
    7SAPS   H2X  834   1.400   6.231   9.349  0.5141 -1.0536  1.4373
    7SAPS   H2Y  835   1.562   6.274   9.286 -2.2086 -2.5998 -1.0188
    7SAPS   C23  836   1.856   6.082   9.436  0.4254  0.0674 -0.1629
    7SAPS   H3R  837   1.805   6.176   9.405  0.2843  0.0997  0.1670
    7SAPS   H3S  838   1.807   5.987   9.403 -3.0594  0.5310  2.9990
    7SAPS   C24  839   2.002   6.106   9.390  0.5779 -0.0694  0.4794
    7SAPS   H4R  840   2.054   6.015   9.425 -1.2763 -0.8659  1.3248
    7SAPS   H4S  841   2.035   6.196   9.446 -0.5365 -0.0594  1.1625
    7SAPS   C25  842   2.003   6.116   9.241  0.3761  0.5922  0.9209
    7SAPS   H5R  843   1.968   6.024   9.191  1.8900  0.2355  0.4697
    7SAPS   C26  844   2.006   6.230   9.169  0.1511 -0.1471  0.0440
    7SAPS   H6R  845   1.993   6.216   9.060 -4.1263 -2.4202  0.6186
    7SAPS   C27  846   2.018   6.372   9.228 -0.4178  0.4656 -0.0425
    7SAPS   H7R  847   2.058   6.435   9.147 -0.4544  0.1236 -0.3289
    7SAPS   H7S  848   2.092   6.368   9.311 -0.7525 -1.6058  0.2252
    7SAPS   C28  849   1.886   6.434   9.259  0.3974  0.1040  0.0648
    7SAPS   H8R  850   1.800   6.366   9.257  1.1718 -0.9576  1.3821
    7SAPS   C29  851   1.859   6.570   9.283 -0.5000  0.8074 -0.1957
    7SAPS   H9R  852   1.756   6.606   9.298 -0.0055  3.4589 -2.4316
    7SAPS  C210  853   1.964   6.681   9.271  0.8955  0.6416 -0.3615
    7SAPS  H10R  854   1.936   6.747   9.187 -1.6869  0.6988  0.4503
    7SAPS  H10S  855   2.070   6.651   9.252  1.5392  1.0831  2.0628
    7SAPS  C211  856   1.954   6.758   9.397  0.4057  0.2166  0.1657
    7SAPS  H11R  857   1.852   6.778   9.433 -0.4669 -0.3382 -1.9006
    7SAPS  C212  858   2.049   6.819   9.464 -0.0780  0.4639 -0.2009
    7SAPS  H12R  859   2.004   6.887   9.539 -3.4396 -0.6194 -1.0519
    7SAPS  C213  860   2.199   6.816   9.440  0.3122 -0.1281  0.1525
    7SAPS  H13R  861   2.246   6.731   9.387  1.1128 -1.6667  3.1062
    7SAPS  H13S  862   2.238   6.790   9.541 -1.8298 -1.8867  0.5990
    7SAPS  C214  863   2.255   6.948   9.389 -0.1678 -0.8091  0.3522
    7SAPS  H14R  864   2.303   7.010   9.466 -2.0326 -0.6625  1.4551
    7SAPS  C215  865   2.248   6.994   9.260 -0.5192  0.8417  0.3123
    7SAPS  H15R  866   2.291   7.095   9.245 -0.1398  0.2670 -3.3897
    7SAPS  C216  867   2.180   6.925   9.142 -0.0743 -0.5575  0.1228
    7SAPS  H16R  868   2.076   6.959   9.126 -0.0039 -0.7921 -0.8798
    7SAPS  H16S  869   2.167   6.817   9.167 -3.4638 -0.7353 -1.7529
    7SAPS  C217  870   2.258   6.921   9.015  0.5168  0.1935  0.0656
    7SAPS  H17R  871   2.207   6.849   8.948  0.0682  0.3472  0.2395
    7SAPS  H17S  872   2.365   6.892   9.022  0.5412  0.1108 -0.5978
    7SAPS  C218  873   2.240   7.053   8.935  0.3454  0.6819  0.5351
    7SAPS  H18R  874   2.300   7.126   8.993 -0.0082  1.5089 -0.1251
    7SAPS  H18S  875   2.133   7.083   8.933  0.7277  2.1370 -1.7889
    7SAPS  C219  876   2.288   7.036   8.788  0.1592  0.8745 -0.0534
    7SAPS  H19R  877   2.387   6.985   8.783 -0.2443  0.0332  0.3506
    7SAPS  H19S  878   2.306   7.138   8.746  3.9713  0.2378 -0.3376
    7SAPS  C220  879   2.181   6.959   8.699  0.6437  0.2895  0.4031
    7SAPS  H20R  880   2.086   7.017   8.692  1.1887  1.0137 -1.5981
    7SAPS  H20S  881   2.171   6.857   8.742  3.2844 -1.3285 -2.4681
    7SAPS  H20T  882   2.212   6.954   8.593 -1.2123 -0.8463 -0.1359
    7SAPS   C33  883   1.404   6.441   9.287 -0.1175  0.2756  0.2978
    7SAPS   H3X  884   1.477   6.524   9.300  0.9605 -0.0556 -2.7316
    7SAPS   H3Y  885   1.317   6.468   9.351 -0.0080  1.1162  0.1087
    7SAPS   C34  886   1.350   6.429   9.142  0.2229  0.2560 -0.0878
    7SAPS   H4X  887   1.306   6.524   9.105  2.0567  1.1377 -0.0827
    7SAPS   H4Y  888   1.274   6.348   9.142  0.1096  0.3466 -1.2940
    7SAPS   C35  889   1.464   6.380   9.045 -0.2897 -0.1575 -0.4087
    7SAPS   H5X  890   1.417   6.365   8.945 -0.6177 -0.8748 -0.1590
    7SAPS   H5Y  891   1.513   6.288   9.084  1.5944  1.4475  1.1683
    7SAPS   C36  892   1.564   6.495   9.010  0.6287  0.7564  0.2350
    7SAPS   H6X  893   1.620   6.538   9.095  1.0357 -1.0078  0.9049
    7SAPS   H6Y  894   1.515   6.572   8.948  2.9446  0.6341 -1.8910
    7SAPS   C37  895   1.665   6.439   8.911  0.0900 -0.8936 -0.2966
    7SAPS   H7X  896   1.615   6.399   8.821 -2.2672  1.8845 -0.3664
    7SAPS   H7Y  897   1.721   6.368   8.975  2.8740  0.8929 -0.5598
    7SAPS   C38  898   1.763   6.550   8.880  0.5873 -0.2646 -0.0985
    7SAPS   H8X  899   1.827   6.573   8.967  0.0368  1.4582 -0.1119
    7SAPS   H8Y  900   1.712   6.648   8.865  1.2704  0.3693  1.4952
    7SAPS   C39  901   1.865   6.522   8.765 -0.4145 -0.4528  0.0933
    7SAPS   H9X  902   1.935   6.606   8.748 -1.7980  0.5983 -0.5773
    7SAPS   H9Y  903   1.818   6.506   8.666  3.8159 -0.4452 -2.1455
    7SAPS  C310  904   1.952   6.401   8.789 -0.7906 -0.7525 -0.0460
    7SAPS  H10X  905   1.893   6.311   8.818  1.3584 -2.3865 -0.4826
    7SAPS  H10Y  906   2.002   6.440   8.880 -1.8615  2.5487 -0.7479
    7SAPS  C311  907   2.062   6.367   8.686  0.5456  0.5068 -0.8263
    7SAPS  H11X  908   2.154   6.330   8.736  0.5944  2.2388  0.4677
    7SAPS  H11Y  909   2.111   6.455   8.641 -0.4218  0.0644 -2.8385
    7SAPS  C312  910   2.017   6.269   8.580  0.2862  0.3260 -0.0673
    7SAPS  H12X  911   1.933   6.317   8.525 -0.2217  1.0302  1.2871
    7SAPS  H12Y  912   1.990   6.176   8.635  3.1321 -0.4997  0.0913
    7SAPS  C313  913   2.123   6.236   8.476 -0.1450 -0.4169 -0.5016
    7SAPS  H13X  914   2.073   6.158   8.415  0.0071 -0.0539 -1.0953
    7SAPS  H13Y  915   2.217   6.198   8.523 -0.1935  0.2867  0.1881
    7SAPS  C314  916   2.151   6.355   8.375 -0.2750 -0.5409  0.0874
    7SAPS  H14X  917   2.166   6.443   8.441  0.0395  0.7321 -1.5961
    7SAPS  H14Y  918   2.063   6.361   8.308  0.5457 -1.3339 -1.1079
    7SAPS  C315  919   2.265   6.318   8.286 -0.0299 -0.5261  0.0596
    7SAPS  H15X  920   2.267   6.208   8.269 -0.0123 -0.6437  0.7948
    7SAPS  H15Y  921   2.357   6.334   8.347  1.1354  1.7571 -2.1177
    7SAPS  C316  922   2.266   6.409   8.163  0.6438  0.5112  0.1204
    7SAPS  H16X  923   2.254   6.513   8.200  1.3561  0.9777 -0.9169
    7SAPS  H16Y  924   2.205   6.381   8.074  2.6276  0.8324 -1.4370
    7SAPS  C317  925   2.416   6.398   8.114  0.1403 -0.4165  0.9518
    7SAPS  H17X  926   2.435   6.299   8.067 -0.4685  0.6683 -1.7721
    7SAPS  H17Y  927   2.484   6.416   8.200 -1.2654  0.6697  1.8868
    7SAPS  C318  928   2.442   6.512   8.015  0.5495 -0.2885 -0.4069
    7SAPS  H18X  929   2.365   6.522   7.935 -0.7377  0.4687  0.8699
    7SAPS  H18Y  930   2.541   6.501   7.966  0.1778  0.6249 -1.4013
    7SAPS  H18Z  931   2.427   6.604   8.075 -1.1050 -0.1480 -0.9712
    8SAPS     N  932   6.233   6.558   9.763  0.3192 -0.0828 -0.0114
    8SAPS   HN1  933   6.172   6.630   9.719 -0.6694 -1.3781 -0.7987
    8SAPS   HN2  934   6.331   6.560   9.727  0.3176 -3.7291 -0.6099
    8SAPS   HN3  935   6.202   6.467   9.724 -0.7780  0.9751 -1.7253
    8SAPS   C12  936   6.243   6.565   9.912  0.6712 -0.1928  0.0537
    8SAPS  H12A  937   6.327   6.502   9.935  2.6992  2.0963 -0.6757
    8SAPS   C13  938   6.268   6.704   9.977  0.0310  0.5436 -0.1663
    8SAPS  O13A  939   6.267   6.799   9.903 -0.5489 -0.1657 -0.0069
    8SAPS  O13B  940   6.273   6.711  10.100  0.0400  0.4688 -0.0108
    8SAPS   C11  941   6.110   6.490   9.973  0.4796 -0.2830 -0.5648
    8SAPS  H11A  942   6.022   6.555   9.958 -0.3822 -1.2000  0.3862
    8SAPS  H11B  943   6.105   6.479  10.084 -0.3989 -0.2330 -0.5990
    8SAPS     P  944   6.185   6.242   9.949  0.0738  0.7417 -0.1476
    8SAPS   O13  945   6.317   6.254   9.877 -0.0743  0.0312  0.4420
    8SAPS   O14  946   6.193   6.235  10.097 -0.4502 -0.2859  0.0503
    8SAPS   O12  947   6.096   6.362   9.914  0.5594 -0.3328 -0.1414
    8SAPS   O11  948   6.108   6.115   9.890  0.5924  0.1775  0.1941
    8SAPS    C1  949   6.052   6.127   9.756 -0.7488 -0.2450  0.8642
    8SAPS    HA  950   5.990   6.036   9.738 -1.1204  0.0726  0.4975
    8SAPS    HB  951   5.993   6.219   9.735  1.0444  0.9154  0.6644
    8SAPS    C2  952   6.161   6.111   9.640  0.2897  0.1006  0.4423
    8SAPS    HS  953   6.256   6.159   9.669 -0.4748  0.7458  1.9978
    8SAPS   O21  954   6.112   6.157   9.510  0.1723 -0.2066  0.1066
    8SAPS   C21  955   6.131   6.284   9.484  0.1669 -0.0536 -0.3521
    8SAPS   O22  956   6.161   6.373   9.557 -0.4099  0.1826 -0.5150
    8SAPS   C22  957   6.108   6.315   9.334 -0.7958  0.2107 -0.0676
    8SAPS   H2R  958   6.012   6.279   9.292 -1.1137  1.6414 -0.6263
    8SAPS   H2S  959   6.088   6.424   9.325  0.3580  0.4344 -0.0778
    8SAPS    C3  960   6.199   5.958   9.613  0.7130 -0.5890  0.4021
    8SAPS    HX  961   6.105   5.899   9.612  2.0330 -3.1533  4.1826
    8SAPS    HY  962   6.261   5.926   9.700 -0.0715  2.6233  2.3455
    8SAPS   O31  963   6.262   5.926   9.487  0.0109 -0.5677  0.2221
    8SAPS   C31  964   6.384   5.986   9.475 -0.9432  0.5348  0.7829
    8SAPS   O32  965   6.426   6.062   9.555 -0.2970 -0.2802 -0.2067
    8SAPS   C32  966   6.461   5.934   9.347 -0.6036  0.3611  0.4190
    8SAPS   H2X  967   6.564   5.976   9.348 -0.4022 -0.1153  0.2204
    8SAPS   H2Y  968   6.411   5.959   9.252 -0.0454 -1.6989 -0.4720
    8SAPS   C23  969   6.227   6.259   9.255  0.8973  0.4865  0.1862
    8SAPS   H3R  970   6.195   6.244   9.149  1.9684 -1.1849  0.0580
    8SAPS   H3S  971   6.249   6.154   9.283  2.1509  0.6098 -0.2741
    8SAPS   C24  972   6.351   6.340   9.250 -1.1544 -0.1702 -0.5232
    8SAPS   H4R  973   6.376   6.384   9.349  0.3468 -2.0314 -0.0026
    8SAPS   H4S  974   6.344   6.420   9.174  0.1516 -1.3777 -1.9864
    8SAPS   C25  975   6.473   6.246   9.229  0.4786 -0.3355 -0.0792
    8SAPS   H5R  976   6.527   6.196   9.310  0.9936 -2.2723 -1.5459
    8SAPS   C26  977   6.527   6.222   9.103  0.4207 -0.7388 -0.5853
    8SAPS   H6R  978   6.609   6.148   9.107  0.8344 -0.2500  0.3236
    8SAPS   C27  979   6.485   6.274   8.971 -0.0990  0.0132 -0.0576
    8SAPS   H7R  980   6.449   6.378   8.988 -0.1965  0.0000 -0.1815
    8SAPS   H7S  981   6.405   6.209   8.929 -0.1893 -0.1713  0.3937
    8SAPS   C28  982   6.601   6.270   8.874 -0.0910  0.2316  0.2596
    8SAPS   H8R  983   6.702   6.293   8.910 -0.1120 -0.5036  0.8238
    8SAPS   C29  984   6.579   6.249   8.740 -0.0345 -0.8923 -0.6977
    8SAPS   H9R  985   6.669   6.239   8.677 -0.4175 -1.5110 -1.1512
    8SAPS  C210  986   6.457   6.220   8.666 -0.2193 -0.0996 -0.0640
    8SAPS  H10R  987   6.461   6.280   8.572 -1.6867  2.5524  1.4526
    8SAPS  H10S  988   6.370   6.264   8.720  1.0713 -0.2011  2.2136
    8SAPS  C211  989   6.444   6.071   8.639 -0.5571  0.8970  0.0222
    8SAPS  H11R  990   6.435   6.008   8.728 -0.4344 -1.7981 -1.7596
    8SAPS  C212  991   6.427   6.010   8.518 -0.0794 -0.2524  0.7810
    8SAPS  H12R  992   6.426   5.900   8.512  0.2381 -0.2034 -0.6306
    8SAPS  C213  993   6.426   6.074   8.382  0.4547  0.5985 -0.3692
    8SAPS  H13R  994   6.507   6.150   8.372  0.2903  0.7762 -0.3432
    8SAPS  H13S  995   6.334   6.132   8.361 -1.0460 -0.8510  1.8372
    8SAPS  C214  996   6.455   5.983   8.270  0.0299  0.0606  0.4617
    8SAPS  H14R  997   6.560   5.952   8.263 -0.6400 -1.9910 -3.0904
    8SAPS  C215  998   6.363   5.951   8.178  0.4388 -0.1324  0.7482
    8SAPS  H15R  999   6.388   5.872   8.105 -0.1902 -1.5549  2.0061
    8SAPS  C216 1000   6.219   6.002   8.169  0.0570  1.0257 -0.0976
    8SAPS  H16R 1001   6.219   6.112   8.155 -0.4480  0.8516 -1.6137
    8SAPS  H16S 1002   6.169   5.982   8.267  0.6957 -2.1672 -0.3103
    8SAPS  C217 1003   6.130   5.931   8.060 -0.3731  0.1958 -1.0382
    8SAPS  H17R 1004   6.180   5.939   7.961 -0.6275  0.8297 -1.1202
    8SAPS  H17S 1005   6.036   5.988   8.047 -0.4344  0.5931  0.8215
    8SAPS  C218 1006   6.118   5.780   8.101 -0.0837  0.5287  0.5895
    8SAPS  H18R 1007   6.109   5.772   8.212  0.9153  1.7772  0.7863
    8SAPS  H18S 1008   6.214   5.730   8.077  0.8952  1.3416  2.5505
    8SAPS  C219 1009   6.004   5.702   8.031  0.5065 -0.4151 -0.5534
    8SAPS  H19R 1010   6.018   5.691   7.921  0.0915 -1.2395 -0.5285
    8SAPS  H19S 1011   5.911   5.763   8.029  0.1741 -0.9032 -2.5859
    8SAPS  C220 1012   5.970   5.569   8.095 -0.2512  0.0485  0.6854
    8SAPS  H20R 1013   5.928   5.579   8.198 -0.1587 -5.0339  1.4409
    8SAPS  H20S 1014   6.060   5.506   8.107 -0.0275  0.3719  0.7406
    8SAPS  H20T 1015   5.901   5.508   8.034  0.6086 -1.5335  1.2400
    8SAPS   C33 1016   6.480   5.784   9.350 -0.1284 -0.9476  0.0099
    8SAPS   H3X 1017   6.381   5.737   9.365 -1.1811  1.8354  2.6209
    8SAPS   H3Y 1018   6.534   5.758   9.443  0.4455 -0.5012 -0.1934
    8SAPS   C34 1019   6.544   5.725   9.221 -0.1613  0.1172 -0.4922
    8SAPS   H4X 1020   6.538   5.614   9.227  0.4338  0.1251  0.6772
    8SAPS   H4Y 1021   6.650   5.754   9.237 -0.4870  1.3844 -0.5230
    8SAPS   C35 1022   6.499   5.776   9.089 -0.1547 -0.2698  0.3729
    8SAPS   H5X 1023   6.554   5.868   9.062  1.6711 -1.1386  0.9599
    8SAPS   H5Y 1024   6.393   5.809   9.083  0.3551  1.1733 -3.5876
    8SAPS   C36 1025   6.520   5.674   8.983  0.2147 -0.4095  0.8518
    8SAPS   H6X 1026   6.477   5.580   9.024  0.8320 -0.5887  1.1009
    8SAPS   H6Y 1027   6.628   5.662   8.961  0.5138  0.7903  1.5682
    8SAPS   C37 1028   6.461   5.714   8.840 -0.6998  0.4738 -0.6070
    8SAPS   H7X 1029   6.512   5.804   8.802 -2.5125  1.4226 -0.9069
    8SAPS   H7Y 1030   6.351   5.734   8.847 -0.5867  0.5456  1.5921
    8SAPS   C38 1031   6.472   5.590   8.753  0.7160 -0.0904  0.7715
    8SAPS   H8X 1032   6.400   5.510   8.781  0.8919 -1.1686 -1.5867
    8SAPS   H8Y 1033   6.572   5.544   8.766  0.7875 -0.3610 -0.5711
    8SAPS   C39 1034   6.438   5.635   8.608  0.0669 -0.8437 -0.2780
    8SAPS   H9X 1035   6.520   5.704   8.577  0.1950 -0.6409  0.4869
    8SAPS   H9Y 1036   6.341   5.689   8.601  0.4445 -0.1134  0.0320
    8SAPS  C310 1037   6.439   5.517   8.506 -0.1193  0.1533  0.5477
    8SAPS  H10X 1038   6.380   5.428   8.537 -1.4627 -0.2114 -2.6629
    8SAPS  H10Y 1039   6.540   5.474   8.491  0.3037  2.2459 -3.9940
    8SAPS  C311 1040   6.402   5.570   8.367 -0.3289 -0.1209 -0.6919
    8SAPS  H11X 1041   6.454   5.657   8.323  1.1063 -1.0572 -0.9245
    8SAPS  H11Y 1042   6.298   5.609   8.372 -0.7465 -0.9982 -1.9196
    8SAPS  C312 1043   6.407   5.450   8.278  0.3313 -0.8526 -0.5639
    8SAPS  H12X 1044   6.507   5.403   8.290  0.1465 -1.1448 -0.1132
    8SAPS  H12Y 1045   6.397   5.486   8.173 -1.2834 -0.7603 -0.4129
    8SAPS  C313 1046   6.292   5.346   8.286  0.5835 -0.2804  0.3838
    8SAPS  H13X 1047   6.195   5.398   8.301 -0.0216 -1.5990  1.1537
    8SAPS  H13Y 1048   6.313   5.283   8.375  1.4469  0.3342  0.6313
    8SAPS  C314 1049   6.293   5.251   8.171  0.1479 -0.4332 -0.3769
    8SAPS  H14X 1050   6.288   5.320   8.083 -2.1848  1.3229  0.9915
    8SAPS  H14Y 1051   6.201   5.188   8.169 -1.8074  2.2162 -0.9697
    8SAPS  C315 1052   6.413   5.163   8.158 -0.2680  0.3566  0.0132
    8SAPS  H15X 1053   6.438   5.095   8.242 -0.9857 -2.6553 -2.0316
    8SAPS  H15Y 1054   6.505   5.224   8.146  0.6824 -1.2724 -1.4002
    8SAPS  C316 1055   6.406   5.082   8.026  0.1373  0.4415  0.4709
    8SAPS  H16X 1056   6.423   5.144   7.936 -1.3398  1.0213  0.5643
    8SAPS  H16Y 1057   6.303   5.043   8.016 -0.1209  0.6591  2.0481
    8SAPS  C317 1058   6.507   4.969   8.032  0.5674  0.0772  0.1027
    8SAPS  H17X 1059   6.506   4.922   8.132  0.7231  0.0263  0.0806
    8SAPS  H17Y 1060   6.613   5.003   8.031  0.5168  0.4792  2.3308
    8SAPS  C318 1061   6.499   4.862   7.922 -0.3809 -0.0531  0.2182
    8SAPS  H18X 1062   6.393   4.837   7.903 -0.1527  0.7832 -2.6297
    8SAPS  H18Y 1063   6.561   4.774   7.950 -0.4198 -0.2241 -0.2137
    8SAPS  H18Z 1064   6.531   4.909   7.827  1.0022  4.5732  2.6796
    9SAPS     N 1065   4.491   2.767   5.544  0.1125  0.3741 -0.3163
    9SAPS   HN1 1066   4.530   2.714   5.624 -1.3602  0.5345  0.5426
    9SAPS   HN2 1067   4.434   2.702   5.486  0.7390 -0.8363  0.3876
    9SAPS   HN3 1068   4.567   2.809   5.487  0.5265  0.2844  0.1700
    9SAPS   C12 1069   4.399   2.872   5.602 -0.2490  0.0259  0.0334
    9SAPS  H12A 1070   4.445   2.923   5.685  1.2791  0.1169 -0.8206
    9SAPS   C13 1071   4.372   2.976   5.476  0.3332  0.6699 -0.3201
    9SAPS  O13A 1072   4.422   2.947   5.367 -0.8558 -0.2656  0.2592
    9SAPS  O13B 1073   4.267   3.041   5.484  0.2373  0.0155 -0.4174
    9SAPS   C11 1074   4.268   2.804   5.649 -0.0576 -0.0502  0.1723
    9SAPS  H11A 1075   4.225   2.745   5.566 -1.2768 -0.2642  0.9361
    9SAPS  H11B 1076   4.197   2.884   5.678  0.0847 -0.3235  1.3062
    9SAPS     P 1077   4.185   2.695   5.878  0.1229  0.1253  0.0049
    9SAPS   O13 1078   4.051   2.717   5.817 -0.2604 -0.0140  0.2967
    9SAPS   O14 1079   4.206   2.563   5.945 -0.1511 -0.4293 -0.2533
    9SAPS   O12 1080   4.292   2.715   5.757  0.1729 -0.0417 -0.2626
    9SAPS   O11 1081   4.213   2.813   5.976 -0.3129 -0.4080  0.2107
    9SAPS    C1 1082   4.344   2.844   6.020 -0.6850 -0.5423  0.1167
    9SAPS    HA 1083   4.391   2.755   6.067  2.7155  1.8077  1.5353
    9SAPS    HB 1084   4.408   2.864   5.932 -0.1507 -0.8283  0.4353
    9SAPS    C2 1085   4.363   2.963   6.118  0.0764  0.2176 -0.3565
    9SAPS    HS 1086   4.470   2.989   6.128  0.7315 -2.0496 -0.9452
    9SAPS   O21 1087   4.296   2.934   6.243 -0.2736  0.6884 -0.1639
    9SAPS   C21 1088   4.341   2.997   6.352 -0.1333  0.2698  0.2824
    9SAPS   O22 1089   4.449   3.049   6.365 -0.1761  0.1033 -0.3022
    9SAPS   C22 1090   4.232   2.982   6.463 -0.3509 -0.5240 -0.2150
    9SAPS   H2R 1091   4.138   3.027   6.424  1.1002  1.3615 -1.6629
    9SAPS   H2S 1092   4.221   2.878   6.502 -1.5040  0.3904  2.1015
    9SAPS    C3 1093   4.294   3.091   6.056 -0.5523 -0.0544  0.4331
    9SAPS    HX 1094   4.188   3.060   6.048 -0.4979  0.1504 -1.4621
    9SAPS    HY 1095   4.330   3.114   5.953 -1.4427 -0.5844 -0.0087
    9SAPS   O31 1096   4.306   3.205   6.140 -0.2726  0.3981  0.1826
    9SAPS   C31 1097   4.418   3.280   6.122  0.1719  0.3023 -0.1677
    9SAPS   O32 1098   4.512   3.255   6.050 -0.4890  0.2649  0.7091
    9SAPS   C32 1099   4.413   3.404   6.209  0.3212 -0.6553 -0.8359
    9SAPS   H2X 1100   4.355   3.484   6.158  0.5093  0.0043 -0.0312
    9SAPS   H2Y 1101   4.522   3.423   6.218  0.7154 -0.9159 -3.7722
    9SAPS   C23 1102   4.294   3.059   6.586  0.3529 -0.0450  0.4826
    9SAPS   H3R 1103   4.344   3.155   6.559  1.3125 -0.0843  1.9764
    9SAPS   H3S 1104   4.367   2.992   6.635  1.2000  0.1702 -0.4424
    9SAPS   C24 1105   4.184   3.100   6.687  0.0258 -0.2212 -0.3044
    9SAPS   H4R 1106   4.132   3.015   6.735 -1.4996  0.6155 -0.4034
    9SAPS   H4S 1107   4.110   3.158   6.627  0.0035  2.1174  1.8277
    9SAPS   C25 1108   4.245   3.180   6.793  0.3426 -0.6269 -0.3660
    9SAPS   H5R 1109   4.267   3.284   6.762 -1.5528  1.0334  3.2521
    9SAPS   C26 1110   4.294   3.146   6.918  0.2626  0.2430  0.5145
    9SAPS   H6R 1111   4.349   3.217   6.981 -0.1718 -1.9559  3.5895
    9SAPS   C27 1112   4.267   3.007   6.971  0.6611 -0.2394 -0.8028
    9SAPS   H7R 1113   4.319   3.001   7.068 -0.3509  1.3828 -0.1269
    9SAPS   H7S 1114   4.313   2.933   6.902  3.3057 -1.7980  2.3387
    9SAPS   C28 1115   4.123   2.958   7.001  0.1188  0.2103  0.3886
    9SAPS   H8R 1116   4.102   2.855   6.969  1.6559 -0.5092  1.5751
    9SAPS   C29 1117   4.029   3.024   7.069 -0.0408  0.0185  0.6245
    9SAPS   H9R 1118   3.933   2.971   7.081 -1.1321  1.1518 -2.2175
    9SAPS  C210 1119   4.025   3.159   7.132 -0.4247 -0.4844  0.7107
    9SAPS  H10R 1120   4.132   3.185   7.146 -0.6064 -0.0955  1.4041
    9SAPS  H10S 1121   3.961   3.151   7.222 -0.7886 -2.9897  0.2856
    9SAPS  C211 1122   3.972   3.262   7.037  0.1985 -0.2657 -0.5242
    9SAPS  H11R 1123   4.052   3.305   6.975 -1.3661 -0.0188 -2.4761
    9SAPS  C212 1124   3.845   3.298   7.001  0.1952 -0.1384  0.0111
    9SAPS  H12R 1125   3.839   3.372   6.920  0.5729  0.3788  0.4482
    9SAPS  C213 1126   3.716   3.241   7.055 -0.0095 -0.1618 -0.2848
    9SAPS  H13R 1127   3.733   3.201   7.157  0.3851 -0.0908 -0.3197
    9SAPS  H13S 1128   3.682   3.158   6.989  2.2428 -0.4017 -1.2443
    9SAPS  C214 1129   3.597   3.339   7.055 -0.1092 -0.2139 -0.4981
    9SAPS  H14R 1130   3.619   3.432   7.110 -0.9190  0.5268 -1.3896
    9SAPS  C215 1131   3.470   3.333   7.018 -0.8378 -0.0682  0.0437
    9SAPS  H15R 1132   3.399   3.410   7.054 -1.4376 -1.5235  2.2024
    9SAPS  C216 1133   3.416   3.220   6.937  0.5833  0.0670  0.1735
    9SAPS  H16R 1134   3.313   3.213   6.979  1.1963 -1.3054  1.5382
    9SAPS  H16S 1135   3.450   3.121   6.973 -2.0658 -1.3048 -0.8745
    9SAPS  C217 1136   3.430   3.222   6.785 -0.2976  0.0401  0.1592
    9SAPS  H17R 1137   3.407   3.117   6.756 -0.4160 -0.2693  1.3081
    9SAPS  H17S 1138   3.538   3.227   6.763 -0.3505 -1.5578 -0.6560
    9SAPS  C218 1139   3.337   3.321   6.711  0.0104  0.0831  0.5427
    9SAPS  H18R 1140   3.354   3.335   6.602 -2.2190  1.5791  0.3200
    9SAPS  H18S 1141   3.352   3.422   6.756 -2.0812  0.8213 -0.2609
    9SAPS  C219 1142   3.187   3.278   6.713  0.2105 -0.2816  0.3104
    9SAPS  H19R 1143   3.126   3.367   6.686 -0.9457 -0.8387  1.0099
    9SAPS  H19S 1144   3.169   3.260   6.821 -0.2711  0.6871  0.3944
    9SAPS  C220 1145   3.155   3.148   6.636 -0.2076 -0.2509  0.2248
    9SAPS  H20R 1146   3.229   3.067   6.656 -0.6703 -0.5791  0.6023
    9SAPS  H20S 1147   3.178   3.175   6.530  1.7665 -0.5292  0.5453
    9SAPS  H20T 1148   3.052   3.110   6.649 -1.2648  1.7600 -1.4805
    9SAPS   C33 1149   4.349   3.392   6.349 -0.2990 -0.2268  0.2872
    9SAPS   H3X 1150   4.410   3.317   6.404 -0.0218  0.1316  0.4743
    9SAPS   H3Y 1151   4.252   3.338   6.347 -0.9727  0.8408  1.9326
    9SAPS   C34 1152   4.335   3.515   6.441 -0.0861  0.4289 -0.0355
    9SAPS   H4X 1153   4.269   3.574   6.373 -0.4678 -1.3184 -1.2755
    9SAPS   H4Y 1154   4.428   3.570   6.468 -0.2892  0.0815  1.4506
    9SAPS   C35 1155   4.266   3.488   6.577 -0.1035 -0.6842 -0.5025
    9SAPS   H5X 1156   4.336   3.435   6.645 -0.9974 -3.8477 -1.8896
    9SAPS   H5Y 1157   4.171   3.431   6.564 -1.7256  1.9195 -0.9419
    9SAPS   C36 1158   4.226   3.615   6.648 -0.8618  0.2253  0.3269
    9SAPS   H6X 1159   4.158   3.674   6.584  0.2408  0.1634 -0.9434
    9SAPS   H6Y 1160   4.318   3.669   6.678 -1.0829 -0.2657  1.9883
    9SAPS   C37 1161   4.148   3.571   6.776 -0.5084 -1.0083 -0.1960
    9SAPS   H7X 1162   4.207   3.499   6.838 -1.4899 -1.0673  0.6890
    9SAPS   H7Y 1163   4.054   3.527   6.736 -1.9024 -0.4158  2.2285
    9SAPS   C38 1164   4.107   3.682   6.877  0.1399 -0.5647 -0.1468
    9SAPS   H8X 1165   4.034   3.742   6.819 -1.7179 -2.0974  0.4937
    9SAPS   H8Y 1166   4.195   3.746   6.902 -0.8156  0.8346 -0.2670
    9SAPS   C39 1167   4.040   3.648   7.011 -0.7446  0.8616 -0.9058
    9SAPS   H9X 1168   4.103   3.568   7.057 -1.0130  1.8149  1.2821
    9SAPS   H9Y 1169   3.945   3.597   6.984  0.2909 -0.3908 -2.4022
    9SAPS  C310 1170   4.015   3.756   7.112  0.2177 -0.2616 -1.2118
    9SAPS  H10X 1171   3.943   3.828   7.067 -0.4201  0.9132  1.4651
    9SAPS  H10Y 1172   4.109   3.813   7.126 -1.0135  2.4452 -3.1120
    9SAPS  C311 1173   3.967   3.707   7.250  0.0824  0.6181  0.0090
    9SAPS  H11X 1174   4.001   3.771   7.334  4.2219 -1.3184  0.0462
    9SAPS  H11Y 1175   4.009   3.607   7.274  0.6830  1.6469  3.9132
    9SAPS  C312 1176   3.812   3.684   7.244 -0.1385 -0.5302 -0.5254
    9SAPS  H12X 1177   3.792   3.621   7.155  1.4175  1.4083 -2.3747
    9SAPS  H12Y 1178   3.768   3.782   7.214  0.5968  0.2182  0.7288
    9SAPS  C313 1179   3.740   3.638   7.372  0.0145 -0.3722  0.2723
    9SAPS  H13X 1180   3.772   3.720   7.439  3.1992 -0.3010 -1.1378
    9SAPS  H13Y 1181   3.776   3.540   7.411 -1.9002 -1.1543  0.1587
    9SAPS  C314 1182   3.585   3.639   7.356 -0.3548 -0.1699  0.6213
    9SAPS  H14X 1183   3.542   3.545   7.397 -1.5915  0.2191  0.2769
    9SAPS  H14Y 1184   3.554   3.655   7.251 -1.3083  1.5252  1.1187
    9SAPS  C315 1185   3.527   3.748   7.459  0.3872  0.0117  0.5776
    9SAPS  H15X 1186   3.550   3.854   7.436 -0.8821 -0.1148 -1.5642
    9SAPS  H15Y 1187   3.574   3.718   7.555 -0.1242 -3.4880 -0.1532
    9SAPS  C316 1188   3.376   3.736   7.468  0.4396 -0.1524  0.0990
    9SAPS  H16X 1189   3.361   3.627   7.489  0.6103 -0.3009 -0.5556
    9SAPS  H16Y 1190   3.318   3.755   7.376 -1.0068 -0.7887  0.8329
    9SAPS  C317 1191   3.316   3.825   7.579 -0.2442 -0.3960 -1.0465
    9SAPS  H17X 1192   3.313   3.933   7.552 -2.0413 -0.1015  0.1811
    9SAPS  H17Y 1193   3.386   3.817   7.665 -1.0216 -0.8266 -0.4402
    9SAPS  C318 1194   3.184   3.775   7.638 -0.1318 -0.0220 -0.0213
    9SAPS  H18X 1195   3.220   3.682   7.687  3.5886 -0.6416 -3.3924
    9SAPS  H18Y 1196   3.111   3.747   7.558  0.2732  0.6382 -0.6401
    9SAPS  H18Z 1197   3.144   3.852   7.707  1.9822  0.8380  0.3274
   10SAPS     N 1198   5.592   2.579   5.272 -0.6208 -0.3672 -0.0455
   10SAPS   HN1 1199   5.636   2.674   5.271 -0.2764 -0.5305 -0.3115
   10SAPS   HN2 1200   5.657   2.516   5.322 -1.4531 -1.2255 -0.0228
   10SAPS   HN3 1201   5.573   2.543   5.177  0.0444  0.4191 -0.4880
   10SAPS   C12 1202   5.468   2.593   5.348 -0.0823  0.0274  0.0797
   10SAPS  H12A 1203   5.402   2.665   5.302  1.1578  0.7932 -0.5514
   10SAPS   C13 1204   5.373   2.468   5.342  0.3926  0.2970 -0.6584
   10SAPS  O13A 1205   5.397   2.366   5.269  0.5844  0.4857 -0.3461
   10SAPS  O13B 1206   5.253   2.495   5.378 -0.4326 -0.4402 -0.0819
   10SAPS   C11 1207   5.512   2.629   5.488  0.4115  0.0543 -0.2235
   10SAPS  H11A 1208   5.571   2.545   5.530  0.2525 -0.9066 -1.8668
   10SAPS  H11B 1209   5.418   2.639   5.546 -0.2999 -0.7933 -1.1863
   10SAPS     P 1210   5.607   2.842   5.605  0.1485 -0.1903  0.2196
   10SAPS   O13 1211   5.745   2.810   5.642 -0.2128 -0.0225  0.1167
   10SAPS   O14 1212   5.581   2.984   5.566 -0.2167 -1.1609 -0.6662
   10SAPS   O12 1213   5.582   2.750   5.484 -0.1514 -1.3264  0.8222
   10SAPS   O11 1214   5.497   2.798   5.706 -0.0103 -0.3150 -0.5512
   10SAPS    C1 1215   5.529   2.706   5.812  0.0265 -0.2867  1.4635
   10SAPS    HA 1216   5.614   2.639   5.788 -0.3512 -0.0780 -0.6928
   10SAPS    HB 1217   5.549   2.749   5.912  0.1336 -3.2324  2.7821
   10SAPS    C2 1218   5.403   2.623   5.842 -0.1550  0.8560  0.8388
   10SAPS    HS 1219   5.355   2.575   5.754  3.3581 -2.5239  0.4554
   10SAPS   O21 1220   5.308   2.699   5.914  0.1432  0.4575  0.5123
   10SAPS   C21 1221   5.183   2.662   5.915  0.3347 -0.6944  0.2827
   10SAPS   O22 1222   5.136   2.576   5.845  0.1783  0.6194  0.1162
   10SAPS   C22 1223   5.103   2.736   6.020 -0.5815 -0.3006  0.1139
   10SAPS   H2R 1224   5.095   2.844   5.995  0.0725 -0.6837 -1.9108
   10SAPS   H2S 1225   5.001   2.694   6.018 -0.2585 -1.1212  0.5887
   10SAPS    C3 1226   5.443   2.493   5.926 -0.1092  0.7157  0.0870
   10SAPS    HX 1227   5.512   2.435   5.861  0.5706  2.1241 -0.5001
   10SAPS    HY 1228   5.348   2.443   5.952  0.5306 -0.1623  0.8304
   10SAPS   O31 1229   5.518   2.529   6.040  0.1875 -0.4356  0.3033
   10SAPS   C31 1230   5.507   2.440   6.141  0.2977  0.2982  0.4152
   10SAPS   O32 1231   5.458   2.332   6.132  0.2273 -0.0085  0.0146
   10SAPS   C32 1232   5.571   2.499   6.267  0.2640 -0.3036  0.5712
   10SAPS   H2X 1233   5.502   2.571   6.316 -2.2949 -1.7172 -0.7957
   10SAPS   H2Y 1234   5.663   2.549   6.229 -0.6567  0.8678 -0.2013
   10SAPS   C23 1235   5.171   2.733   6.161 -0.3503 -0.1537  0.1998
   10SAPS   H3R 1236   5.266   2.791   6.155 -0.6660  0.2090 -2.5476
   10SAPS   H3S 1237   5.217   2.633   6.181 -0.0421 -0.1426 -0.4073
   10SAPS   C24 1238   5.071   2.782   6.260  0.4288 -0.2622 -0.9243
   10SAPS   H4R 1239   4.985   2.712   6.266 -1.2496  1.6958 -0.8681
   10SAPS   H4S 1240   5.024   2.881   6.240  3.6763  1.4292 -0.9576
   10SAPS   C25 1241   5.144   2.796   6.396  0.2160 -0.2625  0.1181
   10SAPS   H5R 1242   5.229   2.866   6.398  0.8211 -0.7155 -3.4872
   10SAPS   C26 1243   5.123   2.736   6.518  0.5526  0.1463 -0.4795
   10SAPS   H6R 1244   5.176   2.768   6.609  0.5994  0.8124 -0.7341
   10SAPS   C27 1245   5.020   2.635   6.553  0.1383 -0.7493  0.1174
   10SAPS   H7R 1246   5.077   2.549   6.594 -0.2149 -0.5862  0.9738
   10SAPS   H7S 1247   4.967   2.584   6.470 -1.3559  0.7026  0.1227
   10SAPS   C28 1248   4.925   2.686   6.650  0.7330 -0.2097 -0.4882
   10SAPS   H8R 1249   4.875   2.780   6.624  0.8431  0.3661  1.2490
   10SAPS   C29 1250   4.901   2.627   6.772 -0.5657  0.1834 -0.2868
   10SAPS   H9R 1251   4.825   2.669   6.840 -1.1691  0.6523 -1.2253
   10SAPS  C210 1252   4.964   2.498   6.817  0.8932  0.9149  0.4792
   10SAPS  H10R 1253   4.950   2.423   6.736 -0.1040  1.7088 -0.1071
   10SAPS  H10S 1254   4.892   2.447   6.885 -0.5268 -1.4615 -2.5918
   10SAPS  C211 1255   5.107   2.510   6.862  0.6836 -1.0194  0.4333
   10SAPS  H11R 1256   5.174   2.525   6.776  0.6780  2.2481  0.8484
   10SAPS  C212 1257   5.153   2.502   6.987  0.4978 -0.7418  0.0160
   10SAPS  H12R 1258   5.260   2.521   7.007  0.2250  1.1998 -0.1825
   10SAPS  C213 1259   5.079   2.464   7.114 -0.6697 -0.1749  0.5302
   10SAPS  H13R 1260   5.081   2.355   7.137  4.6374 -0.1676  1.3799
   10SAPS  H13S 1261   4.972   2.480   7.088  0.0785  2.6333 -1.2821
   10SAPS  C214 1262   5.123   2.537   7.236  0.4033  0.0099 -0.6799
   10SAPS  H14R 1263   5.052   2.613   7.271  1.8803  3.0908 -3.7618
   10SAPS  C215 1264   5.240   2.530   7.300  0.5470  0.1334  0.9270
   10SAPS  H15R 1265   5.264   2.584   7.393  2.2767  1.9678 -0.4893
   10SAPS  C216 1266   5.354   2.432   7.274  0.5606  0.2778 -0.5000
   10SAPS  H16R 1267   5.347   2.375   7.179  0.9019 -2.8228  1.2170
   10SAPS  H16S 1268   5.336   2.353   7.350 -1.1741  0.4233 -0.7129
   10SAPS  C217 1269   5.497   2.491   7.299  0.0734  0.2679 -0.3752
   10SAPS  H17R 1270   5.562   2.408   7.336  0.6336  0.7227 -0.3224
   10SAPS  H17S 1271   5.496   2.576   7.370  0.5797  1.1692 -1.4115
   10SAPS  C218 1272   5.566   2.541   7.165  0.1198  0.8553 -0.2002
   10SAPS  H18R 1273   5.531   2.643   7.138 -1.5364  0.5994  0.8477
   10SAPS  H18S 1274   5.539   2.476   7.080  1.5859 -2.2190  1.5295
   10SAPS  C219 1275   5.721   2.551   7.170  0.1155  0.0892 -0.9620
   10SAPS  H19R 1276   5.731   2.582   7.064 -3.4309  3.1657 -0.6019
   10SAPS  H19S 1277   5.765   2.452   7.193  1.3257  0.9006  0.4303
   10SAPS  C220 1278   5.780   2.652   7.263 -0.8394 -0.0991  0.7482
   10SAPS  H20R 1279   5.700   2.729   7.256 -2.1018 -1.4412 -0.3208
   10SAPS  H20S 1280   5.873   2.702   7.230 -0.6199  0.7263  2.4964
   10SAPS  H20T 1281   5.807   2.617   7.365  2.6429  0.5360  0.1815
   10SAPS   C33 1282   5.623   2.394   6.363  0.3400 -0.1380 -0.0086
   10SAPS   H3X 1283   5.691   2.330   6.303  0.8568  0.8578 -0.5140
   10SAPS   H3Y 1284   5.534   2.332   6.388  0.1263  0.5664  1.0749
   10SAPS   C34 1285   5.672   2.443   6.495 -0.0661 -0.3984 -0.3748
   10SAPS   H4X 1286   5.779   2.472   6.486 -0.2572  0.8812  1.1929
   10SAPS   H4Y 1287   5.670   2.355   6.563  0.7788 -0.8691 -0.9407
   10SAPS   C35 1288   5.602   2.551   6.576 -0.8813  0.5417  0.1326
   10SAPS   H5X 1289   5.506   2.515   6.620  0.9165 -1.3076  2.8698
   10SAPS   H5Y 1290   5.606   2.644   6.516  3.3826 -0.1870 -1.0238
   10SAPS   C36 1291   5.680   2.588   6.703 -0.4149 -0.2859 -0.8475
   10SAPS   H6X 1292   5.784   2.549   6.701  0.0105  0.8562 -1.3690
   10SAPS   H6Y 1293   5.633   2.559   6.800  2.3855 -0.9052  0.4042
   10SAPS   C37 1294   5.706   2.740   6.716  0.7128  0.3941 -0.5627
   10SAPS   H7X 1295   5.760   2.767   6.622  1.5654 -1.4289 -0.6396
   10SAPS   H7Y 1296   5.767   2.763   6.805 -1.8559  1.3456  1.0765
   10SAPS   C38 1297   5.574   2.817   6.743  0.4913 -0.2062 -0.0228
   10SAPS   H8X 1298   5.542   2.784   6.844 -1.7411  2.5644  0.3026
   10SAPS   H8Y 1299   5.487   2.788   6.681 -1.0384 -1.1088  2.3951
   10SAPS   C39 1300   5.591   2.970   6.755  0.0748 -0.2646 -0.6536
   10SAPS   H9X 1301   5.614   3.015   6.656  0.4966 -1.1993 -0.9865
   10SAPS   H9Y 1302   5.687   2.978   6.811 -0.7757  1.0220  0.7014
   10SAPS  C310 1303   5.476   3.049   6.818 -0.2207  0.0942 -0.2347
   10SAPS  H10X 1304   5.451   3.025   6.924 -0.9747  0.3693 -0.3372
   10SAPS  H10Y 1305   5.380   3.024   6.768  0.1763 -0.3396 -0.7826
   10SAPS  C311 1306   5.508   3.204   6.818  0.3213 -0.0094 -0.1087
   10SAPS  H11X 1307   5.422   3.265   6.855 -2.0860 -1.9969 -2.0066
   10SAPS  H11Y 1308   5.533   3.228   6.713 -0.5102  1.4714  0.0045
   10SAPS  C312 1309   5.628   3.244   6.912  0.7848  0.1319 -0.0578
   10SAPS  H12X 1310   5.670   3.340   6.877  1.4976 -0.0737  0.2248
   10SAPS  H12Y 1311   5.706   3.168   6.890  0.2403 -1.4285  2.8832
   10SAPS  C313 1312   5.596   3.233   7.060  0.5035  0.3907  0.3751
   10SAPS  H13X 1313   5.560   3.129   7.074 -2.3302  1.5739  3.1120
   10SAPS  H13Y 1314   5.510   3.302   7.078  0.2102  0.0829  0.1650
   10SAPS  C314 1315   5.707   3.270   7.158  0.1730 -0.2700  0.0891
   10SAPS  H14X 1316   5.773   3.356   7.131 -3.3641  2.2530 -1.2874
   10SAPS  H14Y 1317   5.776   3.185   7.174  0.4748  0.2452  1.6823
   10SAPS  C315 1318   5.645   3.307   7.295  0.7407  1.0191  0.1727
   10SAPS  H15X 1319   5.549   3.359   7.274 -1.2240 -1.8054  1.5389
   10SAPS  H15Y 1320   5.715   3.374   7.349  1.6135 -0.4774  0.9374
   10SAPS  C316 1321   5.623   3.197   7.398  0.0013  0.3011  0.0044
   10SAPS  H16X 1322   5.594   3.245   7.494 -0.0625 -0.9094  0.6004
   10SAPS  H16Y 1323   5.725   3.155   7.411  0.0386  0.4181  0.0910
   10SAPS  C317 1324   5.521   3.096   7.363  0.2193 -0.1358 -0.1743
   10SAPS  H17X 1325   5.546   3.045   7.268  0.4398 -2.5089  1.0662
   10SAPS  H17Y 1326   5.424   3.145   7.342 -0.9745 -1.3611  2.0871
   10SAPS  C318 1327   5.507   2.981   7.469 -0.0739  0.4201  0.1532
   10SAPS  H18X 1328   5.443   2.896   7.439  2.5284 -2.4374  2.1348
   10SAPS  H18Y 1329   5.463   3.024   7.561 -1.7529  0.2732 -0.5536
   10SAPS  H18Z 1330   5.606   2.932   7.482  0.0700  0.1976 -1.5638
   11SAPS     N 1331   6.280   4.250   5.711 -0.6350 -0.1513 -0.4641
   11SAPS   HN1 1332   6.264   4.172   5.777 -1.9421  0.4331 -0.0445
   11SAPS   HN2 1333   6.224   4.321   5.763 -0.0489 -0.3192  0.4240
   11SAPS   HN3 1334   6.250   4.227   5.614  3.6924 -1.5011 -1.6667
   11SAPS   C12 1335   6.425   4.285   5.716 -0.3966  0.1555 -0.1815
   11SAPS  H12A 1336   6.471   4.206   5.659 -0.9358 -0.5053  0.2900
   11SAPS   C13 1337   6.452   4.417   5.639 -0.7972  0.4640 -0.2444
   11SAPS  O13A 1338   6.355   4.480   5.587  1.0731  0.2209  0.3529
   11SAPS  O13B 1339   6.567   4.439   5.601 -0.4313 -0.1204  0.0109
   11SAPS   C11 1340   6.478   4.289   5.860 -0.3736  0.3446 -0.2117
   11SAPS  H11A 1341   6.433   4.376   5.912  0.7644 -0.4297  2.1661
   11SAPS  H11B 1342   6.587   4.304   5.851 -0.2213 -0.7816 -0.4613
   11SAPS     P 1343   6.543   4.116   6.040  0.0124  0.0837 -0.0125
   11SAPS   O13 1344   6.510   3.978   6.092  0.6038 -0.0709 -0.2847
   11SAPS   O14 1345   6.680   4.143   6.010 -0.2646  0.2066  0.3244
   11SAPS   O12 1346   6.443   4.157   5.923  0.2722 -0.0177 -0.3086
   11SAPS   O11 1347   6.493   4.223   6.150 -0.5437 -0.4554 -0.3107
   11SAPS    C1 1348   6.361   4.225   6.200  0.2968  0.1301 -0.1930
   11SAPS    HA 1349   6.300   4.149   6.146  0.8028 -0.6468  0.3026
   11SAPS    HB 1350   6.372   4.192   6.305 -0.2302 -1.8451 -0.7170
   11SAPS    C2 1351   6.293   4.365   6.197  0.9341  0.3760  0.4533
   11SAPS    HS 1352   6.287   4.396   6.090  1.5060  2.1964  0.9236
   11SAPS   O21 1353   6.384   4.452   6.267  0.1587 -0.0746 -0.2139
   11SAPS   C21 1354   6.382   4.579   6.226  0.1163 -0.0218 -0.4368
   11SAPS   O22 1355   6.329   4.619   6.124  0.1228  0.3060 -0.0346
   11SAPS   C22 1356   6.446   4.667   6.329 -0.5919  0.1120 -0.3898
   11SAPS   H2R 1357   6.535   4.715   6.281  1.1947 -0.8479  1.8100
   11SAPS   H2S 1358   6.372   4.746   6.355  0.5355  1.7964 -2.0059
   11SAPS    C3 1359   6.151   4.355   6.261  0.1600 -0.5019 -0.3312
   11SAPS    HX 1360   6.091   4.301   6.184 -0.4116 -0.3433 -0.0067
   11SAPS    HY 1361   6.098   4.450   6.285 -0.7612 -1.2978  0.9331
   11SAPS   O31 1362   6.156   4.286   6.384  0.0787  0.5087 -0.5097
   11SAPS   C31 1363   6.138   4.356   6.496 -0.0682 -0.3510 -0.2299
   11SAPS   O32 1364   6.093   4.468   6.506  0.2232 -0.4020 -0.2724
   11SAPS   C32 1365   6.178   4.270   6.609 -0.5638  0.4488  0.0227
   11SAPS   H2X 1366   6.288   4.276   6.622 -0.4154 -0.8144 -0.5980
   11SAPS   H2Y 1367   6.156   4.167   6.574  0.7435  0.7079 -1.6987
   11SAPS   C23 1368   6.489   4.596   6.459 -0.1788 -0.4369  0.1633
   11SAPS   H3R 1369   6.568   4.521   6.439 -0.6551 -0.8200 -0.3414
   11SAPS   H3S 1370   6.402   4.551   6.511  0.2529 -0.9795  0.4240
   11SAPS   C24 1371   6.562   4.693   6.561 -0.2640 -0.9272  0.0227
   11SAPS   H4R 1372   6.659   4.710   6.510 -1.1359 -0.6398 -1.6235
   11SAPS   H4S 1373   6.587   4.647   6.659  2.1170  1.7263  0.8059
   11SAPS   C25 1374   6.477   4.820   6.590  0.5877 -0.0158  0.1004
   11SAPS   H5R 1375   6.484   4.895   6.509 -1.6732  1.5775  1.2949
   11SAPS   C26 1376   6.403   4.845   6.694  0.5612  0.3576  0.1889
   11SAPS   H6R 1377   6.346   4.938   6.696 -2.2194 -1.2381  0.2754
   11SAPS   C27 1378   6.384   4.762   6.817  0.2707 -0.3928 -0.7089
   11SAPS   H7R 1379   6.467   4.788   6.885  1.0312  0.0080 -1.7545
   11SAPS   H7S 1380   6.410   4.656   6.793 -1.2460 -0.8696 -0.3748
   11SAPS   C28 1381   6.249   4.767   6.883 -0.2226  0.3429  0.4883
   11SAPS   H8R 1382   6.177   4.698   6.836 -0.1024  1.0406 -0.7463
   11SAPS   C29 1383   6.205   4.864   6.965  0.2681  0.0505 -0.0274
   11SAPS   H9R 1384   6.106   4.844   7.007  1.7489 -4.4595  2.0571
   11SAPS  C210 1385   6.300   4.962   7.027 -0.3898 -0.4222  0.3034
   11SAPS  H10R 1386   6.239   5.053   7.042 -0.6549 -0.2152 -1.7759
   11SAPS  H10S 1387   6.377   4.990   6.952 -1.4331  1.2906 -0.1821
   11SAPS  C211 1388   6.367   4.921   7.155  0.1164 -0.1617 -0.2855
   11SAPS  H11R 1389   6.403   4.817   7.156 -2.7676 -1.2501 -0.0486
   11SAPS  C212 1390   6.363   4.985   7.275 -0.3991  0.8340  0.7324
   11SAPS  H12R 1391   6.423   4.939   7.355  0.9222 -0.6217 -1.0149
   11SAPS  C213 1392   6.301   5.117   7.308  0.2151  0.8496  0.0143
   11SAPS  H13R 1393   6.256   5.157   7.215 -1.6603 -1.4261 -0.1265
   11SAPS  H13S 1394   6.374   5.185   7.358 -1.0391  0.5749  2.3842
   11SAPS  C214 1395   6.185   5.093   7.398 -0.1414  0.0399 -0.3407
   11SAPS  H14R 1396   6.089   5.063   7.354 -1.5361  1.1164  1.7741
   11SAPS  C215 1397   6.188   5.116   7.529  0.3710 -0.5065  0.4634
   11SAPS  H15R 1398   6.097   5.100   7.589 -0.5546  0.3929 -0.6535
   11SAPS  C216 1399   6.299   5.160   7.624 -0.6239 -0.3573  0.4146
   11SAPS  H16R 1400   6.404   5.142   7.591  0.1037  3.7769 -0.0757
   11SAPS  H16S 1401   6.281   5.114   7.723 -0.5354 -0.9998  0.1373
   11SAPS  C217 1402   6.280   5.314   7.643 -0.1631 -0.8507 -0.0549
   11SAPS  H17R 1403   6.172   5.327   7.666  0.0289 -1.2653  1.1179
   11SAPS  H17S 1404   6.308   5.353   7.543 -1.9770 -1.3860 -0.8132
   11SAPS  C218 1405   6.364   5.383   7.749  0.2172  0.2707  0.4211
   11SAPS  H18R 1406   6.471   5.357   7.735 -0.1988 -1.5462  0.3829
   11SAPS  H18S 1407   6.330   5.339   7.845 -0.7814  1.2545  0.5362
   11SAPS  C219 1408   6.337   5.538   7.746 -0.7632  0.1671 -0.2406
   11SAPS  H19R 1409   6.229   5.555   7.767 -0.5051  1.3755  0.1943
   11SAPS  H19S 1410   6.361   5.568   7.642 -0.1828  0.7552  0.0497
   11SAPS  C220 1411   6.413   5.618   7.844  0.9852 -0.0771 -0.2724
   11SAPS  H20R 1412   6.381   5.612   7.950 -2.3094 -2.7742 -1.2080
   11SAPS  H20S 1413   6.416   5.724   7.811 -0.4933 -0.9054 -3.4435
   11SAPS  H20T 1414   6.517   5.578   7.848  1.2619  0.7239  1.9699
   11SAPS   C33 1415   6.109   4.302   6.747 -0.3174  0.0798 -0.1770
   11SAPS   H3X 1416   6.001   4.330   6.741 -0.2372  0.4307  0.0046
   11SAPS   H3Y 1417   6.162   4.386   6.796 -0.9826  0.1923  0.3664
   11SAPS   C34 1418   6.111   4.184   6.843  0.6839  0.5867 -0.3065
   11SAPS   H4X 1419   6.164   4.215   6.936 -0.2380  0.4477  0.2832
   11SAPS   H4Y 1420   6.182   4.108   6.804  3.2745  0.2388  4.3988
   11SAPS   C35 1421   5.973   4.120   6.868  0.4548  0.1514 -0.7289
   11SAPS   H5X 1422   5.915   4.108   6.773 -0.9075  1.9755 -0.1900
   11SAPS   H5Y 1423   5.911   4.198   6.918  0.7095  3.7582 -5.4060
   11SAPS   C36 1424   5.984   3.985   6.948 -0.3254  0.2601 -0.1304
   11SAPS   H6X 1425   6.060   3.921   6.899  1.4982  1.1674  1.4150
   11SAPS   H6Y 1426   5.886   3.932   6.946  1.2866 -2.9351 -1.5432
   11SAPS   C37 1427   6.023   4.013   7.091 -0.0387  0.0283  0.4146
   11SAPS   H7X 1428   6.126   4.054   7.095  0.3428 -0.9836  2.5354
   11SAPS   H7Y 1429   6.032   3.912   7.138  0.0593 -0.0586  0.2100
   11SAPS   C38 1430   5.918   4.086   7.165 -0.0268  1.2290 -0.9840
   11SAPS   H8X 1431   5.820   4.034   7.163  0.0336  1.0290  0.3012
   11SAPS   H8Y 1432   5.890   4.187   7.126 -1.4675  1.0665 -0.4354
   11SAPS   C39 1433   5.949   4.116   7.312 -0.3892  0.5954  0.1485
   11SAPS   H9X 1434   5.876   4.190   7.351  0.6244  1.3450  0.6531
   11SAPS   H9Y 1435   6.047   4.168   7.319 -0.5285  1.3143 -2.3287
   11SAPS  C310 1436   5.947   3.999   7.410 -0.2030  0.0839  0.5539
   11SAPS  H10X 1437   5.971   3.903   7.359 -2.5474  0.8983 -2.3680
   11SAPS  H10Y 1438   5.841   3.989   7.439 -0.8945  0.0652 -1.7602
   11SAPS  C311 1439   6.021   4.033   7.543 -0.4502  0.4742 -0.4569
   11SAPS  H11X 1440   5.957   4.099   7.605  0.5044  0.4763  0.5685
   11SAPS  H11Y 1441   6.117   4.088   7.529 -0.7699  0.7939 -1.5488
   11SAPS  C312 1442   6.045   3.905   7.613 -1.0841 -0.2365  0.2873
   11SAPS  H12X 1443   6.093   3.828   7.549 -1.8406 -0.8467  0.4290
   11SAPS  H12Y 1444   5.955   3.847   7.643 -0.6900 -0.9900  0.0332
   11SAPS  C313 1445   6.126   3.922   7.738  0.6958  0.3460 -0.1188
   11SAPS  H13X 1446   6.225   3.969   7.721  0.5954  1.0565  1.1211
   11SAPS  H13Y 1447   6.136   3.820   7.781 -1.0568  0.5326  0.8088
   11SAPS  C314 1448   6.060   4.010   7.857 -0.1778 -0.2798  1.2088
   11SAPS  H14X 1449   5.956   3.980   7.880 -0.3842  1.7778  3.3460
   11SAPS  H14Y 1450   6.043   4.115   7.825  1.1151  0.0097  1.4347
   11SAPS  C315 1451   6.144   4.033   7.987  0.2591  0.0119  0.6736
   11SAPS  H15X 1452   6.242   4.082   7.965 -0.7660  2.3184  0.9748
   11SAPS  H15Y 1453   6.169   3.932   8.028  0.6831 -1.2749 -2.4932
   11SAPS  C316 1454   6.077   4.116   8.093 -0.1376 -0.1411  0.5509
   11SAPS  H16X 1455   6.059   4.208   8.034 -0.7883 -1.3968 -1.2940
   11SAPS  H16Y 1456   6.143   4.147   8.177  1.3365 -0.1564 -0.5443
   11SAPS  C317 1457   5.953   4.054   8.145  0.6720  0.5609  0.0586
   11SAPS  H17X 1458   5.884   4.022   8.063  0.0426 -1.6106  1.3520
   11SAPS  H17Y 1459   5.898   4.131   8.204  0.2296  0.3350 -0.0544
   11SAPS  C318 1460   5.970   3.920   8.217 -0.0791 -0.4025  0.0185
   11SAPS  H18X 1461   6.023   3.945   8.312  2.0139  1.6659 -1.5733
   11SAPS  H18Y 1462   6.018   3.841   8.157 -1.0586 -0.4611 -0.7170
   11SAPS  H18Z 1463   5.866   3.888   8.239 -0.7322  1.8310  0.4495
   12SAPS     N 1464   4.474   7.116   5.691 -0.0795  0.1560  0.1142
   12SAPS   HN1 1465   4.519   7.210   5.682  0.3992  0.0037  0.8705
   12SAPS   HN2 1466   4.417   7.114   5.777  0.6631 -0.1686  0.6053
   12SAPS   HN3 1467   4.545   7.041   5.704 -1.5845 -0.8539  3.7596
   12SAPS   C12 1468   4.384   7.090   5.565 -0.6078 -0.0991  0.2868
   12SAPS  H12A 1469   4.325   7.180   5.552 -2.2413 -1.0163  1.0966
   12SAPS   C13 1470   4.461   7.086   5.431  0.3479  0.5487 -0.5113
   12SAPS  O13A 1471   4.586   7.108   5.424 -0.8800 -0.1703 -0.3358
   12SAPS  O13B 1472   4.391   7.085   5.330  0.4323 -0.0496  0.7560
   12SAPS   C11 1473   4.302   6.962   5.577 -0.3779 -0.9096 -0.3378
   12SAPS  H11A 1474   4.384   6.889   5.590  1.0592  0.9876  2.6380
   12SAPS  H11B 1475   4.241   6.961   5.484  2.5201  0.1331 -2.4004
   12SAPS     P 1476   4.186   6.824   5.756 -0.0790  0.3242  0.1012
   12SAPS   O13 1477   4.091   6.840   5.867 -0.2648 -0.7010 -0.0504
   12SAPS   O14 1478   4.137   6.741   5.643 -0.3325 -0.9207 -0.2110
   12SAPS   O12 1479   4.220   6.962   5.697 -0.4173 -0.6455 -0.3624
   12SAPS   O11 1480   4.319   6.768   5.811 -0.3589  0.4231 -1.3172
   12SAPS    C1 1481   4.389   6.826   5.924  0.0078  0.8541 -0.4532
   12SAPS    HA 1482   4.447   6.912   5.883  1.8308 -0.6989 -1.3129
   12SAPS    HB 1483   4.320   6.860   6.004 -0.6067 -0.0611 -0.5759
   12SAPS    C2 1484   4.488   6.718   5.988  0.2698  0.0644 -0.2981
   12SAPS    HS 1485   4.436   6.619   5.996 -2.4929  1.5288  1.5757
   12SAPS   O21 1486   4.517   6.770   6.123  0.0138  0.0761  0.3818
   12SAPS   C21 1487   4.561   6.672   6.208 -0.3367  0.6121 -0.3829
   12SAPS   O22 1488   4.557   6.554   6.182 -0.6774  0.3840 -0.0386
   12SAPS   C22 1489   4.598   6.738   6.343 -0.0983 -0.2055  0.4559
   12SAPS   H2R 1490   4.709   6.739   6.353 -0.1406  1.0222  0.8892
   12SAPS   H2S 1491   4.555   6.840   6.337 -1.7024 -0.9328 -2.6988
   12SAPS    C3 1492   4.619   6.700   5.899  0.2953 -0.3359 -1.0757
   12SAPS    HX 1493   4.593   6.694   5.791 -1.4358 -0.7764 -0.6569
   12SAPS    HY 1494   4.659   6.599   5.922 -0.2764 -0.0787  1.3101
   12SAPS   O31 1495   4.720   6.803   5.939 -0.4943  0.1364  0.8349
   12SAPS   C31 1496   4.727   6.910   5.867  0.0212 -0.3167  0.2056
   12SAPS   O32 1497   4.693   6.923   5.750 -0.3708 -0.7851  0.6480
   12SAPS   C32 1498   4.791   7.011   5.945  0.6013 -0.2162  0.9203
   12SAPS   H2X 1499   4.845   7.092   5.893  1.0142  1.2487  3.4460
   12SAPS   H2Y 1500   4.870   6.970   6.011  0.8107  0.0793  0.8552
   12SAPS   C23 1501   4.532   6.666   6.460 -0.0439  0.7559  0.1958
   12SAPS   H3R 1502   4.544   6.555   6.457 -2.2003  0.3543  2.7391
   12SAPS   H3S 1503   4.421   6.674   6.454 -0.1552 -0.8239 -0.2552
   12SAPS   C24 1504   4.586   6.711   6.594  0.3082  0.2496 -0.4081
   12SAPS   H4R 1505   4.569   6.821   6.589 -0.1127  0.1538 -1.1503
   12SAPS   H4S 1506   4.696   6.695   6.594  0.0284 -2.2418  1.2710
   12SAPS   C25 1507   4.522   6.646   6.713  0.0398  0.5646  0.3000
   12SAPS   H5R 1508   4.549   6.539   6.710  0.1571  0.6075 -2.5374
   12SAPS   C26 1509   4.452   6.690   6.821 -0.1059 -0.1758  0.0240
   12SAPS   H6R 1510   4.401   6.618   6.888  1.3493 -0.2008  1.1453
   12SAPS   C27 1511   4.419   6.830   6.857  0.7706  0.1057  0.2987
   12SAPS   H7R 1512   4.345   6.874   6.786  1.5053  0.1685 -0.4443
   12SAPS   H7S 1513   4.511   6.891   6.851  0.1605  1.1111  0.8992
   12SAPS   C28 1514   4.358   6.853   6.991 -0.8120 -0.9003 -0.2622
   12SAPS   H8R 1515   4.254   6.891   6.987 -0.9081 -1.0108  0.8904
   12SAPS   C29 1516   4.409   6.815   7.107  0.4433 -0.2634 -0.4339
   12SAPS   H9R 1517   4.350   6.842   7.196 -0.7236 -0.2809 -1.1753
   12SAPS  C210 1518   4.536   6.743   7.139 -0.4277  0.0585 -0.2874
   12SAPS  H10R 1519   4.571   6.792   7.232 -1.4151  0.8941 -0.3366
   12SAPS  H10S 1520   4.620   6.762   7.069  0.7767  0.5589  1.2380
   12SAPS  C211 1521   4.522   6.596   7.167  0.0554 -1.1846  0.0688
   12SAPS  H11R 1522   4.426   6.569   7.215 -0.3858  0.5617  0.2428
   12SAPS  C212 1523   4.593   6.489   7.119 -0.4455  0.3656 -0.1845
   12SAPS  H12R 1524   4.578   6.387   7.157  0.1690  0.1444 -0.5207
   12SAPS  C213 1525   4.723   6.503   7.043  0.6877  0.2612 -0.8415
   12SAPS  H13R 1526   4.788   6.589   7.068  0.2129  0.1813  0.7791
   12SAPS  H13S 1527   4.707   6.505   6.933 -0.5667 -1.4428 -0.7234
   12SAPS  C214 1528   4.810   6.381   7.070 -0.2825  0.0354  0.3374
   12SAPS  H14R 1529   4.880   6.394   7.154  1.8114  3.1499 -1.6611
   12SAPS  C215 1530   4.828   6.271   6.990 -0.0305  0.5022 -0.8777
   12SAPS  H15R 1531   4.901   6.195   7.021 -0.3827  0.1177 -0.9827
   12SAPS  C216 1532   4.741   6.237   6.877 -0.2142  0.1411  0.1397
   12SAPS  H16R 1533   4.649   6.296   6.894 -0.1900 -0.5639  3.4006
   12SAPS  H16S 1534   4.703   6.132   6.870 -1.6770  0.6031  0.9053
   12SAPS  C217 1535   4.795   6.270   6.737 -0.9636  0.3574 -0.2809
   12SAPS  H17R 1536   4.885   6.209   6.717  0.2458  1.4991  1.4104
   12SAPS  H17S 1537   4.817   6.379   6.746  3.3793 -0.5246  2.4625
   12SAPS  C218 1538   4.702   6.240   6.620 -0.0646 -0.7706  0.6238
   12SAPS  H18R 1539   4.617   6.311   6.627  0.2678 -0.1225 -1.1978
   12SAPS  H18S 1540   4.653   6.144   6.644 -0.7104 -0.5975  0.0260
   12SAPS  C219 1541   4.769   6.226   6.484 -0.3468 -0.8951  0.7431
   12SAPS  H19R 1542   4.848   6.148   6.481  0.7688  0.2069  0.4619
   12SAPS  H19S 1543   4.819   6.323   6.462 -3.0151  0.6250  0.8954
   12SAPS  C220 1544   4.654   6.185   6.385 -0.1231 -0.1166 -0.3973
   12SAPS  H20R 1545   4.567   6.254   6.383  0.0375  0.0810 -0.7013
   12SAPS  H20S 1546   4.620   6.084   6.414  0.4486  0.2676  1.7947
   12SAPS  H20T 1547   4.692   6.197   6.281 -0.2334  2.2869 -0.2225
   12SAPS   C33 1548   4.692   7.079   6.052  0.0472  0.3142  0.7515
   12SAPS   H3X 1549   4.674   7.008   6.136 -0.9928 -2.1590 -1.4342
   12SAPS   H3Y 1550   4.599   7.111   6.001  0.8010  2.8166  0.7730
   12SAPS   C34 1551   4.752   7.207   6.100  0.2732  0.3306 -0.3148
   12SAPS   H4X 1552   4.767   7.270   6.009  1.2057  1.5128  0.6099
   12SAPS   H4Y 1553   4.855   7.187   6.138  0.1705  1.9518  0.9450
   12SAPS   C35 1554   4.666   7.283   6.205 -0.2085  0.4795 -0.0220
   12SAPS   H5X 1555   4.561   7.289   6.171 -0.6661  1.3383  1.4349
   12SAPS   H5Y 1556   4.694   7.389   6.225  0.0033  0.2659  0.8721
   12SAPS   C36 1557   4.668   7.197   6.333  1.3704  0.2476 -0.0902
   12SAPS   H6X 1558   4.772   7.187   6.373  0.2400  0.5320  3.2112
   12SAPS   H6Y 1559   4.645   7.092   6.305  0.2034  0.8667 -1.5650
   12SAPS   C37 1560   4.572   7.253   6.449  0.3131 -0.1233 -0.4126
   12SAPS   H7X 1561   4.469   7.237   6.410 -0.0660 -0.5164  0.7306
   12SAPS   H7Y 1562   4.594   7.362   6.456 -3.2261  0.6311  1.7456
   12SAPS   C38 1563   4.588   7.179   6.581  0.7065 -0.2574  0.0488
   12SAPS   H8X 1564   4.686   7.212   6.621 -0.4816  2.5312  0.9729
   12SAPS   H8Y 1565   4.578   7.070   6.563 -0.3226 -0.1732  0.0330
   12SAPS   C39 1566   4.472   7.217   6.677  0.9108  0.4037  0.4080
   12SAPS   H9X 1567   4.372   7.185   6.640  1.1690  1.3162 -1.1608
   12SAPS   H9Y 1568   4.482   7.328   6.683 -0.0805  0.4893  0.7854
   12SAPS  C310 1569   4.482   7.153   6.817  0.7377 -0.0175 -0.0670
   12SAPS  H10X 1570   4.575   7.092   6.810  0.9326  0.4470 -3.9690
   12SAPS  H10Y 1571   4.400   7.079   6.827  0.2485  0.5060 -0.1218
   12SAPS  C311 1572   4.468   7.260   6.926 -0.3505  0.1390  0.5094
   12SAPS  H11X 1573   4.372   7.309   6.896  0.3639 -0.5053 -3.4164
   12SAPS  H11Y 1574   4.556   7.327   6.919 -1.1617  1.1413 -0.7020
   12SAPS  C312 1575   4.465   7.203   7.068  0.3951  0.2311 -0.7335
   12SAPS  H12X 1576   4.389   7.123   7.087 -0.2736  0.4050 -2.4839
   12SAPS  H12Y 1577   4.445   7.294   7.127 -3.0394 -1.1012  0.4200
   12SAPS  C313 1578   4.594   7.136   7.129  0.4295 -0.0337 -1.0026
   12SAPS  H13X 1579   4.681   7.203   7.114 -0.5339  1.3476 -0.6110
   12SAPS  H13Y 1580   4.601   7.036   7.080 -1.8519 -0.2959 -0.9020
   12SAPS  C314 1581   4.568   7.121   7.282  0.2351 -0.6393 -0.2966
   12SAPS  H14X 1582   4.476   7.063   7.303  0.0683  0.1663  1.3542
   12SAPS  H14Y 1583   4.538   7.220   7.321 -0.4561 -0.5230 -1.0758
   12SAPS  C315 1584   4.694   7.074   7.351 -0.7633 -0.0809  0.0687
   12SAPS  H15X 1585   4.759   7.161   7.377 -1.2401  0.0236  0.9373
   12SAPS  H15Y 1586   4.754   7.018   7.276 -1.0533 -1.8865  1.1410
   12SAPS  C316 1587   4.667   6.985   7.469 -0.3809  0.5865  0.7244
   12SAPS  H16X 1588   4.594   6.903   7.450 -0.3422  0.2576  1.8919
   12SAPS  H16Y 1589   4.631   7.054   7.549  0.2291  0.3514  1.2094
   12SAPS  C317 1590   4.793   6.920   7.531 -1.0087  0.0965 -0.2906
   12SAPS  H17X 1591   4.866   7.002   7.552 -0.3776 -0.8423  1.3801
   12SAPS  H17Y 1592   4.842   6.864   7.449  0.7099  1.2765 -0.1444
   12SAPS  C318 1593   4.767   6.829   7.646  0.1846 -0.3085 -0.4241
   12SAPS  H18X 1594   4.700   6.744   7.619 -0.4355 -0.1700  0.6372
   12SAPS  H18Y 1595   4.746   6.883   7.741  0.1101 -0.5185 -0.3189
   12SAPS  H18Z 1596   4.862   6.773   7.666  0.8904  0.8854 -0.3692
   13SAPS     N 1597   6.591   1.966   5.623  0.4014  0.5332 -0.5706
   13SAPS   HN1 1598   6.592   1.944   5.724 -1.1074 -0.2886 -0.7070
   13SAPS   HN2 1599   6.659   1.898   5.584  0.5064 -0.2278  0.9075
   13SAPS   HN3 1600   6.625   2.064   5.609  0.5608  0.3600 -1.4723
   13SAPS   C12 1601   6.451   1.944   5.564 -0.2469  0.7025 -0.3182
   13SAPS  H12A 1602   6.461   1.972   5.460  0.4410 -0.2900 -0.5323
   13SAPS   C13 1603   6.422   1.792   5.564  0.6336  0.1562 -0.2830
   13SAPS  O13A 1604   6.504   1.709   5.608  0.3081 -0.8118  0.5035
   13SAPS  O13B 1605   6.321   1.746   5.493 -0.0811  0.3813  0.5662
   13SAPS   C11 1606   6.350   2.021   5.653 -0.7333  0.2368  0.1537
   13SAPS  H11A 1607   6.365   2.003   5.761  2.0550  1.5704  0.0680
   13SAPS  H11B 1608   6.250   1.986   5.618 -0.7087  0.2592  0.0600
   13SAPS     P 1609   6.244   2.266   5.682 -0.0890 -0.2532  0.0710
   13SAPS   O13 1610   6.233   2.360   5.566 -0.5183  0.1488 -0.1361
   13SAPS   O14 1611   6.118   2.202   5.722  0.0330 -0.0155  0.5715
   13SAPS   O12 1612   6.356   2.162   5.634  0.0873  0.0630 -0.2424
   13SAPS   O11 1613   6.304   2.346   5.804 -0.3815  0.5945 -0.1040
   13SAPS    C1 1614   6.440   2.399   5.794 -0.3916 -0.3838 -0.9401
   13SAPS    HA 1615   6.462   2.419   5.687  0.8201 -3.2824 -1.3193
   13SAPS    HB 1616   6.440   2.497   5.846 -2.1316 -1.7528  1.8768
   13SAPS    C2 1617   6.551   2.310   5.858 -0.1294 -0.1435 -0.4463
   13SAPS    HS 1618   6.538   2.209   5.814 -0.9201  0.2123 -1.0780
   13SAPS   O21 1619   6.527   2.319   5.998  0.3296 -0.0627  0.0149
   13SAPS   C21 1620   6.447   2.229   6.044 -0.2020 -0.0632  0.1597
   13SAPS   O22 1621   6.383   2.147   5.979 -0.0144  0.1730  0.5341
   13SAPS   C22 1622   6.452   2.246   6.203  0.3871  0.0297  0.1808
   13SAPS   H2R 1623   6.529   2.319   6.237 -0.0158  0.3572  0.4006
   13SAPS   H2S 1624   6.348   2.277   6.227  0.1570  0.6575 -1.5217
   13SAPS    C3 1625   6.692   2.364   5.822  0.6797  0.4890 -0.4534
   13SAPS    HX 1626   6.684   2.400   5.718 -0.1955 -3.2435 -1.8153
   13SAPS    HY 1627   6.776   2.293   5.807  0.7204  0.0380  1.5392
   13SAPS   O31 1628   6.719   2.476   5.906 -0.6755  0.0220  0.0706
   13SAPS   C31 1629   6.797   2.445   6.009 -0.1637 -0.3602 -0.0726
   13SAPS   O32 1630   6.834   2.332   6.035 -0.1378 -0.0456 -0.3613
   13SAPS   C32 1631   6.838   2.570   6.081  0.3393  0.9315  0.2639
   13SAPS   H2X 1632   6.755   2.643   6.095  0.1332  0.4677  1.6243
   13SAPS   H2Y 1633   6.910   2.620   6.013 -0.3913  1.2701 -0.2809
   13SAPS   C23 1634   6.469   2.109   6.274 -0.2273  0.8527  0.3140
   13SAPS   H3R 1635   6.400   2.042   6.218  0.4566  0.9684 -0.6988
   13SAPS   H3S 1636   6.429   2.107   6.378  0.3182 -0.8487  0.5285
   13SAPS   C24 1637   6.618   2.063   6.282  0.7507 -0.2252 -0.8715
   13SAPS   H4R 1638   6.650   2.044   6.177 -2.4067 -0.2331 -1.9553
   13SAPS   H4S 1639   6.610   1.967   6.336 -3.3825  0.0661 -0.6266
   13SAPS   C25 1640   6.711   2.163   6.341 -0.5539  0.0949  0.6130
   13SAPS   H5R 1641   6.774   2.223   6.273  0.0152 -0.1404  0.9245
   13SAPS   C26 1642   6.727   2.178   6.479 -0.1606  1.1023 -0.8901
   13SAPS   H6R 1643   6.815   2.232   6.515 -0.2236 -0.4848  1.8866
   13SAPS   C27 1644   6.650   2.102   6.586 -0.4640 -0.1647  0.5155
   13SAPS   H7R 1645   6.727   2.030   6.623 -0.7128 -0.7696 -0.1461
   13SAPS   H7S 1646   6.574   2.036   6.540  0.6333 -1.0265 -0.1086
   13SAPS   C28 1647   6.597   2.202   6.688  0.4029 -0.6031  0.1726
   13SAPS   H8R 1648   6.556   2.287   6.631 -0.6330 -0.9908  0.3011
   13SAPS   C29 1649   6.583   2.195   6.822  0.3160 -1.0751  0.7478
   13SAPS   H9R 1650   6.532   2.275   6.878  1.7285 -0.5239  1.3005
   13SAPS  C210 1651   6.636   2.084   6.906 -0.4533  0.0954 -0.0566
   13SAPS  H10R 1652   6.726   2.129   6.954 -0.2337 -1.0762  0.6492
   13SAPS  H10S 1653   6.678   2.004   6.842  3.1608  2.4241 -0.9530
   13SAPS  C211 1654   6.538   2.033   7.010 -0.5403 -0.6421 -0.3801
   13SAPS  H11R 1655   6.438   2.002   6.976 -0.4415 -0.2221 -1.0717
   13SAPS  C212 1656   6.565   2.017   7.137 -0.3198  0.3030 -0.5093
   13SAPS  H12R 1657   6.485   2.002   7.211  1.1216  2.8219  1.7810
   13SAPS  C213 1658   6.701   2.041   7.204  1.1113 -0.2592 -0.4440
   13SAPS  H13R 1659   6.781   2.026   7.128 -0.0592 -0.3524 -1.6939
   13SAPS  H13S 1660   6.720   1.974   7.290 -0.7879  0.7062  0.7993
   13SAPS  C214 1661   6.707   2.188   7.247 -0.4373  0.9999 -0.1669
   13SAPS  H14R 1662   6.694   2.264   7.169 -0.5727  3.2654  1.9294
   13SAPS  C215 1663   6.729   2.228   7.372  0.5991 -0.2961 -0.4024
   13SAPS  H15R 1664   6.713   2.337   7.379  0.4524 -0.2865 -0.8264
   13SAPS  C216 1665   6.747   2.145   7.501  0.2477 -0.3278 -0.1746
   13SAPS  H16R 1666   6.838   2.184   7.552  0.4444  0.1229 -0.8583
   13SAPS  H16S 1667   6.768   2.038   7.482 -1.0224 -1.0610  2.1405
   13SAPS  C217 1668   6.637   2.149   7.606 -0.7564 -0.6366 -0.3261
   13SAPS  H17R 1669   6.669   2.076   7.683 -1.3642 -1.3058 -0.6927
   13SAPS  H17S 1670   6.539   2.118   7.563 -1.3794 -2.4072  2.1263
   13SAPS  C218 1671   6.609   2.293   7.650 -0.0933  0.5544  0.0525
   13SAPS  H18R 1672   6.607   2.359   7.560  1.4763  0.0464 -0.3872
   13SAPS  H18S 1673   6.700   2.324   7.707  1.7351  1.0267 -2.8679
   13SAPS  C219 1674   6.477   2.322   7.728 -0.5106 -0.0755 -0.0732
   13SAPS  H19R 1675   6.484   2.284   7.833  0.7140  2.8553  1.0014
   13SAPS  H19S 1676   6.385   2.265   7.702 -1.2170 -1.7800  4.8817
   13SAPS  C220 1677   6.463   2.474   7.731 -0.2867  0.3926  0.4587
   13SAPS  H20R 1678   6.360   2.495   7.767 -0.6630  0.1578 -0.4503
   13SAPS  H20S 1679   6.485   2.521   7.633  2.2070 -1.8835 -0.1912
   13SAPS  H20T 1680   6.544   2.505   7.800  0.6801  2.5131 -1.4985
   13SAPS   C33 1681   6.912   2.541   6.218  0.0051 -0.3289  0.8879
   13SAPS   H3X 1682   6.997   2.612   6.232 -0.9788  0.7770  1.4107
   13SAPS   H3Y 1683   6.973   2.448   6.213  3.6092  1.8400  0.3129
   13SAPS   C34 1684   6.815   2.561   6.339 -0.0361 -0.3965  0.2851
   13SAPS   H4X 1685   6.733   2.486   6.331 -0.1310 -0.5477  2.1855
   13SAPS   H4Y 1686   6.760   2.657   6.344  0.6058 -0.0713  1.7215
   13SAPS   C35 1687   6.888   2.541   6.468  0.3557  0.3308 -0.1903
   13SAPS   H5X 1688   6.988   2.591   6.472  0.3095  0.6956 -2.3558
   13SAPS   H5Y 1689   6.911   2.432   6.473  2.7407  0.7852  0.2584
   13SAPS   C36 1690   6.793   2.563   6.585 -0.0023 -0.4567  0.2677
   13SAPS   H6X 1691   6.703   2.499   6.570 -0.7004  0.8206 -1.3368
   13SAPS   H6Y 1692   6.763   2.669   6.567 -0.5679 -0.7282 -0.4373
   13SAPS   C37 1693   6.839   2.545   6.733  0.0731 -1.0162  0.1140
   13SAPS   H7X 1694   6.928   2.607   6.754 -0.8173  0.3585 -0.0875
   13SAPS   H7Y 1695   6.865   2.438   6.747  0.2463 -0.9846  0.0303
   13SAPS   C38 1696   6.721   2.599   6.815 -0.4810 -0.3951  0.0523
   13SAPS   H8X 1697   6.633   2.532   6.810 -1.6796  1.1023  0.4210
   13SAPS   H8Y 1698   6.692   2.701   6.781  2.8891  1.0610  1.0657
   13SAPS   C39 1699   6.753   2.622   6.962 -0.1187 -0.0116 -0.0809
   13SAPS   H9X 1700   6.658   2.633   7.019  0.9146  2.4379  1.3414
   13SAPS   H9Y 1701   6.815   2.710   6.991 -2.9285  2.1962 -0.3209
   13SAPS  C310 1702   6.808   2.495   7.017 -0.2663 -0.5039  0.8210
   13SAPS  H10X 1703   6.914   2.476   6.987 -0.5115 -0.6178 -0.0052
   13SAPS  H10Y 1704   6.747   2.412   6.975 -0.3293  0.4683 -1.1308
   13SAPS  C311 1705   6.806   2.494   7.175 -0.1202  0.4877 -0.1578
   13SAPS  H11X 1706   6.868   2.404   7.195  0.5061  0.7481 -0.8767
   13SAPS  H11Y 1707   6.701   2.485   7.212 -0.5978 -2.2636 -1.8829
   13SAPS  C312 1708   6.863   2.617   7.244  0.5513  0.6694  0.3616
   13SAPS  H12X 1709   6.803   2.710   7.238  2.5824  2.0383  0.0938
   13SAPS  H12Y 1710   6.960   2.659   7.211  0.5707  1.2474  1.1196
   13SAPS  C313 1711   6.880   2.578   7.393  0.7521  0.2783  0.0596
   13SAPS  H13X 1712   6.966   2.622   7.448  0.3327  0.8834  0.2341
   13SAPS  H13Y 1713   6.896   2.468   7.392  1.3917  0.3694 -0.8342
   13SAPS  C314 1714   6.759   2.611   7.486  0.0983 -0.6658 -0.3737
   13SAPS  H14X 1715   6.770   2.537   7.569  1.5670  0.0367  0.0785
   13SAPS  H14Y 1716   6.664   2.590   7.432 -1.3898  2.0537  0.9889
   13SAPS  C315 1717   6.750   2.755   7.541 -0.3986 -0.2097 -0.2994
   13SAPS  H15X 1718   6.722   2.818   7.455  0.3508  0.7338  0.1336
   13SAPS  H15Y 1719   6.849   2.786   7.580 -0.4930 -1.0704  0.6944
   13SAPS  C316 1720   6.655   2.768   7.662 -0.4758 -0.1002  0.3903
   13SAPS  H16X 1721   6.672   2.709   7.754  0.0351  0.4970  0.6877
   13SAPS  H16Y 1722   6.562   2.725   7.619 -0.6858  2.0176 -1.4655
   13SAPS  C317 1723   6.628   2.916   7.707 -0.4031  0.4753  0.6639
   13SAPS  H17X 1724   6.535   2.908   7.767 -1.2428 -1.3030 -0.7629
   13SAPS  H17Y 1725   6.605   2.973   7.614  1.2097 -0.5371 -0.4044
   13SAPS  C318 1726   6.741   2.985   7.785  0.2722 -0.7130  0.6562
   13SAPS  H18X 1727   6.759   2.925   7.878  0.4435 -0.9071  0.4991
   13SAPS  H18Y 1728   6.707   3.088   7.805 -1.4674 -1.0016 -0.5812
   13SAPS  H18Z 1729   6.836   2.983   7.729 -1.7247 -0.0728 -3.0621
   14SAPS     N 1730   6.758   5.703   5.672  0.3840 -0.5367  0.8384
   14SAPS   HN1 1731   6.690   5.627   5.650 -0.7093  0.7633 -0.4699
   14SAPS   HN2 1732   6.841   5.683   5.614 -1.2046 -2.0650 -1.0555
   14SAPS   HN3 1733   6.797   5.689   5.768  0.9926  1.1718  0.8564
   14SAPS   C12 1734   6.706   5.849   5.665  0.0720  0.6702 -0.1826
   14SAPS  H12A 1735   6.708   5.884   5.563 -1.9719 -0.6560 -0.7415
   14SAPS   C13 1736   6.551   5.863   5.700 -0.4049  0.5845  0.1035
   14SAPS  O13A 1737   6.490   5.769   5.755 -0.3152  1.0444 -0.2732
   14SAPS  O13B 1738   6.504   5.978   5.695  0.4691  0.0395 -0.1687
   14SAPS   C11 1739   6.799   5.941   5.745 -0.4197  0.9882  0.2998
   14SAPS  H11A 1740   6.769   6.046   5.723 -1.1665  0.8226  0.5068
   14SAPS  H11B 1741   6.903   5.930   5.708 -1.0796 -0.7114 -1.1950
   14SAPS     P 1742   6.869   5.823   5.978 -0.2541 -0.0007  0.0485
   14SAPS   O13 1743   6.854   5.689   5.913 -0.0625  0.2169 -0.3893
   14SAPS   O14 1744   7.008   5.874   5.998  0.2614  0.5030 -0.1798
   14SAPS   O12 1745   6.790   5.917   5.888  0.2353 -0.4220  0.1641
   14SAPS   O11 1746   6.782   5.834   6.105  0.6671 -0.4963 -0.7627
   14SAPS    C1 1747   6.637   5.822   6.107  0.1258 -0.4493  0.0442
   14SAPS    HA 1748   6.583   5.827   6.010 -2.1999  0.1778  1.2751
   14SAPS    HB 1749   6.618   5.720   6.145  1.2000 -1.3193 -1.6178
   14SAPS    C2 1750   6.568   5.934   6.189  0.6902 -0.2845  0.3450
   14SAPS    HS 1751   6.611   6.032   6.160  0.8849  0.0110  1.5734
   14SAPS   O21 1752   6.585   5.901   6.327 -0.3426 -0.1510  0.8917
   14SAPS   C21 1753   6.708   5.937   6.372 -0.3581  0.0823  1.2596
   14SAPS   O22 1754   6.795   6.002   6.313  0.2583 -0.4278 -0.1918
   14SAPS   C22 1755   6.726   5.889   6.517 -0.0669  0.5810  0.1552
   14SAPS   H2R 1756   6.621   5.911   6.550 -0.4153 -2.0500  0.9940
   14SAPS   H2S 1757   6.736   5.779   6.518  0.6355  0.6450  0.5290
   14SAPS    C3 1758   6.415   5.947   6.151  0.0874  0.4732 -0.3219
   14SAPS    HX 1759   6.366   5.849   6.168  0.7468 -0.2138 -2.1696
   14SAPS    HY 1760   6.399   5.984   6.048  1.7647  3.5286  0.3695
   14SAPS   O31 1761   6.353   6.048   6.227 -0.1758  0.1186 -0.6910
   14SAPS   C31 1762   6.222   6.044   6.230 -0.2799  0.0287  0.3264
   14SAPS   O32 1763   6.149   5.975   6.160 -0.0324  0.3670 -0.1542
   14SAPS   C32 1764   6.173   6.143   6.338  0.4486  0.6039 -0.1097
   14SAPS   H2X 1765   6.143   6.237   6.288 -0.1213  0.7428  0.4826
   14SAPS   H2Y 1766   6.254   6.152   6.414 -1.0170 -1.3856  1.8046
   14SAPS   C23 1767   6.831   5.962   6.587 -0.4263  0.1025 -0.5147
   14SAPS   H3R 1768   6.823   6.071   6.569  0.6460  0.0446 -1.4729
   14SAPS   H3S 1769   6.938   5.937   6.568  0.1194  1.2206  0.8984
   14SAPS   C24 1770   6.829   5.929   6.737  0.3676 -0.0375  0.7139
   14SAPS   H4R 1771   6.933   5.942   6.775  1.1523 -1.7828 -0.6788
   14SAPS   H4S 1772   6.814   5.820   6.750  3.0327 -0.6497 -0.5218
   14SAPS   C25 1773   6.729   6.012   6.811  0.3338  0.9131  0.6664
   14SAPS   H5R 1774   6.630   6.030   6.768  0.6014  1.6404  0.3464
   14SAPS   C26 1775   6.747   6.066   6.932 -0.2217 -0.0032  0.1326
   14SAPS   H6R 1776   6.660   6.105   6.986 -0.0686 -0.1167  0.4667
   14SAPS   C27 1777   6.872   6.065   7.005 -0.5974  0.6452 -0.5884
   14SAPS   H7R 1778   6.873   6.153   7.072  0.5062 -0.5607  1.0562
   14SAPS   H7S 1779   6.956   6.086   6.935 -0.0125 -0.2463 -0.1730
   14SAPS   C28 1780   6.899   5.938   7.086  0.6049  0.2115  0.7412
   14SAPS   H8R 1781   6.976   5.868   7.048 -1.1325 -2.3500  1.6633
   14SAPS   C29 1782   6.825   5.902   7.196 -0.1290  0.3347  0.1384
   14SAPS   H9R 1783   6.880   5.829   7.257 -0.4795 -0.3656 -0.3719
   14SAPS  C210 1784   6.720   5.989   7.257 -0.6217  0.0303  0.5315
   14SAPS  H10R 1785   6.660   6.042   7.181 -0.4493 -0.9503 -0.3071
   14SAPS  H10S 1786   6.770   6.070   7.316  0.5154  0.1379 -0.5422
   14SAPS  C211 1787   6.621   5.914   7.347 -0.0192  0.4813  0.2669
   14SAPS  H11R 1788   6.558   5.843   7.292 -0.2911  0.5456  0.4934
   14SAPS  C212 1789   6.592   5.939   7.475  0.1201  0.0075 -0.3050
   14SAPS  H12R 1790   6.516   5.875   7.521  0.7431 -0.5519 -0.0344
   14SAPS  C213 1791   6.671   6.035   7.558 -0.2817 -0.3780  0.4652
   14SAPS  H13R 1792   6.627   6.134   7.531  1.0020 -0.4972 -2.5027
   14SAPS  H13S 1793   6.772   6.040   7.512 -0.4194 -1.0718  0.0696
   14SAPS  C214 1794   6.673   6.009   7.703  0.2885  0.3311 -0.0195
   14SAPS  H14R 1795   6.695   5.905   7.732  0.2624  0.5180  0.7028
   14SAPS  C215 1796   6.627   6.090   7.803 -0.2719 -0.6130 -0.4681
   14SAPS  H15R 1797   6.630   6.051   7.905  0.1924 -0.8361 -0.5636
   14SAPS  C216 1798   6.570   6.224   7.781 -0.4131  0.5958 -0.1710
   14SAPS  H16R 1799   6.487   6.212   7.708 -1.6090  1.2061  1.0535
   14SAPS  H16S 1800   6.645   6.290   7.732 -1.3771  0.7173 -1.5479
   14SAPS  C217 1801   6.495   6.293   7.896 -0.2928 -0.3536 -0.1569
   14SAPS  H17R 1802   6.437   6.214   7.947 -1.1195 -0.7551 -1.6582
   14SAPS  H17S 1803   6.433   6.374   7.852  0.4648  1.5781  2.1114
   14SAPS  C218 1804   6.599   6.362   7.993 -0.0344 -0.7159  0.2976
   14SAPS  H18R 1805   6.641   6.453   7.945  1.7508 -0.9602  1.3215
   14SAPS  H18S 1806   6.684   6.292   8.009  0.1338 -0.0753  2.6396
   14SAPS  C219 1807   6.523   6.405   8.121 -0.6667 -0.1800  0.7075
   14SAPS  H19R 1808   6.465   6.316   8.151 -1.5276 -0.1413 -0.7367
   14SAPS  H19S 1809   6.454   6.492   8.112  1.5348  1.8364  1.9580
   14SAPS  C220 1810   6.620   6.453   8.235  0.0225 -0.0049  0.6294
   14SAPS  H20R 1811   6.658   6.552   8.204  0.6626 -0.4586 -0.0836
   14SAPS  H20S 1812   6.699   6.377   8.256 -0.4979 -0.5973  0.4674
   14SAPS  H20T 1813   6.559   6.470   8.326 -1.2253  0.0196 -0.1965
   14SAPS   C33 1814   6.049   6.089   6.410 -0.4265  0.3073  0.2962
   14SAPS   H3X 1815   6.077   6.003   6.474 -0.5936  0.1842  0.2042
   14SAPS   H3Y 1816   5.969   6.052   6.343 -0.5943  0.4553  0.4123
   14SAPS   C34 1817   5.982   6.201   6.495 -0.1414  0.7625  0.2578
   14SAPS   H4X 1818   5.912   6.143   6.558  0.5611  0.1344  0.4731
   14SAPS   H4Y 1819   5.930   6.268   6.423  1.3991  0.6648 -1.0105
   14SAPS   C35 1820   6.084   6.288   6.577  0.1644  0.2601  0.4360
   14SAPS   H5X 1821   6.158   6.344   6.515 -0.5595 -0.5936 -1.2615
   14SAPS   H5Y 1822   6.138   6.207   6.630  0.9087  1.2336  1.2084
   14SAPS   C36 1823   6.013   6.385   6.677  1.0199 -0.2485 -1.2823
   14SAPS   H6X 1824   5.969   6.463   6.610  0.1942 -0.1060 -0.5914
   14SAPS   H6Y 1825   6.098   6.430   6.733  0.1698 -0.3305  0.1205
   14SAPS   C37 1826   5.913   6.314   6.765  0.2183  0.1188  0.8527
   14SAPS   H7X 1827   5.945   6.222   6.818  1.6113  1.2137  2.0061
   14SAPS   H7Y 1828   5.818   6.297   6.711  0.7020 -0.9124  0.3080
   14SAPS   C38 1829   5.868   6.400   6.881  0.6573  0.1553  0.0025
   14SAPS   H8X 1830   5.767   6.368   6.913  1.3163 -0.4152  1.6275
   14SAPS   H8Y 1831   5.849   6.498   6.832  0.6492 -1.2571 -3.0637
   14SAPS   C39 1832   5.951   6.399   7.004 -0.1956 -0.4787 -0.0404
   14SAPS   H9X 1833   6.035   6.470   6.985 -0.5526 -0.2880 -0.9422
   14SAPS   H9Y 1834   5.991   6.295   7.012 -0.6361 -0.7001 -0.6961
   14SAPS  C310 1835   5.882   6.441   7.133 -0.8450 -0.3518  0.2966
   14SAPS  H10X 1836   5.954   6.429   7.217 -0.9493  0.9572  0.5910
   14SAPS  H10Y 1837   5.799   6.373   7.161  1.7697 -2.7940  2.8610
   14SAPS  C311 1838   5.848   6.594   7.133  0.0210 -0.2440 -0.1505
   14SAPS  H11X 1839   5.765   6.616   7.063  1.3601  0.1729 -1.6714
   14SAPS  H11Y 1840   5.940   6.640   7.092 -1.5384  0.8794 -2.5924
   14SAPS  C312 1841   5.806   6.651   7.271 -0.3127 -0.4498  0.4568
   14SAPS  H12X 1842   5.822   6.760   7.267 -0.8813 -0.3437  0.8833
   14SAPS  H12Y 1843   5.862   6.602   7.354 -0.7838 -2.0244 -0.1052
   14SAPS  C313 1844   5.655   6.630   7.312 -0.4797  0.1959  0.2800
   14SAPS  H13X 1845   5.641   6.520   7.317 -1.5660  0.3560  1.1416
   14SAPS  H13Y 1846   5.583   6.672   7.238 -1.5624 -1.4912  0.3350
   14SAPS  C314 1847   5.632   6.667   7.459 -0.4089  0.8734 -0.9674
   14SAPS  H14X 1848   5.647   6.777   7.460 -3.2635  1.3385 -1.0846
   14SAPS  H14Y 1849   5.711   6.614   7.517  0.0198 -0.7439 -2.9339
   14SAPS  C315 1850   5.493   6.630   7.507  0.4539  0.4209 -0.5373
   14SAPS  H15X 1851   5.494   6.522   7.530  2.9191  0.3648 -0.5978
   14SAPS  H15Y 1852   5.414   6.653   7.431 -0.6654 -2.2379 -0.2708
   14SAPS  C316 1853   5.462   6.716   7.637 -0.0607  0.0287 -0.5603
   14SAPS  H16X 1854   5.468   6.823   7.608  1.3627 -0.3131 -1.6299
   14SAPS  H16Y 1855   5.539   6.694   7.714 -2.5603 -1.8349  1.5720
   14SAPS  C317 1856   5.311   6.714   7.692  0.0107 -0.2881  0.1811
   14SAPS  H17X 1857   5.278   6.609   7.707 -0.9698 -0.1852 -1.1081
   14SAPS  H17Y 1858   5.244   6.758   7.615 -1.1654 -0.2637  1.2014
   14SAPS  C318 1859   5.295   6.796   7.812 -0.6786 -0.9738  0.2426
   14SAPS  H18X 1860   5.290   6.906   7.796  0.4057 -1.0097 -0.4866
   14SAPS  H18Y 1861   5.366   6.785   7.896  0.1171  0.2868 -0.2310
   14SAPS  H18Z 1862   5.195   6.769   7.852 -2.5197  0.3075 -3.1109
   15SAPS     N 1863   0.264   5.542   5.399  0.2489  0.2898 -0.1068
   15SAPS   HN1 1864   0.254   5.602   5.314  1.3615  0.9692  0.2236
   15SAPS   HN2 1865   0.167   5.519   5.429  0.3464  1.6092  1.3184
   15SAPS   HN3 1866   0.300   5.594   5.482  0.9789 -1.6366  0.8295
   15SAPS   C12 1867   0.355   5.427   5.378  0.8986  0.2113 -0.1909
   15SAPS  H12A 1868   0.301   5.365   5.308  0.2044  0.7649 -0.1503
   15SAPS   C13 1869   0.496   5.460   5.328 -0.1709 -0.2540 -0.0248
   15SAPS  O13A 1870   0.532   5.578   5.299  0.8348  0.6961 -0.3613
   15SAPS  O13B 1871   0.579   5.364   5.324 -0.3726  0.0791  0.0883
   15SAPS   C11 1872   0.365   5.350   5.513 -0.2727  0.3283 -0.6993
   15SAPS  H11A 1873   0.418   5.420   5.581  0.0136 -0.6371  0.0726
   15SAPS  H11B 1874   0.421   5.259   5.485  0.5916  0.5730  0.2005
   15SAPS     P 1875   0.215   5.166   5.627 -0.0332 -0.0609  0.4878
   15SAPS   O13 1876   0.081   5.159   5.695  0.0284 -0.1842 -0.0908
   15SAPS   O14 1877   0.243   5.070   5.520 -0.5189 -0.5614 -0.3444
   15SAPS   O12 1878   0.234   5.312   5.563  0.0010  0.3977 -0.3238
   15SAPS   O11 1879   0.331   5.148   5.732  0.6838 -0.0420 -0.7426
   15SAPS    C1 1880   0.364   5.248   5.833  0.2054 -0.1607  0.1837
   15SAPS    HA 1881   0.462   5.298   5.818 -0.6659  1.4024 -0.6245
   15SAPS    HB 1882   0.295   5.335   5.832 -0.1556 -0.3793  2.1546
   15SAPS    C2 1883   0.338   5.189   5.977 -0.2979 -0.6322  0.4315
   15SAPS    HS 1884   0.385   5.089   5.993 -1.2567 -1.0785  0.5521
   15SAPS   O21 1885   0.199   5.188   5.995  0.0887 -0.5475 -0.3376
   15SAPS   C21 1886   0.141   5.090   6.048  0.0289  0.0698 -0.4442
   15SAPS   O22 1887   0.197   4.994   6.097 -0.6221  0.4507 -0.1876
   15SAPS   C22 1888  -0.010   5.122   6.037  0.7095  0.6347 -0.2722
   15SAPS   H2R 1889  -0.042   5.227   6.057 -1.4245  0.2266 -1.1924
   15SAPS   H2S 1890  -0.047   5.085   5.939  0.0323 -1.4579  0.7090
   15SAPS    C3 1891   0.397   5.284   6.087  0.4238 -0.0797 -0.0314
   15SAPS    HX 1892   0.369   5.390   6.070  2.6127  0.2242 -2.3031
   15SAPS    HY 1893   0.508   5.280   6.080  0.4606 -1.8025  1.0253
   15SAPS   O31 1894   0.367   5.234   6.220  0.3164 -0.4330  0.5131
   15SAPS   C31 1895   0.297   5.313   6.295  1.2579  0.3184 -0.3193
   15SAPS   O32 1896   0.231   5.411   6.268 -0.0831 -0.0881  0.1679
   15SAPS   C32 1897   0.290   5.243   6.435 -0.3584 -0.3585  0.3228
   15SAPS   H2X 1898   0.378   5.176   6.449 -1.5723 -1.5887  2.7722
   15SAPS   H2Y 1899   0.201   5.179   6.420 -0.7612  0.4071 -0.6389
   15SAPS   C23 1900  -0.106   5.034   6.129  0.2658  0.0643  0.0585
   15SAPS   H3R 1901  -0.062   4.933   6.136  0.1955  0.0851  0.8842
   15SAPS   H3S 1902  -0.205   5.031   6.079  1.0148 -0.8607 -1.4195
   15SAPS   C24 1903  -0.128   5.100   6.271  0.1362 -0.0095  0.7076
   15SAPS   H4R 1904  -0.029   5.135   6.307  1.2638 -1.9561 -0.2979
   15SAPS   H4S 1905  -0.168   5.013   6.327 -1.4727  1.3869  1.8173
   15SAPS   C25 1906  -0.223   5.216   6.274  0.2305 -0.3939  0.2828
   15SAPS   H5R 1907  -0.288   5.214   6.186  0.7887 -1.3722 -0.1267
   15SAPS   C26 1908  -0.228   5.308   6.367  0.6789  0.2123 -0.5666
   15SAPS   H6R 1909  -0.298   5.388   6.338 -1.1247 -0.3464  1.8358
   15SAPS   C27 1910  -0.137   5.332   6.487  0.1198 -0.0777  0.0433
   15SAPS   H7R 1911  -0.044   5.274   6.475 -0.7878 -1.4673 -0.5264
   15SAPS   H7S 1912  -0.172   5.278   6.578  0.9542  0.7381  0.8685
   15SAPS   C28 1913  -0.119   5.484   6.522  0.7554  0.1175 -0.2225
   15SAPS   H8R 1914  -0.035   5.538   6.476  1.8483 -0.9853  0.4236
   15SAPS   C29 1915  -0.193   5.543   6.614  0.4220 -0.3491  0.8141
   15SAPS   H9R 1916  -0.181   5.652   6.623  0.0477  0.0062 -2.1801
   15SAPS  C210 1917  -0.298   5.472   6.699 -0.2391 -0.8252  0.2760
   15SAPS  H10R 1918  -0.246   5.390   6.752 -1.0053 -0.5829  1.4627
   15SAPS  H10S 1919  -0.381   5.426   6.640 -1.4961  0.0778  1.2864
   15SAPS  C211 1920  -0.367   5.565   6.802  0.3012  0.1097  0.8273
   15SAPS  H11R 1921  -0.436   5.633   6.751  1.3871  0.6192 -0.0029
   15SAPS  C212 1922  -0.359   5.584   6.938 -0.1900  0.2259  0.1412
   15SAPS  H12R 1923  -0.402   5.674   6.984  0.2274  0.1289  0.7333
   15SAPS  C213 1924  -0.269   5.512   7.042  0.6951 -0.9922  0.5384
   15SAPS  H13R 1925  -0.293   5.404   7.049  1.1620 -1.0867  0.7545
   15SAPS  H13S 1926  -0.296   5.544   7.144 -0.8586  0.5784 -0.3205
   15SAPS  C214 1927  -0.122   5.541   7.007 -0.3510  0.6366  0.3372
   15SAPS  H14R 1928  -0.108   5.535   6.898 -1.4667  0.4867  0.1908
   15SAPS  C215 1929  -0.021   5.570   7.092 -0.0793  0.3069  0.0852
   15SAPS  H15R 1930   0.080   5.572   7.049 -0.5720  0.6074 -1.1191
   15SAPS  C216 1931  -0.031   5.589   7.244  0.5052 -0.5718  0.5827
   15SAPS  H16R 1932   0.033   5.512   7.293  2.2208  0.8195  0.6573
   15SAPS  H16S 1933  -0.135   5.582   7.283  0.5983 -1.0177  0.7622
   15SAPS  C217 1934   0.016   5.731   7.281  0.6073  0.1087 -0.9504
   15SAPS  H17R 1935  -0.049   5.806   7.231 -0.6539 -0.2501  0.0777
   15SAPS  H17S 1936   0.119   5.745   7.242  0.7635 -0.5249 -0.7773
   15SAPS  C218 1937   0.026   5.753   7.431  0.5139  0.4541 -0.3296
   15SAPS  H18R 1938   0.081   5.849   7.447  0.6131  0.3357  0.0462
   15SAPS  H18S 1939   0.101   5.685   7.477 -1.5388 -0.8156  1.3143
   15SAPS  C219 1940  -0.111   5.743   7.502 -0.3054 -0.1325  0.9534
   15SAPS  H19R 1941  -0.149   5.639   7.497 -1.8614  0.4408 -0.0950
   15SAPS  H19S 1942  -0.169   5.811   7.436 -1.0263  0.7357  2.4267
   15SAPS  C220 1943  -0.134   5.801   7.638 -0.1422  0.6317 -0.3738
   15SAPS  H20R 1944  -0.117   5.910   7.647 -0.6617  0.7007 -0.1586
   15SAPS  H20S 1945  -0.068   5.740   7.704 -1.0107 -0.1326 -0.1909
   15SAPS  H20T 1946  -0.240   5.775   7.661  0.2067 -0.9887 -0.4453
   15SAPS   C33 1947   0.276   5.349   6.550  0.0758  0.3496 -0.0570
   15SAPS   H3X 1948   0.185   5.411   6.534 -0.9809 -1.5919 -2.1872
   15SAPS   H3Y 1949   0.364   5.415   6.560 -0.6413  1.4524 -0.8477
   15SAPS   C34 1950   0.249   5.271   6.683 -0.3235 -0.3192  1.2692
   15SAPS   H4X 1951   0.333   5.230   6.742 -3.0832 -0.6411  5.4155
   15SAPS   H4Y 1952   0.167   5.196   6.674 -0.0309 -0.4580 -0.9694
   15SAPS   C35 1953   0.185   5.369   6.790 -0.6744  0.5170 -0.5070
   15SAPS   H5X 1954   0.082   5.388   6.753 -0.9143 -1.4221 -0.9232
   15SAPS   H5Y 1955   0.245   5.462   6.791  0.1394  0.0120 -1.1125
   15SAPS   C36 1956   0.180   5.304   6.927  0.3987 -0.0273 -0.8959
   15SAPS   H6X 1957   0.161   5.196   6.909 -0.6381  0.0229 -0.2447
   15SAPS   H6Y 1958   0.096   5.339   6.992 -1.0581 -3.5175 -0.6778
   15SAPS   C37 1959   0.306   5.334   7.002 -0.5502 -0.1889 -0.2510
   15SAPS   H7X 1960   0.313   5.445   7.002  3.3329 -0.2771  0.0957
   15SAPS   H7Y 1961   0.398   5.286   6.962  0.3520 -0.6213  2.1723
   15SAPS   C38 1962   0.293   5.287   7.151 -0.4934 -0.1612 -0.2553
   15SAPS   H8X 1963   0.255   5.183   7.158 -1.4538  0.2124  0.2517
   15SAPS   H8Y 1964   0.215   5.347   7.204 -0.9231 -0.9430  0.0073
   15SAPS   C39 1965   0.425   5.305   7.230  0.0095  0.3644  0.1680
   15SAPS   H9X 1966   0.508   5.280   7.161 -0.4762  0.0076 -0.2946
   15SAPS   H9Y 1967   0.426   5.225   7.307 -1.8905  0.4554  0.3376
   15SAPS  C310 1968   0.445   5.431   7.307  0.9345 -0.4604 -0.5161
   15SAPS  H10X 1969   0.542   5.435   7.361  0.2862  0.3094  0.6385
   15SAPS  H10Y 1970   0.359   5.446   7.376 -0.0288 -0.4526 -1.6792
   15SAPS  C311 1971   0.466   5.543   7.203  0.3320 -0.1186  0.5357
   15SAPS  H11X 1972   0.370   5.576   7.159  0.8203 -1.8804 -2.0828
   15SAPS  H11Y 1973   0.532   5.518   7.117  2.2067  1.6376  1.3722
   15SAPS  C312 1974   0.533   5.668   7.266  0.3432  0.2680  0.3120
   15SAPS  H12X 1975   0.539   5.744   7.185 -0.1227  0.8811  0.8325
   15SAPS  H12Y 1976   0.635   5.643   7.302  1.8024  0.5657 -3.2478
   15SAPS  C313 1977   0.457   5.721   7.395  0.0059  0.0331 -0.2085
   15SAPS  H13X 1978   0.475   5.644   7.472  2.2750  1.0739  0.3993
   15SAPS  H13Y 1979   0.347   5.728   7.385  0.1261  1.7709 -0.7613
   15SAPS  C314 1980   0.518   5.851   7.449  0.4546  0.1421  0.8535
   15SAPS  H14X 1981   0.471   5.928   7.383 -0.8081 -1.6691 -0.4934
   15SAPS  H14Y 1982   0.626   5.847   7.425  0.4216 -4.0748  0.7348
   15SAPS  C315 1983   0.497   5.890   7.593  0.0714  0.2912 -0.4385
   15SAPS  H15X 1984   0.543   5.812   7.657  3.5865  2.5102  0.0077
   15SAPS  H15Y 1985   0.387   5.897   7.611 -0.5056 -2.2698 -2.3344
   15SAPS  C316 1986   0.560   6.020   7.638  0.8178  0.3275  0.2738
   15SAPS  H16X 1987   0.669   5.999   7.640  0.5087 -1.7934  3.5642
   15SAPS  H16Y 1988   0.539   6.040   7.746 -0.2122 -2.1882  0.6183
   15SAPS  C317 1989   0.526   6.134   7.542  0.1956 -0.4873  0.5359
   15SAPS  H17X 1990   0.418   6.139   7.517  1.0538  1.7816 -3.5223
   15SAPS  H17Y 1991   0.580   6.129   7.445 -0.5801 -1.9155  0.1533
   15SAPS  C318 1992   0.562   6.263   7.615  0.2670 -0.2132 -0.1469
   15SAPS  H18X 1993   0.480   6.280   7.689 -1.3652 -1.0926 -1.6794
   15SAPS  H18Y 1994   0.573   6.347   7.544 -0.0414  2.2294  2.5083
   15SAPS  H18Z 1995   0.650   6.262   7.683  0.1815 -0.9064 -0.0315
   16SAPS     N 1996   7.026   0.562   5.483  0.6520  0.2564 -0.1074
   16SAPS   HN1 1997   7.020   0.569   5.587 -2.7264  2.2828 -0.2881
   16SAPS   HN2 1998   7.122   0.535   5.455  0.7774  0.2867  0.2842
   16SAPS   HN3 1999   6.998   0.651   5.438  1.2949  0.8772  0.6691
   16SAPS   C12 2000   6.937   0.443   5.435  0.3369 -0.2890  0.4247
   16SAPS  H12A 2001   6.843   0.489   5.410 -0.8685 -2.5179  0.5367
   16SAPS   C13 2002   7.004   0.368   5.308 -0.5006  0.6763 -0.4972
   16SAPS  O13A 2003   7.108   0.419   5.262  0.2878  0.4705 -0.0603
   16SAPS  O13B 2004   6.946   0.269   5.254  0.1951  0.0213  0.3400
   16SAPS   C11 2005   6.924   0.336   5.548  0.0355  0.6739  0.3175
   16SAPS  H11A 2006   6.914   0.386   5.647  0.1470 -0.0361  0.6932
   16SAPS  H11B 2007   7.020   0.281   5.537  0.6309  2.0555 -2.0856
   16SAPS     P 2008   6.768   0.130   5.611  0.2388 -0.2660  0.1053
   16SAPS   O13 2009   6.620   0.098   5.588 -0.7725  0.0841  0.1021
   16SAPS   O14 2010   6.871   0.039   5.563 -0.0500 -0.3620 -0.9977
   16SAPS   O12 2011   6.794   0.267   5.533 -0.3315  0.0213  0.1518
   16SAPS   O11 2012   6.801   0.156   5.759  0.2277 -0.4512 -0.0070
   16SAPS    C1 2013   6.746   0.263   5.843 -0.0142  1.0749 -0.3774
   16SAPS    HA 2014   6.827   0.338   5.852 -0.2276  1.2540  0.0525
   16SAPS    HB 2015   6.648   0.305   5.809 -0.6169 -0.5698 -0.7810
   16SAPS    C2 2016   6.726   0.222   5.996 -0.5379 -0.6799 -0.3735
   16SAPS    HS 2017   6.822   0.174   6.023  0.8937  1.2404 -1.7804
   16SAPS   O21 2018   6.620   0.130   6.006 -0.0821 -0.5619  0.6032
   16SAPS   C21 2019   6.647   0.019   6.066  0.8115  0.3937 -0.3052
   16SAPS   O22 2020   6.741  -0.005   6.134 -0.9169  0.0197  0.2363
   16SAPS   C22 2021   6.536  -0.084   6.019  0.2090  0.0935 -0.5817
   16SAPS   H2R 2022   6.491  -0.062   5.920  1.2639 -0.8925 -1.3134
   16SAPS   H2S 2023   6.596  -0.178   6.010  1.1680  0.1686  3.1697
   16SAPS    C3 2024   6.704   0.344   6.087 -0.1352  0.4492 -1.1059
   16SAPS    HX 2025   6.616   0.406   6.059 -0.5075  0.5321  0.1781
   16SAPS    HY 2026   6.782   0.422   6.078  0.0865  0.7064  1.9299
   16SAPS   O31 2027   6.693   0.288   6.222  0.6204  0.0706 -0.1970
   16SAPS   C31 2028   6.811   0.268   6.285  1.0724 -0.0515 -0.2900
   16SAPS   O32 2029   6.922   0.273   6.235 -0.4542 -0.6943  0.2733
   16SAPS   C32 2030   6.776   0.228   6.428 -0.4826 -0.5157  0.3853
   16SAPS   H2X 2031   6.764   0.119   6.441 -0.4417 -0.5357  0.2607
   16SAPS   H2Y 2032   6.677   0.275   6.445 -0.3375 -0.7843  2.0971
   16SAPS   C23 2033   6.417  -0.105   6.118  0.2524 -0.4144 -0.6899
   16SAPS   H3R 2034   6.347  -0.186   6.088  0.7374 -1.6024  1.2782
   16SAPS   H3S 2035   6.358  -0.010   6.111  1.1977  0.3040  0.6884
   16SAPS   C24 2036   6.454  -0.131   6.267  0.6102  0.2096 -0.8961
   16SAPS   H4R 2037   6.357  -0.147   6.319  0.4506  2.5166 -0.3646
   16SAPS   H4S 2038   6.507  -0.045   6.312 -1.9817  1.3820  0.1407
   16SAPS   C25 2039   6.528  -0.263   6.277  0.0131 -0.5840 -0.1855
   16SAPS   H5R 2040   6.493  -0.319   6.189 -0.9853  0.7556 -0.6920
   16SAPS   C26 2041   6.609  -0.309   6.370 -0.4371 -0.1883  0.0569
   16SAPS   H6R 2042   6.658  -0.404   6.343  1.8203  0.9948 -0.2317
   16SAPS   C27 2043   6.678  -0.237   6.483 -0.2639  0.6305 -0.2067
   16SAPS   H7R 2044   6.677  -0.284   6.583  0.4013  1.5148  0.2329
   16SAPS   H7S 2045   6.624  -0.144   6.513  0.2294  0.4253  1.3858
   16SAPS   C28 2046   6.819  -0.197   6.436 -0.5221  0.0686 -0.5614
   16SAPS   H8R 2047   6.837  -0.168   6.331  2.5944  1.2413  0.1817
   16SAPS   C29 2048   6.927  -0.192   6.521 -0.1029  0.4356  0.5830
   16SAPS   H9R 2049   7.021  -0.160   6.474 -0.3704  1.5252  0.7546
   16SAPS  C210 2050   6.924  -0.234   6.662 -0.5966  0.6758  0.5638
   16SAPS  H10R 2051   6.852  -0.316   6.681 -0.8638  0.0280 -2.6895
   16SAPS  H10S 2052   6.893  -0.146   6.723 -0.5190  1.5352 -0.5988
   16SAPS  C211 2053   7.061  -0.291   6.703 -0.4417  0.1381 -0.0485
   16SAPS  H11R 2054   7.065  -0.396   6.670 -0.6032  0.5471 -1.4682
   16SAPS  C212 2055   7.165  -0.245   6.777  0.0697 -0.7524  0.5745
   16SAPS  H12R 2056   7.244  -0.321   6.790 -1.5849 -2.7952 -0.5527
   16SAPS  C213 2057   7.194  -0.101   6.826  0.3831 -0.2310 -0.2728
   16SAPS  H13R 2058   7.182  -0.033   6.739  1.3596  0.1377 -0.1338
   16SAPS  H13S 2059   7.300  -0.088   6.856  0.3908  3.2286 -1.3739
   16SAPS  C214 2060   7.101  -0.049   6.933  0.2396 -0.3795  0.6573
   16SAPS  H14R 2061   6.999  -0.088   6.918  0.3394 -0.4343  0.0931
   16SAPS  C215 2062   7.135   0.021   7.043 -0.9859 -0.7164 -0.0884
   16SAPS  H15R 2063   7.052   0.055   7.106 -0.6398  0.5402 -0.2825
   16SAPS  C216 2064   7.282   0.069   7.084  0.8148  0.1504 -0.3063
   16SAPS  H16R 2065   7.353  -0.004   7.042 -1.3684 -0.5907 -2.9998
   16SAPS  H16S 2066   7.285   0.064   7.195 -0.4088  0.7097 -0.2249
   16SAPS  C217 2067   7.319   0.212   7.043  0.3092  0.8966 -0.3207
   16SAPS  H17R 2068   7.302   0.219   6.934  0.3996  4.3588 -0.2085
   16SAPS  H17S 2069   7.427   0.231   7.057 -0.3679  4.9542  0.7990
   16SAPS  C218 2070   7.234   0.324   7.111  0.1698  0.5406 -0.3304
   16SAPS  H18R 2071   7.203   0.299   7.215 -2.3451  0.9729 -0.9093
   16SAPS  H18S 2072   7.142   0.337   7.050  0.5677 -3.2624 -2.0951
   16SAPS  C219 2073   7.326   0.444   7.131 -0.6045  0.5326  0.1526
   16SAPS  H19R 2074   7.349   0.488   7.032  0.1894  0.2427  0.2026
   16SAPS  H19S 2075   7.420   0.416   7.184  0.3896  0.8720 -1.3805
   16SAPS  C220 2076   7.261   0.550   7.223  0.0269  0.4634  0.8261
   16SAPS  H20R 2077   7.334   0.633   7.237 -0.7330  1.2249  0.3862
   16SAPS  H20S 2078   7.244   0.503   7.322  2.6620 -2.5963 -0.0079
   16SAPS  H20T 2079   7.163   0.592   7.191 -0.9604 -0.5843  2.3652
   16SAPS   C33 2080   6.883   0.271   6.526  0.5106  0.5819 -0.0034
   16SAPS   H3X 2081   6.955   0.350   6.497  1.7838 -1.3697 -2.6893
   16SAPS   H3Y 2082   6.952   0.184   6.537  2.8871  2.0834 -1.9615
   16SAPS   C34 2083   6.811   0.312   6.655 -0.1051 -0.0068 -0.1239
   16SAPS   H4X 2084   6.737   0.392   6.630 -2.0517 -1.6809  0.0687
   16SAPS   H4Y 2085   6.889   0.354   6.722  0.8346 -2.1391  0.1608
   16SAPS   C35 2086   6.733   0.198   6.735 -0.2896  0.0367 -0.6340
   16SAPS   H5X 2087   6.797   0.108   6.747  0.1663  0.2169 -1.6785
   16SAPS   H5Y 2088   6.642   0.185   6.673 -0.7489  3.0432 -0.7166
   16SAPS   C36 2089   6.682   0.250   6.873 -0.2546 -0.1961 -0.2405
   16SAPS   H6X 2090   6.600   0.187   6.914 -0.4002  1.6563  2.5704
   16SAPS   H6Y 2091   6.641   0.351   6.851 -1.9226 -0.7510  0.1820
   16SAPS   C37 2092   6.798   0.241   6.974  0.9761 -0.3945 -0.0479
   16SAPS   H7X 2093   6.885   0.297   6.932  1.0890 -0.3036  0.3031
   16SAPS   H7Y 2094   6.827   0.134   6.985  0.3672 -0.3605  2.4381
   16SAPS   C38 2095   6.759   0.306   7.105 -0.1408  0.0266  0.0844
   16SAPS   H8X 2096   6.654   0.285   7.132  0.1481 -0.9726  0.4582
   16SAPS   H8Y 2097   6.754   0.413   7.075  2.1649  0.2544  0.3155
   16SAPS   C39 2098   6.851   0.301   7.228  0.4768 -0.6821  0.1495
   16SAPS   H9X 2099   6.948   0.346   7.198  0.9964 -2.8932 -1.7778
   16SAPS   H9Y 2100   6.876   0.194   7.242 -1.2873 -1.1400  0.0262
   16SAPS  C310 2101   6.786   0.366   7.354 -0.0822 -0.1040 -1.0244
   16SAPS  H10X 2102   6.691   0.320   7.387  0.1228  0.6994  0.8324
   16SAPS  H10Y 2103   6.762   0.472   7.327  1.0150  0.3866 -0.1470
   16SAPS  C311 2104   6.896   0.351   7.470 -0.5590 -0.0883  0.4543
   16SAPS  H11X 2105   6.870   0.402   7.565 -0.5045  2.0090 -0.5974
   16SAPS  H11Y 2106   6.994   0.391   7.437 -0.2458 -0.5410  0.8133
   16SAPS  C312 2107   6.924   0.205   7.509  0.2533 -0.1409 -0.3741
   16SAPS  H12X 2108   6.956   0.130   7.434 -1.0121 -0.8431 -0.2388
   16SAPS  H12Y 2109   6.822   0.178   7.545 -0.5952  0.4962 -2.1650
   16SAPS  C313 2110   7.031   0.193   7.620 -0.5760  0.2485  0.0468
   16SAPS  H13X 2111   7.038   0.085   7.643 -1.8442 -0.4297 -2.3406
   16SAPS  H13Y 2112   7.010   0.248   7.714 -1.6320  0.2992 -0.2108
   16SAPS  C314 2113   7.163   0.250   7.572 -0.7083  0.5698  0.7170
   16SAPS  H14X 2114   7.174   0.358   7.596  2.2617  0.7183 -0.9047
   16SAPS  H14Y 2115   7.180   0.244   7.463 -2.1283  0.6463  0.4686
   16SAPS  C315 2116   7.276   0.178   7.656 -0.5920  0.4814 -0.0918
   16SAPS  H15X 2117   7.264   0.068   7.642  0.2210  0.2796  0.6664
   16SAPS  H15Y 2118   7.268   0.191   7.766  1.2906  1.9473 -0.0630
   16SAPS  C316 2119   7.417   0.215   7.611  0.0067 -0.0282  0.0260
   16SAPS  H16X 2120   7.417   0.248   7.505 -0.0746  1.5900  0.4995
   16SAPS  H16Y 2121   7.481   0.124   7.608  1.3532  0.8573  0.5228
   16SAPS  C317 2122   7.481   0.327   7.698 -0.4632 -0.0714  0.6033
   16SAPS  H17X 2123   7.493   0.273   7.795 -0.0958 -0.9967  0.0561
   16SAPS  H17Y 2124   7.417   0.417   7.711 -1.3890 -0.4054 -1.1956
   16SAPS  C318 2125   7.619   0.379   7.648  0.0127 -0.6168 -0.0100
   16SAPS  H18X 2126   7.676   0.436   7.724 -0.0259 -0.6196  0.0210
   16SAPS  H18Y 2127   7.618   0.441   7.556 -1.7884  0.9753  1.0116
   16SAPS  H18Z 2128   7.688   0.298   7.613  0.3793 -0.5216  0.4906
   17SAPC     N 2129   4.319   3.292  10.074  0.3300 -0.5521  0.4200
   17SAPC   C12 2130   4.216   3.183  10.067  0.9357  1.1160 -0.3968
   17SAPC  H12A 2131   4.251   3.101  10.006 -1.3831 -0.5973  0.4416
   17SAPC  H12B 2132   4.122   3.219  10.028 -0.1797 -2.3048 -1.1536
   17SAPC   C13 2133   4.450   3.233  10.099  0.7842  0.6474 -0.2812
   17SAPC  H13A 2134   4.521   3.314  10.088  1.1969  0.3379  0.0802
   17SAPC  H13B 2135   4.448   3.172  10.188  0.1374  1.4092  0.2448
   17SAPC  H13C 2136   4.472   3.161  10.021 -0.4276  0.2614 -0.2825
   17SAPC   C14 2137   4.328   3.369   9.946 -0.3293 -0.2200 -0.7002
   17SAPC  H14A 2138   4.414   3.434   9.946 -1.3176  1.1253 -0.8050
   17SAPC  H14B 2139   4.326   3.306   9.858 -0.0066 -0.5713 -0.4604
   17SAPC  H14C 2140   4.233   3.419   9.932 -1.2500 -1.8495 -0.4908
   17SAPC   C15 2141   4.290   3.399  10.174  0.3199  0.1350 -0.2659
   17SAPC  H15A 2142   4.289   3.351  10.270  3.8147 -2.2204 -1.2078
   17SAPC  H15B 2143   4.362   3.478  10.163 -0.5668  0.7005 -2.8867
   17SAPC  H15C 2144   4.193   3.446  10.170 -0.8128 -1.9756  0.6264
   17SAPC   C11 2145   4.181   3.113  10.197 -0.1587 -0.0165  0.6323
   17SAPC  H11A 2146   4.084   3.059  10.209  0.3439 -1.3243 -0.8443
   17SAPC  H11B 2147   4.179   3.192  10.275  1.7009  1.8481 -1.1162
   17SAPC     P 2148   4.276   2.872  10.164  0.1247  0.0405  0.3453
   17SAPC   O13 2149   4.398   2.799  10.199 -0.0439  0.0735  0.1962
   17SAPC   O14 2150   4.150   2.801  10.186 -0.5469 -0.7776 -0.2949
   17SAPC   O12 2151   4.276   3.016  10.235  0.3722 -0.1431  0.0062
   17SAPC   O11 2152   4.301   2.920  10.016  0.2507  0.3225  0.3290
   17SAPC    C1 2153   4.424   2.885   9.952 -0.4883  0.0202  0.0795
   17SAPC    HA 2154   4.501   2.953   9.994 -0.2116  1.7491 -2.9373
   17SAPC    HB 2155   4.456   2.780   9.964  1.0456  0.5272  0.6647
   17SAPC    C2 2156   4.401   2.915   9.800 -0.2013  0.0215  0.2870
   17SAPC    HS 2157   4.464   2.845   9.741  2.1883  0.2382  2.4230
   17SAPC   O21 2158   4.446   3.050   9.775  0.1526  0.2644 -0.3587
   17SAPC   C21 2159   4.577   3.056   9.765  0.8192 -0.6901  0.0010
   17SAPC   O22 2160   4.659   2.975   9.793  0.1167 -0.1224 -0.1596
   17SAPC   C22 2161   4.616   3.192   9.712 -0.0059  0.2253  0.0924
   17SAPC   H2R 2162   4.654   3.190   9.608 -0.6025  1.0038 -0.1546
   17SAPC   H2S 2163   4.517   3.242   9.701 -0.7061 -1.3809 -1.3588
   17SAPC    C3 2164   4.253   2.888   9.756 -0.4566  0.1387 -0.0059
   17SAPC    HX 2165   4.206   2.986   9.781 -0.4142  1.0838 -3.1594
   17SAPC    HY 2166   4.211   2.812   9.825 -0.9991 -1.2988 -1.8383
   17SAPC   O31 2167   4.239   2.859   9.611  0.0949  0.2746  0.7221
   17SAPC   C31 2168   4.147   2.759   9.583 -0.2964  0.4004  0.0559
   17SAPC   O32 2169   4.094   2.693   9.670  0.4214  0.2078  0.2508
   17SAPC   C32 2170   4.131   2.730   9.435 -0.2415 -0.1841 -0.3942
   17SAPC   H2X 2171   4.093   2.625   9.428 -1.2719 -0.0263  1.9181
   17SAPC   H2Y 2172   4.230   2.751   9.391  0.3122 -1.6259  0.1043
   17SAPC   C23 2173   4.705   3.276   9.805  0.2889  1.1426  0.1802
   17SAPC   H3R 2174   4.787   3.205   9.831 -0.0076  0.8458  0.3176
   17SAPC   H3S 2175   4.658   3.308   9.900  1.5834  3.0530  0.2312
   17SAPC   C24 2176   4.768   3.396   9.737  0.5392  0.3383 -0.4209
   17SAPC   H4R 2177   4.829   3.354   9.654 -0.6917 -1.3083 -0.5353
   17SAPC   H4S 2178   4.834   3.442   9.813 -0.2520  2.0708 -0.7375
   17SAPC   C25 2179   4.661   3.493   9.682  0.6466 -0.0497  0.5308
   17SAPC   H5R 2180   4.576   3.533   9.738 -0.5073 -0.9370 -0.5417
   17SAPC   C26 2181   4.639   3.510   9.546 -0.9935  0.7059  0.4187
   17SAPC   H6R 2182   4.543   3.550   9.510 -1.4842  0.4945  1.4323
   17SAPC   C27 2183   4.725   3.458   9.442 -0.1710 -0.1683  0.4249
   17SAPC   H7R 2184   4.696   3.354   9.416 -0.5865  0.0095  0.1781
   17SAPC   H7S 2185   4.827   3.456   9.487 -0.1086  1.3474  0.3802
   17SAPC   C28 2186   4.728   3.543   9.320  0.2367 -0.4707 -0.0720
   17SAPC   H8R 2187   4.822   3.600   9.316 -0.6184  1.2381  2.0472
   17SAPC   C29 2188   4.622   3.562   9.239  0.3000  0.3748  0.2494
   17SAPC   H9R 2189   4.648   3.630   9.157  1.0267  0.6292  0.6751
   17SAPC  C210 2190   4.479   3.508   9.235 -0.4529 -0.0233 -0.2640
   17SAPC  H10R 2191   4.411   3.558   9.307  0.2418 -1.9586  1.8391
   17SAPC  H10S 2192   4.475   3.406   9.278 -0.0323 -0.7322 -1.8532
   17SAPC  C211 2193   4.433   3.507   9.089  0.7050 -0.5884 -0.5967
   17SAPC  H11R 2194   4.503   3.450   9.025 -0.0939 -3.1807  0.7073
   17SAPC  C212 2195   4.323   3.558   9.037  0.7731  0.0658  0.1619
   17SAPC  H12R 2196   4.308   3.561   8.928  1.6825 -0.3932  0.0147
   17SAPC  C213 2197   4.213   3.627   9.121  0.0342  0.3069  0.3547
   17SAPC  H13R 2198   4.236   3.736   9.122 -3.1261  1.0604  1.2802
   17SAPC  H13S 2199   4.214   3.607   9.231 -2.6411  1.0082  0.5785
   17SAPC  C214 2200   4.063   3.612   9.088  0.4420  0.0350 -0.1460
   17SAPC  H14R 2201   4.012   3.551   9.164  0.1065 -0.1301 -0.5010
   17SAPC  C215 2202   3.997   3.667   8.985 -0.1196  0.4422  0.0151
   17SAPC  H15R 2203   3.891   3.639   8.978  0.0167  0.3313 -3.6195
   17SAPC  C216 2204   4.050   3.767   8.888  0.0690  0.1352  0.3059
   17SAPC  H16R 2205   4.158   3.780   8.914  0.6000 -1.6026 -0.8685
   17SAPC  H16S 2206   4.005   3.868   8.897 -0.2560 -0.0518  0.8891
   17SAPC  C217 2207   4.017   3.718   8.740 -0.3592 -0.5732 -0.1841
   17SAPC  H17R 2208   3.918   3.669   8.726 -0.4304 -0.4275 -0.1871
   17SAPC  H17S 2209   4.097   3.650   8.703  0.6063 -0.2981  1.3228
   17SAPC  C218 2210   4.019   3.834   8.639 -0.6538 -0.3690 -1.1140
   17SAPC  H18R 2211   4.099   3.903   8.670 -0.5413 -1.2535  0.7099
   17SAPC  H18S 2212   3.926   3.894   8.629  0.6889  1.4569 -3.6879
   17SAPC  C219 2213   4.073   3.791   8.503  0.4953 -0.2279  0.2252
   17SAPC  H19R 2214   4.001   3.715   8.466  0.6731  0.0857 -0.7814
   17SAPC  H19S 2215   4.175   3.748   8.497  0.2488 -0.8690  0.5517
   17SAPC  C220 2216   4.089   3.917   8.405  0.9987 -0.0404 -0.3569
   17SAPC  H20R 2217   3.994   3.975   8.409  0.2999 -1.1502 -0.4183
   17SAPC  H20S 2218   4.106   3.901   8.296 -1.1108  2.2330 -1.1129
   17SAPC  H20T 2219   4.176   3.970   8.450  1.0976 -1.3741  1.1014
   17SAPC   C33 2220   4.016   2.823   9.392  0.0069 -0.1267  0.3335
   17SAPC   H3X 2221   4.031   2.932   9.409 -1.7907  0.5525 -1.9299
   17SAPC   H3Y 2222   3.917   2.801   9.437 -0.2148 -1.0594 -0.5733
   17SAPC   C34 2223   4.000   2.816   9.243 -0.4194  0.4000 -0.1730
   17SAPC   H4X 2224   3.899   2.855   9.216 -1.2959 -1.2640  0.5712
   17SAPC   H4Y 2225   4.004   2.719   9.188 -0.0628 -0.0745  0.6771
   17SAPC   C35 2226   4.103   2.899   9.164  0.5056 -1.0219 -0.0481
   17SAPC   H5X 2227   4.203   2.859   9.189  0.5913 -0.0606  1.2087
   17SAPC   H5Y 2228   4.103   3.004   9.199  2.0574 -1.0056 -0.0241
   17SAPC   C36 2229   4.087   2.886   9.011  0.0887 -0.0455 -0.3789
   17SAPC   H6X 2230   3.984   2.921   8.987 -0.0478 -0.8274 -0.9768
   17SAPC   H6Y 2231   4.098   2.777   8.993 -0.1990 -0.1130 -0.1714
   17SAPC   C37 2232   4.190   2.960   8.927  0.3305 -0.4865 -0.7280
   17SAPC   H7X 2233   4.155   2.942   8.823  0.5819 -2.0339 -0.5771
   17SAPC   H7Y 2234   4.287   2.905   8.936  0.4335 -0.1183  0.5555
   17SAPC   C38 2235   4.185   3.112   8.942  0.2021 -0.0080 -0.2250
   17SAPC   H8X 2236   4.260   3.155   8.874 -0.7514 -0.8092 -1.8413
   17SAPC   H8Y 2237   4.217   3.142   9.044  0.1906 -2.0103  0.4099
   17SAPC   C39 2238   4.046   3.171   8.916  0.1550 -0.3037  0.4246
   17SAPC   H9X 2239   3.988   3.176   9.010  1.4545  1.8567  1.1817
   17SAPC   H9Y 2240   3.996   3.107   8.840  2.6162 -1.8213 -0.0456
   17SAPC  C310 2241   4.053   3.309   8.860 -0.2185 -0.1327  0.5959
   17SAPC  H10X 2242   4.135   3.359   8.916  0.8366 -1.0306 -0.0755
   17SAPC  H10Y 2243   3.958   3.360   8.885  0.4277  1.0911  0.6693
   17SAPC  C311 2244   4.082   3.317   8.711 -0.3810 -0.0431 -0.0230
   17SAPC  H11X 2245   4.142   3.228   8.683 -1.8138 -1.3452  0.8083
   17SAPC  H11Y 2246   4.144   3.405   8.689  0.6220 -1.0614 -1.4435
   17SAPC  C312 2247   3.949   3.318   8.633  0.3842 -0.0738 -0.5150
   17SAPC  H12X 2248   3.887   3.404   8.665 -0.4371 -0.5278 -0.8330
   17SAPC  H12Y 2249   3.892   3.227   8.662 -2.4427  2.1634  1.5548
   17SAPC  C313 2250   3.974   3.334   8.482  0.0750 -0.3324 -0.6618
   17SAPC  H13X 2251   4.055   3.266   8.449 -0.1715  0.1347 -2.3513
   17SAPC  H13Y 2252   4.019   3.432   8.456 -0.3341  0.0433  0.0210
   17SAPC  C314 2253   3.844   3.310   8.398 -0.0624 -0.0271 -0.3974
   17SAPC  H14X 2254   3.774   3.395   8.410 -0.2435 -0.3504  0.9038
   17SAPC  H14Y 2255   3.811   3.208   8.428  3.3027 -1.3344 -0.6489
   17SAPC  C315 2256   3.890   3.296   8.251  0.6195 -0.1025  0.2445
   17SAPC  H15X 2257   3.953   3.205   8.245  1.6535  0.6564 -0.9730
   17SAPC  H15Y 2258   3.953   3.382   8.217 -2.4522  1.8129 -0.9862
   17SAPC  C316 2259   3.779   3.271   8.151 -0.9987  0.7703 -0.1674
   17SAPC  H16X 2260   3.727   3.367   8.129  0.2661  1.1451 -1.6421
   17SAPC  H16Y 2261   3.704   3.204   8.200  0.0220 -1.6169 -1.7084
   17SAPC  C317 2262   3.825   3.210   8.015 -0.1225  0.2584 -0.1662
   17SAPC  H17X 2263   3.875   3.111   8.024  1.7153  1.1586  0.0499
   17SAPC  H17Y 2264   3.901   3.276   7.969 -1.1650  0.6413 -1.3890
   17SAPC  C318 2265   3.705   3.194   7.921  0.1236 -0.4890  0.4924
   17SAPC  H18X 2266   3.620   3.143   7.971 -0.2559 -0.2350  0.1149
   17SAPC  H18Y 2267   3.669   3.294   7.889 -0.2874 -0.9927 -0.6369
   17SAPC  H18Z 2268   3.730   3.124   7.839 -2.2131 -0.5410 -0.2402
   18SAPC     N 2269   4.331   2.343  10.185  0.1520 -0.0998 -0.4765
   18SAPC   C12 2270   4.312   2.400  10.041  0.2524 -0.0536  0.1138
   18SAPC  H12A 2271   4.220   2.457  10.036  1.2854  1.5691 -2.0559
   18SAPC  H12B 2272   4.292   2.316   9.976  0.8620 -0.0564 -0.0743
   18SAPC   C13 2273   4.203   2.287  10.248 -0.5952  0.0383  0.4982
   18SAPC  H13A 2274   4.180   2.185  10.219  0.6557  0.1790 -1.1554
   18SAPC  H13B 2275   4.206   2.300  10.356  0.1112 -0.7919  0.5939
   18SAPC  H13C 2276   4.118   2.345  10.218 -2.1019 -0.9342  2.5812
   18SAPC   C14 2277   4.440   2.245  10.204 -0.3127  0.7161 -0.2659
   18SAPC  H14A 2278   4.532   2.279  10.159 -1.2671 -0.7913 -3.7085
   18SAPC  H14B 2279   4.462   2.221  10.307  0.9743  1.6343 -0.3073
   18SAPC  H14C 2280   4.421   2.148  10.158 -0.9746  1.4449 -1.5882
   18SAPC   C15 2281   4.360   2.463  10.271  0.0626 -0.3068 -0.2811
   18SAPC  H15A 2282   4.382   2.437  10.374  0.6288 -0.9173 -0.5441
   18SAPC  H15B 2283   4.453   2.517  10.256 -0.2306  0.4896  0.6950
   18SAPC  H15C 2284   4.278   2.530  10.253  1.0703  1.3473  0.9737
   18SAPC   C11 2285   4.432   2.478   9.978  0.0149 -0.4027  0.2803
   18SAPC  H11A 2286   4.441   2.566  10.046 -0.6412  1.2685 -1.6874
   18SAPC  H11B 2287   4.394   2.511   9.879  2.1371  0.1899 -0.4063
   18SAPC     P 2288   4.583   2.305   9.851 -0.1912 -0.5219  0.4307
   18SAPC   O13 2289   4.728   2.279   9.845  0.3649 -0.5875 -0.7510
   18SAPC   O14 2290   4.498   2.185   9.875  0.0816  0.0686 -0.3237
   18SAPC   O12 2291   4.550   2.400   9.977  0.1422  0.2174  0.0001
   18SAPC   O11 2292   4.535   2.382   9.720 -0.5803  0.4015  0.0549
   18SAPC    C1 2293   4.567   2.519   9.693 -0.0858  0.1400  0.1330
   18SAPC    HA 2294   4.470   2.574   9.689 -0.2428 -0.1713 -0.5831
   18SAPC    HB 2295   4.641   2.560   9.765  1.7390  0.2202 -1.7062
   18SAPC    C2 2296   4.628   2.531   9.547 -0.2460  0.1004  0.1607
   18SAPC    HS 2297   4.626   2.641   9.528 -0.1685  0.5571  2.5427
   18SAPC   O21 2298   4.543   2.450   9.452 -0.6531  0.2659  0.1024
   18SAPC   C21 2299   4.412   2.455   9.447 -0.3240  1.1626 -0.1438
   18SAPC   O22 2300   4.335   2.525   9.511  0.0427  0.1062  0.1114
   18SAPC   C22 2301   4.362   2.357   9.338 -0.2987 -0.5170  0.9489
   18SAPC   H2R 2302   4.441   2.321   9.269  0.4328  1.3701  0.7444
   18SAPC   H2S 2303   4.297   2.275   9.375  1.2599 -2.1842  0.1225
   18SAPC    C3 2304   4.772   2.472   9.533  0.7420 -0.9270  0.4393
   18SAPC    HX 2305   4.758   2.362   9.538  0.9987 -1.0712 -1.1716
   18SAPC    HY 2306   4.846   2.496   9.612  0.0353 -0.8151  1.0713
   18SAPC   O31 2307   4.823   2.512   9.408 -0.2260  0.1868  0.5184
   18SAPC   C31 2308   4.945   2.566   9.391  0.5128  0.1097 -0.4436
   18SAPC   O32 2309   5.014   2.614   9.475 -0.1167  0.0440  0.0014
   18SAPC   C32 2310   4.980   2.584   9.244  0.2782  0.6559 -0.0756
   18SAPC   H2X 2311   5.044   2.504   9.202 -0.3835  0.2747 -0.3680
   18SAPC   H2Y 2312   5.040   2.676   9.230  0.8116  0.8207  2.6544
   18SAPC   C23 2313   4.265   2.425   9.233  0.0435 -0.1140 -0.2417
   18SAPC   H3R 2314   4.180   2.471   9.288 -1.0448  0.4146 -2.2284
   18SAPC   H3S 2315   4.211   2.349   9.173  1.9324 -1.1676 -0.6736
   18SAPC   C24 2316   4.343   2.522   9.146 -0.0839 -0.2944 -0.0182
   18SAPC   H4R 2317   4.419   2.579   9.204  1.8854  0.6606 -3.3012
   18SAPC   H4S 2318   4.273   2.595   9.099 -0.2002 -0.7472 -0.5595
   18SAPC   C25 2319   4.416   2.454   9.033  0.1206  0.4808 -0.3329
   18SAPC   H5R 2320   4.420   2.346   9.053 -1.8632  1.0554  4.4455
   18SAPC   C26 2321   4.464   2.515   8.919  0.5394 -0.3671  0.5453
   18SAPC   H6R 2322   4.538   2.463   8.856  0.4393 -1.3637  1.2222
   18SAPC   C27 2323   4.466   2.661   8.888 -0.0393  0.1996 -0.5291
   18SAPC   H7R 2324   4.498   2.713   8.981  0.4335 -1.8040  0.4647
   18SAPC   H7S 2325   4.360   2.692   8.871 -0.5396 -0.9661  0.3757
   18SAPC   C28 2326   4.550   2.693   8.767 -0.0535 -0.4683  0.0187
   18SAPC   H8R 2327   4.635   2.762   8.774 -0.5182  0.4443 -2.3460
   18SAPC   C29 2328   4.522   2.646   8.643 -0.5861 -0.0323 -0.6417
   18SAPC   H9R 2329   4.602   2.665   8.570 -0.3137 -0.7075 -0.5287
   18SAPC  C210 2330   4.410   2.560   8.587 -0.1649 -0.2222  0.0995
   18SAPC  H10R 2331   4.341   2.616   8.520  0.9011  1.4735  0.3570
   18SAPC  H10S 2332   4.328   2.545   8.661 -2.0556  0.0096 -1.8409
   18SAPC  C211 2333   4.453   2.427   8.527  0.3653  0.4919 -0.2152
   18SAPC  H11R 2334   4.439   2.341   8.594  1.0027 -0.1673 -0.8988
   18SAPC  C212 2335   4.508   2.400   8.411 -1.0163  0.3900 -0.0115
   18SAPC  H12R 2336   4.524   2.294   8.386  1.7626  0.2370  1.9205
   18SAPC  C213 2337   4.545   2.511   8.318 -0.0047  0.2316  0.0817
   18SAPC  H13R 2338   4.556   2.606   8.375  0.6940 -0.5589  1.2980
   18SAPC  H13S 2339   4.473   2.542   8.239  0.2621 -1.4244 -0.8421
   18SAPC  C214 2340   4.676   2.476   8.258 -0.4556 -0.0719  0.5925
   18SAPC  H14R 2341   4.707   2.371   8.252 -1.4803 -0.4038  0.9090
   18SAPC  C215 2342   4.750   2.571   8.195  0.8003  0.0890 -0.5292
   18SAPC  H15R 2343   4.849   2.546   8.154 -0.0514 -1.3026 -1.8081
   18SAPC  C216 2344   4.709   2.723   8.177 -0.7339 -0.1849 -0.8247
   18SAPC  H16R 2345   4.801   2.781   8.151 -1.3769 -0.7570 -5.2054
   18SAPC  H16S 2346   4.678   2.764   8.275 -0.2571 -2.1791  0.1971
   18SAPC  C217 2347   4.609   2.744   8.064  0.4777 -0.4089 -1.0160
   18SAPC  H17R 2348   4.512   2.720   8.112 -0.1905  0.6591 -1.7885
   18SAPC  H17S 2349   4.637   2.699   7.967 -1.0456  0.7619 -2.0340
   18SAPC  C218 2350   4.607   2.900   8.037 -0.2847  0.3165 -0.3055
   18SAPC  H18R 2351   4.696   2.928   7.978  0.9029  0.6278  1.5492
   18SAPC  H18S 2352   4.613   2.964   8.128  0.6744  1.6096 -1.2500
   18SAPC  C219 2353   4.479   2.939   7.961 -0.9972  0.2652  0.3468
   18SAPC  H19R 2354   4.389   2.930   8.025 -2.3129  0.1850 -1.4538
   18SAPC  H19S 2355   4.471   2.870   7.875 -1.1206 -0.9695  1.3222
   18SAPC  C220 2356   4.476   3.088   7.936 -0.0282  0.4610 -0.3314
   18SAPC  H20R 2357   4.381   3.102   7.879  0.1381  1.0306 -0.4718
   18SAPC  H20S 2358   4.556   3.109   7.862 -0.8891  0.0186 -1.4215
   18SAPC  H20T 2359   4.481   3.137   8.035 -0.6448 -1.4418  0.6849
   18SAPC   C33 2360   4.864   2.610   9.154 -0.2587 -0.5480  1.0927
   18SAPC   H3X 2361   4.843   2.718   9.152 -0.6374 -0.6156 -0.7198
   18SAPC   H3Y 2362   4.772   2.553   9.178 -0.2317  0.1145  2.8943
   18SAPC   C34 2363   4.901   2.563   9.012 -0.2769  0.0722  0.1117
   18SAPC   H4X 2364   4.811   2.560   8.947 -0.3902 -0.2842  0.2796
   18SAPC   H4Y 2365   4.930   2.456   9.021 -1.7636 -0.6149 -2.3185
   18SAPC   C35 2366   5.017   2.622   8.941 -0.0877 -0.2170 -0.3522
   18SAPC   H5X 2367   5.030   2.559   8.850  1.2986 -0.2121 -0.1811
   18SAPC   H5Y 2368   5.102   2.612   9.011 -0.8155 -0.4140  0.5202
   18SAPC   C36 2369   4.989   2.769   8.896  1.5945 -0.1362  0.3652
   18SAPC   H6X 2370   5.019   2.833   8.982  1.3661 -0.7656  0.9269
   18SAPC   H6Y 2371   4.880   2.780   8.880  1.8909 -0.4839 -2.2361
   18SAPC   C37 2372   5.068   2.816   8.769  0.0221 -0.3077  0.0536
   18SAPC   H7X 2373   5.066   2.729   8.701  0.1211 -1.9187  2.0073
   18SAPC   H7Y 2374   5.175   2.830   8.796 -0.6254  1.9887  1.7522
   18SAPC   C38 2375   5.019   2.946   8.698  0.0408 -0.4300  0.3867
   18SAPC   H8X 2376   5.103   3.014   8.672 -1.4192  1.0144 -0.7460
   18SAPC   H8Y 2377   4.949   3.000   8.765  0.8025  1.4499 -0.2599
   18SAPC   C39 2378   4.951   2.912   8.560  0.3946  0.0668 -0.0818
   18SAPC   H9X 2379   4.860   2.850   8.577  0.2922 -0.0514 -0.9654
   18SAPC   H9Y 2380   5.011   2.844   8.496  0.4507 -0.8509  0.9158
   18SAPC  C310 2381   4.915   3.029   8.474 -0.4967 -0.3002  0.1784
   18SAPC  H10X 2382   5.001   3.099   8.477  0.0233 -0.6167 -3.4084
   18SAPC  H10Y 2383   4.841   3.093   8.527  2.6311  1.1644  3.2566
   18SAPC  C311 2384   4.879   3.007   8.329 -0.1897 -0.1209  0.3700
   18SAPC  H11X 2385   4.800   2.929   8.325 -0.0341 -0.2659  0.1201
   18SAPC  H11Y 2386   4.966   2.965   8.273 -1.0682 -0.3880 -0.8277
   18SAPC  C312 2387   4.828   3.130   8.247  0.3438 -0.4882 -0.2802
   18SAPC  H12X 2388   4.738   3.178   8.290  0.1280 -0.0388 -1.2114
   18SAPC  H12Y 2389   4.802   3.094   8.145 -2.0161 -2.1405  0.8017
   18SAPC  C313 2390   4.941   3.240   8.232 -0.2714 -0.2099 -0.1791
   18SAPC  H13X 2391   5.034   3.186   8.201  0.1037  0.7029 -0.7109
   18SAPC  H13Y 2392   4.948   3.287   8.332 -0.1107  2.1901 -1.2352
   18SAPC  C314 2393   4.917   3.337   8.119  0.2815 -0.4584  0.2030
   18SAPC  H14X 2394   4.820   3.385   8.143  0.2786 -1.3044  2.0304
   18SAPC  H14Y 2395   4.912   3.286   8.020  0.8222 -0.7003  0.2969
   18SAPC  C315 2396   5.026   3.443   8.131  0.5059 -0.1103  0.4941
   18SAPC  H15X 2397   5.018   3.485   8.234  1.0403 -0.5948  0.7346
   18SAPC  H15Y 2398   4.993   3.532   8.072  1.7446 -0.0614 -0.1442
   18SAPC  C316 2399   5.164   3.397   8.105  0.4776 -0.0240 -0.7212
   18SAPC  H16X 2400   5.194   3.328   8.187  1.1029  0.3696 -0.6047
   18SAPC  H16Y 2401   5.238   3.479   8.120  1.2735 -0.9376  0.6285
   18SAPC  C317 2402   5.193   3.339   7.966  0.5569 -0.3474  0.4489
   18SAPC  H17X 2403   5.144   3.240   7.952 -1.6807  0.7972 -0.4667
   18SAPC  H17Y 2404   5.303   3.331   7.969  0.5539 -0.5470  0.0466
   18SAPC  C318 2405   5.143   3.427   7.848 -0.4643  0.6146 -0.4856
   18SAPC  H18X 2406   5.032   3.435   7.842 -0.3715  1.5109 -1.4484
   18SAPC  H18Y 2407   5.183   3.393   7.750 -0.0547  0.3603 -0.2311
   18SAPC  H18Z 2408   5.190   3.528   7.855 -0.5332  0.6414 -0.4099
   19SAPC     N 2409   4.505   6.541  10.162  0.4677  0.5622  0.7793
   19SAPC   C12 2410   4.461   6.507  10.022  0.1433 -0.6592  0.0056
   19SAPC  H12A 2411   4.365   6.459  10.012 -1.2692  2.0449 -0.4817
   19SAPC  H12B 2412   4.535   6.451   9.967  2.1268  2.3478 -0.6226
   19SAPC   C13 2413   4.646   6.593  10.158 -0.0145  0.5052 -0.0474
   19SAPC  H13A 2414   4.653   6.690  10.112 -0.3886  0.9711  0.8707
   19SAPC  H13B 2415   4.691   6.600  10.256 -0.5167  0.2974  0.2017
   19SAPC  H13C 2416   4.698   6.515  10.105 -0.6522 -0.9641  1.4073
   19SAPC   C14 2417   4.415   6.651  10.222 -0.1082 -0.2785  0.1749
   19SAPC  H14A 2418   4.415   6.745  10.169  2.4113 -0.1724  0.2150
   19SAPC  H14B 2419   4.317   6.608  10.230  0.2569 -0.9363  1.4316
   19SAPC  H14C 2420   4.447   6.671  10.323 -0.1166 -0.5030  0.2216
   19SAPC   C15 2421   4.510   6.428  10.256  0.2613 -0.0890  0.4035
   19SAPC  H15A 2422   4.548   6.452  10.354  0.8407  0.4070  0.0646
   19SAPC  H15B 2423   4.412   6.385  10.254  0.6622 -1.0244 -1.1098
   19SAPC  H15C 2424   4.572   6.345  10.224 -1.4000 -1.3486  0.3251
   19SAPC   C11 2425   4.437   6.632   9.921 -0.4913  0.8055  0.1747
   19SAPC  H11A 2426   4.372   6.704   9.975 -1.5671  0.7660 -1.0132
   19SAPC  H11B 2427   4.388   6.600   9.827 -0.2434  0.0290  0.3015
   19SAPC     P 2428   4.654   6.614   9.790 -0.6513 -0.3162 -0.1545
   19SAPC   O13 2429   4.786   6.683   9.785  0.4533 -0.1953 -0.2538
   19SAPC   O14 2430   4.662   6.474   9.840  0.3976 -0.0541 -0.3439
   19SAPC   O12 2431   4.564   6.694   9.888 -0.2638 -0.1125 -0.8240
   19SAPC   O11 2432   4.575   6.627   9.647 -0.5532 -0.0975  0.5718
   19SAPC    C1 2433   4.573   6.754   9.581  0.1794 -0.7577  0.3705
   19SAPC    HA 2434   4.662   6.819   9.589 -1.7204  2.4578 -2.0436
   19SAPC    HB 2435   4.568   6.736   9.472  0.5790 -0.7777  0.3536
   19SAPC    C2 2436   4.448   6.838   9.618  0.1165  0.1352  0.0818
   19SAPC    HS 2437   4.454   6.849   9.728 -1.0439  0.1347  0.1582
   19SAPC   O21 2438   4.326   6.758   9.593  0.3837 -0.0435 -0.3167
   19SAPC   C21 2439   4.223   6.789   9.665 -0.5745 -0.2435 -0.0278
   19SAPC   O22 2440   4.220   6.875   9.750 -0.2418  0.1542  0.4023
   19SAPC   C22 2441   4.107   6.696   9.629  0.8311  0.5064  0.2106
   19SAPC   H2R 2442   4.148   6.596   9.604  1.4861  0.6592  0.6333
   19SAPC   H2S 2443   4.052   6.686   9.724 -1.2977 -0.7986 -1.0917
   19SAPC    C3 2444   4.435   6.975   9.544 -0.1051  0.4290 -0.6804
   19SAPC    HX 2445   4.532   7.027   9.560 -0.3284  0.6414 -0.0107
   19SAPC    HY 2446   4.355   7.032   9.595  0.5973  0.5235  0.3400
   19SAPC   O31 2447   4.411   6.953   9.403 -0.1375 -0.1099 -0.0824
   19SAPC   C31 2448   4.303   7.006   9.356 -0.5132  0.0139  0.3534
   19SAPC   O32 2449   4.225   7.078   9.415  0.5497  0.0863  0.4828
   19SAPC   C32 2450   4.278   6.970   9.212 -0.3190 -0.2649 -0.0255
   19SAPC   H2X 2451   4.308   6.863   9.201 -2.2880 -1.4579  4.0704
   19SAPC   H2Y 2452   4.344   7.040   9.157 -0.1535  0.2335  0.7772
   19SAPC   C23 2453   4.030   6.760   9.517 -0.5730 -0.0781 -0.3378
   19SAPC   H3R 2454   4.100   6.780   9.433  0.7151 -2.8684 -0.0428
   19SAPC   H3S 2455   3.972   6.848   9.551 -2.4478 -0.6010 -2.0231
   19SAPC   C24 2456   3.911   6.668   9.472 -1.0899 -0.4282  0.8284
   19SAPC   H4R 2457   3.848   6.644   9.561  0.2252 -1.5666  1.5000
   19SAPC   H4S 2458   3.956   6.569   9.450 -1.9857 -0.4176 -1.3340
   19SAPC   C25 2459   3.831   6.714   9.350 -0.8086 -0.2235 -0.0473
   19SAPC   H5R 2460   3.773   6.807   9.364 -0.4547 -0.3795  3.4140
   19SAPC   C26 2461   3.829   6.649   9.229  0.1189  0.4985 -0.3330
   19SAPC   H6R 2462   3.780   6.700   9.145 -0.8225  1.0190  0.5227
   19SAPC   C27 2463   3.910   6.536   9.183  0.6884  0.0986 -0.7719
   19SAPC   H7R 2464   3.996   6.529   9.252 -1.2266 -0.2715  1.7182
   19SAPC   H7S 2465   3.941   6.549   9.077 -1.1978 -1.2328 -1.5408
   19SAPC   C28 2466   3.846   6.409   9.219 -0.3464 -0.3157  0.2824
   19SAPC   H8R 2467   3.794   6.409   9.317 -1.3437  1.6663 -0.2026
   19SAPC   C29 2468   3.861   6.297   9.151  0.3833  0.0195  0.1395
   19SAPC   H9R 2469   3.805   6.210   9.186  3.0351 -0.8108  2.8179
   19SAPC  C210 2470   3.942   6.281   9.025  1.0036 -0.3030  0.2465
   19SAPC  H10R 2471   4.046   6.320   9.030  1.1932 -0.2058 -2.5918
   19SAPC  H10S 2472   3.904   6.350   8.948 -1.4679 -0.6777  1.0538
   19SAPC  C211 2473   3.961   6.138   8.968 -0.7606 -0.2840 -0.0533
   19SAPC  H11R 2474   3.947   6.061   9.045  1.1122  0.6378  1.2941
   19SAPC  C212 2475   3.970   6.097   8.835  0.1636 -0.2670 -1.0446
   19SAPC  H12R 2476   3.997   5.992   8.814  1.1227 -0.1615 -0.4061
   19SAPC  C213 2477   3.990   6.191   8.719 -0.0166  0.0761 -0.0610
   19SAPC  H13R 2478   4.088   6.240   8.739  1.0291 -0.3483 -3.4701
   19SAPC  H13S 2479   3.928   6.281   8.738 -0.5850 -0.6028  1.4304
   19SAPC  C214 2480   3.989   6.135   8.576 -0.0480 -0.3931  0.0281
   19SAPC  H14R 2481   4.016   6.029   8.570  1.5050  0.0212 -0.7273
   19SAPC  C215 2482   3.946   6.198   8.464  0.5031 -0.3096  0.1809
   19SAPC  H15R 2483   3.950   6.144   8.368  1.0751 -2.9960  1.6226
   19SAPC  C216 2484   3.888   6.336   8.445  0.0993 -0.9465  0.3515
   19SAPC  H16R 2485   3.890   6.388   8.543 -0.6674  0.5039 -0.3690
   19SAPC  H16S 2486   3.784   6.315   8.414 -0.3446  1.9299 -0.3813
   19SAPC  C217 2487   3.962   6.426   8.341 -0.4184  0.0047  0.2465
   19SAPC  H17R 2488   4.069   6.423   8.370 -0.3218  0.4408 -0.0577
   19SAPC  H17S 2489   3.939   6.534   8.355  0.4552  0.4822 -1.6623
   19SAPC  C218 2490   3.934   6.393   8.191  0.2169 -0.0766  0.7641
   19SAPC  H18R 2491   3.834   6.349   8.169  0.7630 -1.4890  1.0162
   19SAPC  H18S 2492   3.999   6.310   8.156 -0.9112  0.2917 -2.6364
   19SAPC  C219 2493   3.950   6.522   8.097  0.2432  0.0328 -0.1612
   19SAPC  H19R 2494   4.051   6.518   8.050 -0.0520 -0.7928 -0.7498
   19SAPC  H19S 2495   3.960   6.615   8.157  0.9513  1.3949 -2.2773
   19SAPC  C220 2496   3.844   6.542   7.989 -0.3694  0.3372  0.5827
   19SAPC  H20R 2497   3.744   6.520   8.031 -0.7814  0.5178 -0.2952
   19SAPC  H20S 2498   3.859   6.462   7.913  1.0557 -0.4693  1.6612
   19SAPC  H20T 2499   3.864   6.643   7.948  3.6943 -0.5108 -0.0131
   19SAPC   C33 2500   4.134   7.001   9.160 -0.5300 -0.2575  0.5109
   19SAPC   H3X 2501   4.109   7.108   9.176  0.9502  0.4278 -1.3739
   19SAPC   H3Y 2502   4.056   6.934   9.201 -0.8301  0.3821  1.0197
   19SAPC   C34 2503   4.137   6.975   9.008  0.1342 -0.7974 -0.4370
   19SAPC   H4X 2504   4.154   6.866   8.999 -0.8005 -1.2101  2.0754
   19SAPC   H4Y 2505   4.214   7.039   8.959 -1.2991  0.6100 -0.9154
   19SAPC   C35 2506   3.994   7.009   8.960  0.2822 -0.8903  0.5348
   19SAPC   H5X 2507   3.974   7.114   8.990  0.7029 -0.0032 -2.0114
   19SAPC   H5Y 2508   3.921   6.947   9.015 -0.5389 -0.4274 -0.0131
   19SAPC   C36 2509   3.973   6.999   8.807  0.1722  0.6304 -0.1918
   19SAPC   H6X 2510   4.054   7.061   8.762 -0.1861  1.1347 -0.1477
   19SAPC   H6Y 2511   3.875   7.044   8.778  0.4407  0.5658 -1.2627
   19SAPC   C37 2512   3.984   6.851   8.767 -0.2784  0.0868 -0.0520
   19SAPC   H7X 2513   3.911   6.797   8.830 -2.0459  2.3986  0.0166
   19SAPC   H7Y 2514   4.088   6.817   8.789 -0.8841 -0.5055  2.0993
   19SAPC   C38 2515   3.958   6.824   8.616  0.0756 -0.3755 -0.2593
   19SAPC   H8X 2516   3.861   6.871   8.588  0.0271 -0.4317 -0.1857
   19SAPC   H8Y 2517   3.942   6.714   8.609 -0.8940 -0.2523 -0.2091
   19SAPC   C39 2518   4.069   6.874   8.523 -0.0933 -0.7116  0.1943
   19SAPC   H9X 2519   4.168   6.832   8.552  1.1332  1.7507 -0.1124
   19SAPC   H9Y 2520   4.085   6.984   8.521 -0.1232 -0.7032 -1.5999
   19SAPC  C310 2521   4.059   6.835   8.379  0.3481 -0.1145 -0.1651
   19SAPC  H10X 2522   3.960   6.864   8.336  0.8526  1.3719 -0.3741
   19SAPC  H10Y 2523   4.072   6.725   8.375 -0.8764 -0.2810 -0.0753
   19SAPC  C311 2524   4.171   6.889   8.293  0.9774 -0.2669  0.4565
   19SAPC  H11X 2525   4.273   6.859   8.323  0.9846  1.7060  2.6920
   19SAPC  H11Y 2526   4.165   7.000   8.295 -1.8700 -0.3169 -0.3683
   19SAPC  C312 2527   4.147   6.845   8.150 -0.0968  0.1654 -0.2241
   19SAPC  H12X 2528   4.048   6.883   8.116  0.1357  0.1145 -0.9749
   19SAPC  H12Y 2529   4.139   6.735   8.161  0.2820  0.4158  3.8110
   19SAPC  C313 2530   4.249   6.889   8.055 -0.3428  0.3184  0.0855
   19SAPC  H13X 2531   4.348   6.842   8.076 -1.6188 -1.7862  1.8317
   19SAPC  H13Y 2532   4.253   7.000   8.066 -0.2073  0.2348  0.9378
   19SAPC  C314 2533   4.209   6.857   7.910  0.6559  0.0971 -0.1079
   19SAPC  H14X 2534   4.117   6.909   7.875 -0.2983 -1.7208 -0.3976
   19SAPC  H14Y 2535   4.202   6.748   7.891 -2.2362  0.2843 -0.5367
   19SAPC  C315 2536   4.311   6.920   7.814 -0.2231 -0.2565  0.2427
   19SAPC  H15X 2537   4.416   6.889   7.832  0.8398  3.1462  0.7052
   19SAPC  H15Y 2538   4.332   7.021   7.855  0.4166 -1.4381  3.0866
   19SAPC  C316 2539   4.285   6.924   7.669 -0.0624  1.0370 -0.6283
   19SAPC  H16X 2540   4.377   6.970   7.627  0.7363  0.9706  0.9736
   19SAPC  H16Y 2541   4.211   7.005   7.656 -0.9791  0.1890 -0.8810
   19SAPC  C317 2542   4.252   6.783   7.609 -0.3759  0.5797  0.5458
   19SAPC  H17X 2543   4.149   6.761   7.643  0.1120 -0.6170  1.3295
   19SAPC  H17Y 2544   4.324   6.704   7.643 -2.0003 -1.3790 -0.3503
   19SAPC  C318 2545   4.276   6.770   7.462 -0.1006  0.5014  0.1640
   19SAPC  H18X 2546   4.345   6.852   7.435  0.6830  0.0320  0.7015
   19SAPC  H18Y 2547   4.182   6.799   7.410 -0.5985 -1.6831 -0.2960
   19SAPC  H18Z 2548   4.312   6.674   7.419 -1.5246  0.4248 -0.9736
   20SAPC     N 2549   4.703   0.316   9.976  1.0469 -0.6139 -0.3320
   20SAPC   C12 2550   4.576   0.360   9.910  0.4060  0.0077 -0.4634
   20SAPC  H12A 2551   4.598   0.459   9.873  3.3069 -1.1438 -2.2126
   20SAPC  H12B 2552   4.490   0.380   9.971  0.9062  1.3712 -0.1764
   20SAPC   C13 2553   4.824   0.321   9.890  0.4812  0.1728  0.0250
   20SAPC  H13A 2554   4.847   0.418   9.849  2.1897 -0.1645  0.1106
   20SAPC  H13B 2555   4.914   0.298   9.945  2.3872  0.1805 -2.9304
   20SAPC  H13C 2556   4.817   0.258   9.803  1.6400 -0.5312  0.4187
   20SAPC   C14 2557   4.731   0.405  10.098  0.4080 -0.8464 -0.1234
   20SAPC  H14A 2558   4.746   0.511  10.084  1.3433 -1.1517 -1.7687
   20SAPC  H14B 2559   4.646   0.400  10.164 -1.5414  0.5413 -2.3519
   20SAPC  H14C 2560   4.817   0.368  10.152 -0.2196 -2.6690 -0.2895
   20SAPC   C15 2561   4.690   0.180  10.037 -1.0209 -0.1005  0.4446
   20SAPC  H15A 2562   4.679   0.107   9.959 -0.3613 -1.1897  1.3303
   20SAPC  H15B 2563   4.773   0.146  10.098 -0.8728 -0.9567 -0.2113
   20SAPC  H15C 2564   4.605   0.190  10.104  0.6685 -0.3728  2.7620
   20SAPC   C11 2565   4.527   0.263   9.800  0.0354  0.0765 -0.2780
   20SAPC  H11A 2566   4.604   0.209   9.740 -1.1914 -3.2289  0.8697
   20SAPC  H11B 2567   4.474   0.332   9.731  1.2565  1.2875 -0.0652
   20SAPC     P 2568   4.284   0.194   9.901  0.2235 -0.6509  0.3325
   20SAPC   O13 2569   4.233   0.094   9.994  0.4706  0.2473 -0.4767
   20SAPC   O14 2570   4.287   0.332   9.955  0.3521  0.5139  0.6558
   20SAPC   O12 2571   4.439   0.163   9.857 -0.3386  0.4560 -0.4711
   20SAPC   O11 2572   4.203   0.199   9.761 -0.2261 -0.3963  0.7851
   20SAPC    C1 2573   4.188   0.320   9.679  0.4184 -0.5373 -0.5987
   20SAPC    HA 2574   4.272   0.390   9.701 -0.4207  1.5928 -3.6188
   20SAPC    HB 2575   4.192   0.297   9.570 -1.8884  4.1613 -1.9366
   20SAPC    C2 2576   4.062   0.403   9.706  0.1833  0.3995 -0.4396
   20SAPC    HS 2577   4.064   0.411   9.817  0.8624  3.3120 -0.5794
   20SAPC   O21 2578   3.948   0.328   9.647  0.0350  0.0471 -0.0721
   20SAPC   C21 2579   3.832   0.366   9.694  0.2805 -0.7142  0.0077
   20SAPC   O22 2580   3.815   0.425   9.797  0.1180 -0.1084 -0.9761
   20SAPC   C22 2581   3.720   0.313   9.604 -0.2638  0.6342 -0.8645
   20SAPC   H2R 2582   3.754   0.216   9.560 -1.7807  0.3081 -1.3843
   20SAPC   H2S 2583   3.633   0.295   9.670 -0.1738 -0.8634 -1.1019
   20SAPC    C3 2584   4.070   0.545   9.653 -0.2670 -1.1199 -0.5594
   20SAPC    HX 2585   4.160   0.600   9.691 -0.9653  0.3648 -0.9792
   20SAPC    HY 2586   3.990   0.600   9.706  1.1120  0.3971  0.0657
   20SAPC   O31 2587   4.053   0.565   9.510 -0.1066 -0.3209  0.6514
   20SAPC   C31 2588   4.164   0.569   9.437 -0.1919 -0.6140  0.6392
   20SAPC   O32 2589   4.280   0.559   9.478 -0.0221 -0.6076 -0.1390
   20SAPC   C32 2590   4.130   0.558   9.291  0.2173 -0.3496 -0.4197
   20SAPC   H2X 2591   4.040   0.493   9.280  0.2410 -0.6794  1.0770
   20SAPC   H2Y 2592   4.217   0.514   9.238 -0.1713  0.3565 -1.6900
   20SAPC   C23 2593   3.695   0.413   9.488  0.3314 -0.2511 -0.0530
   20SAPC   H3R 2594   3.691   0.521   9.510 -0.3865  0.3897 -2.8432
   20SAPC   H3S 2595   3.592   0.379   9.463  0.2869 -1.3700  1.4997
   20SAPC   C24 2596   3.792   0.394   9.370 -0.1457  0.8234 -0.4064
   20SAPC   H4R 2597   3.793   0.286   9.348 -2.9476  0.4662  0.8138
   20SAPC   H4S 2598   3.895   0.409   9.408 -0.5333  0.8890  0.6446
   20SAPC   C25 2599   3.763   0.492   9.265 -1.0604 -0.1595  0.7118
   20SAPC   H5R 2600   3.792   0.595   9.289 -3.8041  1.0560 -0.7256
   20SAPC   C26 2601   3.724   0.462   9.144 -0.3499  0.0409 -0.5026
   20SAPC   H6R 2602   3.729   0.542   9.068 -1.0337 -0.4709 -1.0953
   20SAPC   C27 2603   3.712   0.329   9.078  0.2700  0.5358  0.9005
   20SAPC   H7R 2604   3.650   0.334   8.986  1.1693  2.9028  0.3465
   20SAPC   H7S 2605   3.663   0.253   9.142  2.2247 -1.1275  0.5266
   20SAPC   C28 2606   3.841   0.277   9.023 -0.1936  0.0207 -0.6301
   20SAPC   H8R 2607   3.905   0.216   9.089 -1.9773 -0.8873  0.3131
   20SAPC   C29 2608   3.888   0.308   8.899 -0.0307  0.0572 -0.4977
   20SAPC   H9R 2609   3.984   0.266   8.868  0.7722  1.2172  0.3221
   20SAPC  C210 2610   3.827   0.399   8.793  0.4997 -0.3774 -0.1250
   20SAPC  H10R 2611   3.835   0.507   8.821 -2.1828 -0.0435 -0.3946
   20SAPC  H10S 2612   3.717   0.384   8.788 -0.1729  3.0389  1.4861
   20SAPC  C211 2613   3.896   0.387   8.657  0.2301 -0.5128 -0.0500
   20SAPC  H11R 2614   3.981   0.455   8.642  1.5215 -1.7064  1.4429
   20SAPC  C212 2615   3.859   0.330   8.548 -0.1823 -0.2863  0.8161
   20SAPC  H12R 2616   3.924   0.333   8.459  0.9619 -0.1874  1.6453
   20SAPC  C213 2617   3.734   0.244   8.533  0.4655 -0.0148  0.2130
   20SAPC  H13R 2618   3.671   0.253   8.442  0.3151 -0.8458  0.2241
   20SAPC  H13S 2619   3.657   0.257   8.612 -0.4253  0.0306 -0.6421
   20SAPC  C214 2620   3.791   0.100   8.549 -0.0508 -0.4637  0.1964
   20SAPC  H14R 2621   3.780   0.054   8.649  0.0798 -0.2491  0.3096
   20SAPC  C215 2622   3.855   0.038   8.448  0.2338  0.1234 -0.0968
   20SAPC  H15R 2623   3.897  -0.062   8.468 -1.1053 -0.2557  0.9210
   20SAPC  C216 2624   3.893   0.092   8.311 -0.5251  0.9962 -0.3039
   20SAPC  H16R 2625   3.999   0.067   8.293 -1.1049  0.5025 -3.7287
   20SAPC  H16S 2626   3.889   0.203   8.302  1.8845  0.9800 -2.7369
   20SAPC  C217 2627   3.820   0.021   8.197 -0.2393 -0.0594  0.4654
   20SAPC  H17R 2628   3.711   0.041   8.210 -0.2409 -0.0159  0.3908
   20SAPC  H17S 2629   3.833  -0.089   8.195 -0.0427 -0.0374 -1.2032
   20SAPC  C218 2630   3.866   0.073   8.059  0.2072  0.0512  0.6734
   20SAPC  H18R 2631   3.972   0.043   8.046  0.9244  3.1383 -2.1652
   20SAPC  H18S 2632   3.855   0.184   8.066 -1.5272 -0.0650  0.4349
   20SAPC  C219 2633   3.791   0.026   7.929 -1.5491  0.3187  0.3506
   20SAPC  H19R 2634   3.686   0.059   7.938 -2.5730 -2.5058 -0.3604
   20SAPC  H19S 2635   3.791  -0.085   7.922  1.6997  0.2298 -0.0615
   20SAPC  C220 2636   3.840   0.099   7.802  0.3648  0.6226  0.8076
   20SAPC  H20R 2637   3.781   0.192   7.791 -1.1775 -0.4124 -0.0152
   20SAPC  H20S 2638   3.829   0.039   7.709  0.0738  3.2743 -0.9899
   20SAPC  H20T 2639   3.951   0.106   7.807  0.4938  0.0010 -0.6241
   20SAPC   C33 2640   4.089   0.701   9.235  0.7587  0.1358 -0.0953
   20SAPC   H3X 2641   4.176   0.769   9.246 -0.5047  1.8141 -0.0590
   20SAPC   H3Y 2642   4.012   0.739   9.305 -1.6027  1.6828 -3.2663
   20SAPC   C34 2643   4.035   0.703   9.095  0.3895 -0.5945  0.1289
   20SAPC   H4X 2644   4.012   0.805   9.058  0.2918 -0.9681 -0.8572
   20SAPC   H4Y 2645   3.946   0.637   9.090 -0.3806  0.4360 -0.1302
   20SAPC   C35 2646   4.130   0.647   8.980  0.1651  0.1614 -0.1842
   20SAPC   H5X 2647   4.116   0.536   8.981 -2.0519  0.3916  0.2123
   20SAPC   H5Y 2648   4.234   0.665   9.014  0.3138  0.7499 -0.9374
   20SAPC   C36 2649   4.109   0.693   8.837 -0.1035  0.1282 -0.0870
   20SAPC   H6X 2650   4.128   0.802   8.825  1.0762 -0.0724 -0.1663
   20SAPC   H6Y 2651   4.003   0.671   8.814  0.3568 -2.5598  0.0613
   20SAPC   C37 2652   4.193   0.622   8.734 -0.3942  0.0637 -0.1575
   20SAPC   H7X 2653   4.170   0.513   8.729  1.3392 -0.4471  1.5345
   20SAPC   H7Y 2654   4.303   0.634   8.744 -0.5821  1.8164  0.0583
   20SAPC   C38 2655   4.158   0.669   8.591  0.1355  0.4478  0.1339
   20SAPC   H8X 2656   4.198   0.772   8.577  1.6109 -0.2632 -1.2153
   20SAPC   H8Y 2657   4.048   0.667   8.577  0.1492 -2.5352 -0.0929
   20SAPC   C39 2658   4.204   0.577   8.471 -0.6378 -0.3107 -0.3536
   20SAPC   H9X 2659   4.192   0.467   8.478  1.7305 -0.5034  2.7241
   20SAPC   H9Y 2660   4.312   0.600   8.481 -1.0029  0.8945  1.1651
   20SAPC  C310 2661   4.155   0.614   8.331  0.0549 -0.1383 -0.0993
   20SAPC  H10X 2662   4.146   0.724   8.323 -1.1011 -0.1938  0.3565
   20SAPC  H10Y 2663   4.054   0.577   8.306 -0.2408  1.2317 -1.0381
   20SAPC  C311 2664   4.237   0.542   8.221  0.2258  0.4565  0.5032
   20SAPC  H11X 2665   4.228   0.432   8.228 -0.4249  0.1174 -3.3644
   20SAPC  H11Y 2666   4.344   0.571   8.232  0.6882 -1.4728  1.6527
   20SAPC  C312 2667   4.206   0.588   8.071  0.1739  0.8260  0.0110
   20SAPC  H12X 2668   4.232   0.695   8.060 -1.7937  1.5282  1.5400
   20SAPC  H12Y 2669   4.098   0.572   8.047  0.4838 -0.7426 -0.4950
   20SAPC  C313 2670   4.273   0.490   7.974 -0.5112  0.7303  0.4542
   20SAPC  H13X 2671   4.263   0.383   8.001  0.6827  0.4678 -0.0658
   20SAPC  H13Y 2672   4.382   0.510   7.981 -0.4799  0.6562  0.1812
   20SAPC  C314 2673   4.216   0.509   7.836  0.6091  0.6663 -0.6214
   20SAPC  H14X 2674   4.250   0.610   7.804  1.3253  0.5427 -0.2523
   20SAPC  H14Y 2675   4.105   0.505   7.842  0.6881 -0.6010  0.4004
   20SAPC  C315 2676   4.262   0.409   7.733  0.7223  0.5100 -0.0955
   20SAPC  H15X 2677   4.369   0.381   7.736  0.0728 -2.7642 -2.3278
   20SAPC  H15Y 2678   4.242   0.456   7.635 -1.5825 -1.4121 -0.6458
   20SAPC  C316 2679   4.187   0.277   7.731 -0.0973  0.5816  0.8535
   20SAPC  H16X 2680   4.084   0.310   7.703  0.2619  2.2033  1.3211
   20SAPC  H16Y 2681   4.186   0.235   7.834 -3.3812 -0.3793  0.5354
   20SAPC  C317 2682   4.247   0.161   7.648  0.1399  0.5456  0.0371
   20SAPC  H17X 2683   4.160   0.093   7.637  1.6048 -1.3202 -0.4171
   20SAPC  H17Y 2684   4.326   0.112   7.709  0.7457  1.8185  0.3071
   20SAPC  C318 2685   4.297   0.191   7.506  0.2627 -0.6077  0.3856
   20SAPC  H18X 2686   4.345   0.096   7.474 -1.0304 -1.1680  0.0195
   20SAPC  H18Y 2687   4.372   0.272   7.505 -0.8862  0.6102  3.0428
   20SAPC  H18Z 2688   4.215   0.224   7.439  0.0331  1.6721  1.6870
   21SAPC     N 2689   3.841   0.078  10.000 -0.0285 -0.0524 -0.0224
   21SAPC   C12 2690   3.705   0.022   9.996  0.2259 -0.0672  0.2021
   21SAPC  H12A 2691   3.653   0.058  10.084  0.6452 -0.6970  0.7153
   21SAPC  H12B 2692   3.700  -0.085  10.008  1.0408 -0.1560 -0.2239
   21SAPC   C13 2693   3.924   0.047   9.878  0.5424  0.4493 -0.1500
   21SAPC  H13A 2694   3.916  -0.060   9.864 -0.5203  0.8465 -3.2921
   21SAPC  H13B 2695   3.889   0.102   9.792 -0.5704 -0.8014 -0.5466
   21SAPC  H13C 2696   4.027   0.075   9.890  0.3043  0.7562  1.4926
   21SAPC   C14 2697   3.838   0.227  10.020  0.2526  0.8259  0.3059
   21SAPC  H14A 2698   3.935   0.273  10.024  1.4473 -1.4114 -1.2766
   21SAPC  H14B 2699   3.799   0.276   9.931  2.2383  0.2969 -0.9015
   21SAPC  H14C 2700   3.782   0.263  10.105 -2.8796  0.5485 -1.4827
   21SAPC   C15 2701   3.914   0.005  10.116 -0.5147 -0.5508 -0.2996
   21SAPC  H15A 2702   4.013   0.049  10.123 -0.6588 -0.2197 -0.3069
   21SAPC  H15B 2703   3.864   0.014  10.212  0.8153 -0.4572  0.4172
   21SAPC  H15C 2704   3.919  -0.098  10.086 -2.1214 -0.9559  0.7113
   21SAPC   C11 2705   3.610   0.048   9.877  0.4288  0.2729  0.0647
   21SAPC  H11A 2706   3.531  -0.027   9.854  0.6897  0.1745 -0.5540
   21SAPC  H11B 2707   3.673   0.032   9.786  1.3074  2.6380  0.1952
   21SAPC     P 2708   3.449   0.246   9.951  0.2921 -0.0611  0.3527
   21SAPC   O13 2709   3.502   0.277  10.079 -0.4568 -0.6186 -1.0993
   21SAPC   O14 2710   3.388   0.354   9.871  0.2151 -0.2396 -0.0662
   21SAPC   O12 2711   3.555   0.176   9.862 -0.3380 -0.3626 -0.4754
   21SAPC   O11 2712   3.333   0.138   9.974 -0.1254  0.1593 -0.8199
   21SAPC    C1 2713   3.239   0.119   9.869  1.1494  0.4962 -0.6189
   21SAPC    HA 2714   3.165   0.201   9.858  2.6232  1.8538 -0.8134
   21SAPC    HB 2715   3.292   0.105   9.772 -0.0855 -1.2248 -1.1007
   21SAPC    C2 2716   3.166  -0.026   9.887 -0.3016  0.2846 -0.0869
   21SAPC    HS 2717   3.133  -0.025   9.993  0.7779 -0.5206  0.2772
   21SAPC   O21 2718   3.262  -0.127   9.853 -0.5238 -0.1641  0.1725
   21SAPC   C21 2719   3.238  -0.253   9.893 -0.2500 -0.3697  0.2269
   21SAPC   O22 2720   3.154  -0.282   9.978  0.3351  0.0500  0.9005
   21SAPC   C22 2721   3.353  -0.343   9.839  0.5971 -0.1512 -0.4194
   21SAPC   H2R 2722   3.443  -0.328   9.902 -1.7346  0.7034  3.0124
   21SAPC   H2S 2723   3.334  -0.452   9.851 -0.7113  0.0885 -0.0853
   21SAPC    C3 2724   3.040  -0.035   9.796  0.7694  0.2918 -0.4142
   21SAPC    HX 2725   2.973   0.049   9.826  0.9205  0.0649  0.5906
   21SAPC    HY 2726   2.976  -0.122   9.823 -3.3510  3.2661  0.4859
   21SAPC   O31 2727   3.076  -0.006   9.662  0.1129  0.5946  0.1169
   21SAPC   C31 2728   3.066  -0.109   9.581  0.8628  0.0930  0.1498
   21SAPC   O32 2729   3.019  -0.223   9.606  0.1433 -0.4337  0.4216
   21SAPC   C32 2730   3.131  -0.071   9.446  0.1263 -0.1810 -0.8061
   21SAPC   H2X 2731   3.236  -0.037   9.464  0.1636 -0.6238 -0.1637
   21SAPC   H2Y 2732   3.085   0.014   9.391  0.6480  0.4401 -0.3014
   21SAPC   C23 2733   3.380  -0.326   9.689  0.2175 -0.3891  0.3520
   21SAPC   H3R 2734   3.373  -0.221   9.652  0.1597 -1.1534 -2.0294
   21SAPC   H3S 2735   3.294  -0.386   9.652  1.2929 -1.6911 -0.1267
   21SAPC   C24 2736   3.504  -0.407   9.656 -0.2892  0.4316 -0.2397
   21SAPC   H4R 2737   3.499  -0.453   9.555  2.6178 -2.1341  0.6250
   21SAPC   H4S 2738   3.501  -0.500   9.717 -1.8530  1.2706  1.0242
   21SAPC   C25 2739   3.638  -0.337   9.676 -0.7811 -0.5216  0.2174
   21SAPC   H5R 2740   3.700  -0.389   9.750  0.1400 -2.3590 -1.7241
   21SAPC   C26 2741   3.682  -0.226   9.606  0.0537 -0.7124 -0.3285
   21SAPC   H6R 2742   3.782  -0.186   9.628 -0.5396 -0.8879  3.0968
   21SAPC   C27 2743   3.612  -0.159   9.489  0.0070  0.0876  0.5115
   21SAPC   H7R 2744   3.526  -0.101   9.528 -0.9856  1.0180 -2.7877
   21SAPC   H7S 2745   3.577  -0.238   9.419 -2.2800  0.8123  0.7476
   21SAPC   C28 2746   3.704  -0.072   9.411 -0.0862  0.0913 -0.6697
   21SAPC   H8R 2747   3.786  -0.026   9.468  1.5084 -3.0780 -0.1600
   21SAPC   C29 2748   3.682  -0.040   9.286 -0.0940  0.6010  0.2360
   21SAPC   H9R 2749   3.748   0.036   9.243  0.4930 -0.2804 -0.4700
   21SAPC  C210 2750   3.565  -0.091   9.200 -0.5419 -0.4852 -0.3054
   21SAPC  H10R 2751   3.533  -0.005   9.139  2.9291  0.8190 -0.4826
   21SAPC  H10S 2752   3.479  -0.123   9.263 -2.7431  0.9325 -2.4161
   21SAPC  C211 2753   3.608  -0.209   9.121 -0.4764 -0.7771  0.6975
   21SAPC  H11R 2754   3.678  -0.276   9.173 -0.4647 -2.1775 -1.0275
   21SAPC  C212 2755   3.569  -0.240   8.992 -0.3195 -0.0941 -0.5518
   21SAPC  H12R 2756   3.630  -0.317   8.942 -1.3337 -2.3618  1.5179
   21SAPC  C213 2757   3.464  -0.168   8.915  0.1641  0.0809 -0.0180
   21SAPC  H13R 2758   3.506  -0.072   8.878 -0.8336  0.1038 -1.1638
   21SAPC  H13S 2759   3.374  -0.150   8.978 -0.8539 -1.6270 -0.8923
   21SAPC  C214 2760   3.421  -0.250   8.790 -0.4502 -0.1864  0.4399
   21SAPC  H14R 2761   3.378  -0.350   8.806  0.3904 -0.3531  1.8152
   21SAPC  C215 2762   3.446  -0.215   8.662  0.1578 -0.1050 -0.7513
   21SAPC  H15R 2763   3.409  -0.287   8.587  0.8227 -1.1661 -0.0853
   21SAPC  C216 2764   3.490  -0.085   8.605 -0.0269 -0.1374  0.4108
   21SAPC  H16R 2765   3.598  -0.088   8.579  0.0358  0.2249  0.6258
   21SAPC  H16S 2766   3.474  -0.007   8.682 -3.3512 -0.1531 -0.1322
   21SAPC  C217 2767   3.421  -0.053   8.467 -0.0772  1.1170 -0.5685
   21SAPC  H17R 2768   3.441   0.052   8.439  2.7825  0.1255 -2.6615
   21SAPC  H17S 2769   3.311  -0.071   8.472 -0.7242  4.5155 -0.6475
   21SAPC  C218 2770   3.474  -0.126   8.345 -0.6980  0.3321  0.0948
   21SAPC  H18R 2771   3.433  -0.228   8.360 -1.7819  0.8573  0.8978
   21SAPC  H18S 2772   3.584  -0.132   8.329 -0.8230  0.5592 -0.8583
   21SAPC  C219 2773   3.415  -0.079   8.207  0.0988 -0.0884  0.1255
   21SAPC  H19R 2774   3.505  -0.028   8.166  0.7310 -0.9896  0.3592
   21SAPC  H19S 2775   3.336  -0.004   8.228 -1.4760 -1.3131 -1.2148
   21SAPC  C220 2776   3.370  -0.192   8.116 -0.5709  0.2964 -0.3209
   21SAPC  H20R 2777   3.309  -0.267   8.171  1.4330 -1.2797 -0.1244
   21SAPC  H20S 2778   3.454  -0.247   8.068 -0.3139  1.0411 -0.7440
   21SAPC  H20T 2779   3.301  -0.155   8.037 -1.3784 -0.6851 -0.1079
   21SAPC   C33 2780   3.131  -0.189   9.343  0.2649 -0.2424 -0.8078
   21SAPC   H3X 2781   3.131  -0.297   9.370 -0.3048 -0.0919 -0.1886
   21SAPC   H3Y 2782   3.231  -0.190   9.294  0.3381 -0.6558 -0.6569
   21SAPC   C34 2783   3.034  -0.168   9.224 -0.3429 -1.0864  0.5273
   21SAPC   H4X 2784   3.038  -0.059   9.201  1.8143 -1.2795 -0.2229
   21SAPC   H4Y 2785   2.925  -0.182   9.240 -0.6793 -0.2207 -0.8322
   21SAPC   C35 2786   3.080  -0.247   9.101  0.4674  0.4269  0.6350
   21SAPC   H5X 2787   3.027  -0.345   9.103 -1.5357  1.4084 -1.0118
   21SAPC   H5Y 2788   3.187  -0.276   9.092  0.3324 -0.4520  1.6269
   21SAPC   C36 2789   3.035  -0.187   8.969  0.3829 -0.1138  0.0462
   21SAPC   H6X 2790   3.092  -0.092   8.954 -0.7482  0.8130  1.3864
   21SAPC   H6Y 2791   2.929  -0.155   8.976  0.9655  1.9575  0.2080
   21SAPC   C37 2792   3.046  -0.273   8.843  0.0729  0.4722 -0.6367
   21SAPC   H7X 2793   2.971  -0.355   8.847 -1.2308  1.6707  1.4285
   21SAPC   H7Y 2794   3.142  -0.328   8.840 -0.3685 -0.4202  0.6330
   21SAPC   C38 2795   3.033  -0.194   8.719  0.1642 -0.0666  0.5005
   21SAPC   H8X 2796   3.096  -0.103   8.725 -1.8801  1.4639  0.0298
   21SAPC   H8Y 2797   2.933  -0.148   8.733  0.4872  0.8534 -0.1390
   21SAPC   C39 2798   3.055  -0.281   8.593 -0.0838  0.0388 -0.0047
   21SAPC   H9X 2799   2.990  -0.371   8.595 -0.1463  0.0868  0.0993
   21SAPC   H9Y 2800   3.163  -0.303   8.580  0.0053  0.0023  0.7707
   21SAPC  C310 2801   3.022  -0.196   8.471  0.1035 -0.6539  0.4343
   21SAPC  H10X 2802   3.076  -0.100   8.470 -3.4176  1.5804  2.6181
   21SAPC  H10Y 2803   2.917  -0.160   8.482  0.9188  1.2578  2.8075
   21SAPC  C311 2804   3.050  -0.276   8.343 -0.3126 -0.5718 -0.0373
   21SAPC  H11X 2805   2.991  -0.370   8.345  0.6483 -1.1990 -0.0431
   21SAPC  H11Y 2806   3.157  -0.308   8.340  0.4079  1.6922 -0.3513
   21SAPC  C312 2807   3.020  -0.199   8.214 -0.0923  1.0545 -0.1818
   21SAPC  H12X 2808   3.076  -0.246   8.130 -0.2038 -0.9326  0.7946
   21SAPC  H12Y 2809   3.055  -0.093   8.220 -4.0603  2.4813  0.3664
   21SAPC  C313 2810   2.875  -0.204   8.181  0.1342 -0.2959 -0.7530
   21SAPC  H13X 2811   2.813  -0.168   8.265 -1.1816 -0.4672 -1.6275
   21SAPC  H13Y 2812   2.843  -0.307   8.153 -0.8815  0.7432 -3.7378
   21SAPC  C314 2813   2.817  -0.112   8.074 -0.0715  0.4470  0.3892
   21SAPC  H14X 2814   2.858  -0.009   8.076  0.5458  0.2898 -1.8134
   21SAPC  H14Y 2815   2.708  -0.101   8.096  0.3553  1.6309  2.0895
   21SAPC  C315 2816   2.837  -0.166   7.933  0.1892  0.1897  0.4158
   21SAPC  H15X 2817   2.779  -0.259   7.915 -0.4324 -0.1489  3.5849
   21SAPC  H15Y 2818   2.946  -0.186   7.929 -0.0423 -0.9939 -1.8780
   21SAPC  C316 2819   2.802  -0.061   7.825  0.2166  0.4143 -0.1564
   21SAPC  H16X 2820   2.820   0.041   7.865 -0.0376  1.5916 -2.7983
   21SAPC  H16Y 2821   2.694  -0.088   7.813 -0.1552  0.0818  3.1676
   21SAPC  C317 2822   2.880  -0.078   7.694  0.0044  0.1971 -0.1427
   21SAPC  H17X 2823   2.823  -0.030   7.612  2.1792  0.2017 -1.7374
   21SAPC  H17Y 2824   2.892  -0.186   7.668 -2.3915  0.0397 -0.7556
   21SAPC  C318 2825   3.018  -0.017   7.691 -0.1700 -0.0638 -0.1361
   21SAPC  H18X 2826   3.087  -0.051   7.771 -1.3202 -0.8603  0.5547
   21SAPC  H18Y 2827   3.024   0.094   7.701  1.0931 -0.0046 -1.3078
   21SAPC  H18Z 2828   3.061  -0.032   7.590  1.2470  0.3680  0.3843
   22SAPC     N 2829   0.389   6.343  10.075  0.3593 -0.2427  0.6682
   22SAPC   C12 2830   0.464   6.213  10.098  1.1126  0.6462  0.6816
   22SAPC  H12A 2831   0.444   6.138  10.022  2.3323 -0.3042  1.2561
   22SAPC  H12B 2832   0.430   6.168  10.190 -0.4489  1.2343  0.4136
   22SAPC   C13 2833   0.448   6.443  10.173 -0.8651  0.7548 -0.4245
   22SAPC  H13A 2834   0.405   6.424  10.271 -0.1935 -0.4168 -0.3397
   22SAPC  H13B 2835   0.550   6.409  10.186 -0.8238  1.2233  0.6314
   22SAPC  H13C 2836   0.450   6.546  10.141  3.8506  0.9540 -0.1713
   22SAPC   C14 2837   0.406   6.401   9.934 -0.0326 -0.1757 -0.2751
   22SAPC  H14A 2838   0.353   6.495   9.938  2.1476  1.0859  2.0123
   22SAPC  H14B 2839   0.505   6.437   9.911 -0.6200  2.1291  0.5585
   22SAPC  H14C 2840   0.354   6.345   9.857 -2.2264  1.2178  0.1143
   22SAPC   C15 2841   0.236   6.336  10.111 -0.2374  0.1063  0.1192
   22SAPC  H15A 2842   0.196   6.251  10.058  2.0426 -0.3362 -1.0316
   22SAPC  H15B 2843   0.224   6.314  10.216  0.4590 -2.5648 -0.2861
   22SAPC  H15C 2844   0.177   6.422  10.084 -0.3188  1.1789  3.3420
   22SAPC   C11 2845   0.617   6.215  10.099 -0.4803 -0.0421 -0.9851
   22SAPC  H11A 2846   0.652   6.111  10.117 -1.1106  0.3580  3.6236
   22SAPC  H11B 2847   0.660   6.276  10.181  0.0260  1.1173 -2.0684
   22SAPC     P 2848   0.789   6.237   9.894 -0.2108  0.3801 -0.0260
   22SAPC   O13 2849   0.839   6.365   9.838 -0.0760 -0.2256 -0.0426
   22SAPC   O14 2850   0.893   6.159   9.975 -0.2665  0.5323 -0.0375
   22SAPC   O12 2851   0.664   6.269   9.977  0.1960  0.2450  0.2718
   22SAPC   O11 2852   0.739   6.138   9.777 -0.3366  0.7339 -0.5355
   22SAPC    C1 2853   0.593   6.134   9.747 -0.2551 -0.9409  0.3113
   22SAPC    HA 2854   0.532   6.079   9.822 -2.6990 -0.2936 -1.0805
   22SAPC    HB 2855   0.546   6.235   9.746  0.2778 -0.6917  0.3697
   22SAPC    C2 2856   0.561   6.072   9.609 -0.2525 -0.4596 -0.3415
   22SAPC    HS 2857   0.453   6.045   9.604 -0.2967 -0.9202  1.8355
   22SAPC   O21 2858   0.637   5.951   9.595  0.0380  0.5933  0.4537
   22SAPC   C21 2859   0.601   5.839   9.666 -0.4555  0.3855  0.0394
   22SAPC   O22 2860   0.501   5.833   9.733  0.5705  0.1030  0.1390
   22SAPC   C22 2861   0.701   5.724   9.642 -0.1823  0.7902  0.0887
   22SAPC   H2R 2862   0.759   5.741   9.548  0.8506 -1.3326  0.2812
   22SAPC   H2S 2863   0.770   5.732   9.729 -1.2358 -0.0672  1.0216
   22SAPC    C3 2864   0.613   6.157   9.486 -1.0632  0.4157 -0.0817
   22SAPC    HX 2865   0.721   6.170   9.507 -0.9651 -0.5070  0.0561
   22SAPC    HY 2866   0.572   6.260   9.478  1.4051  1.5889  1.2815
   22SAPC   O31 2867   0.598   6.090   9.352 -0.1613 -0.1628 -0.5138
   22SAPC   C31 2868   0.697   6.078   9.273 -0.3846 -0.2018 -0.3897
   22SAPC   O32 2869   0.813   6.112   9.300 -0.0729 -0.6724 -0.3905
   22SAPC   C32 2870   0.665   5.999   9.148  0.2479 -0.6268  0.4120
   22SAPC   H2X 2871   0.574   5.939   9.166 -1.2496  1.0123 -1.3563
   22SAPC   H2Y 2872   0.741   5.928   9.109 -0.6925 -1.2407 -0.3334
   22SAPC   C23 2873   0.640   5.577   9.651  0.2665 -0.0330  0.8127
   22SAPC   H3R 2874   0.601   5.555   9.753 -0.7947  1.7275  0.8383
   22SAPC   H3S 2875   0.728   5.515   9.625  0.3562  0.2087  0.5288
   22SAPC   C24 2876   0.524   5.547   9.545  0.5235 -0.3691  0.6829
   22SAPC   H4R 2877   0.429   5.592   9.579 -0.8141 -0.9098 -2.0508
   22SAPC   H4S 2878   0.494   5.442   9.529 -2.4014  0.7129 -1.8761
   22SAPC   C25 2879   0.539   5.596   9.406 -1.2477  0.2412 -0.1320
   22SAPC   H5R 2880   0.591   5.526   9.340  1.1316  0.3347  1.4837
   22SAPC   C26 2881   0.475   5.693   9.340  0.1491 -0.3794 -0.2139
   22SAPC   H6R 2882   0.493   5.696   9.231 -0.6057 -0.4889 -0.3471
   22SAPC   C27 2883   0.378   5.798   9.383  0.0741 -0.7616 -0.0919
   22SAPC   H7R 2884   0.436   5.892   9.368 -0.7737  0.1617  2.0204
   22SAPC   H7S 2885   0.367   5.803   9.493  1.3664 -2.1022  0.1340
   22SAPC   C28 2886   0.254   5.801   9.300  0.1551  0.0711 -0.2431
   22SAPC   H8R 2887   0.186   5.717   9.317 -0.4921  0.7398  0.5561
   22SAPC   C29 2888   0.215   5.896   9.217  0.3682 -0.8272  0.3661
   22SAPC   H9R 2889   0.126   5.880   9.153  0.5033 -0.0845 -0.0191
   22SAPC  C210 2890   0.277   6.023   9.181 -0.0651  0.1895 -1.1724
   22SAPC  H10R 2891   0.257   6.049   9.075  0.5293 -1.0736 -1.6294
   22SAPC  H10S 2892   0.388   6.020   9.173 -0.0711  1.0782 -1.7317
   22SAPC  C211 2893   0.233   6.127   9.275 -0.7039  0.1623 -0.0877
   22SAPC  H11R 2894   0.202   6.082   9.371 -1.9535 -2.4878 -1.6198
   22SAPC  C212 2895   0.237   6.263   9.254  0.4364  0.2873  0.5380
   22SAPC  H12R 2896   0.201   6.333   9.330 -0.5239 -0.0438  0.4038
   22SAPC  C213 2897   0.301   6.344   9.139  0.0260  0.5838 -0.0143
   22SAPC  H13R 2898   0.219   6.406   9.097 -1.3343  0.2020  1.9346
   22SAPC  H13S 2899   0.331   6.284   9.050  0.4235 -0.9462  1.1047
   22SAPC  C214 2900   0.422   6.426   9.177 -0.6775 -0.0646  0.3160
   22SAPC  H14R 2901   0.467   6.411   9.277 -1.1967 -2.0737  0.3006
   22SAPC  C215 2902   0.484   6.509   9.094 -0.1233 -0.4252 -0.3697
   22SAPC  H15R 2903   0.580   6.554   9.123  0.0533  0.4729 -2.1976
   22SAPC  C216 2904   0.450   6.514   8.947  0.7480 -0.5475  0.6971
   22SAPC  H16R 2905   0.379   6.599   8.939  2.9577  1.2905 -1.4859
   22SAPC  H16S 2906   0.400   6.422   8.911 -0.1223  0.2580 -0.2027
   22SAPC  C217 2907   0.571   6.558   8.857  0.2235 -0.1736 -0.1060
   22SAPC  H17R 2908   0.613   6.652   8.897  0.2455  1.8028 -4.2576
   22SAPC  H17S 2909   0.531   6.577   8.755  1.4130 -1.8609 -0.9205
   22SAPC  C218 2910   0.667   6.444   8.841  0.5585 -0.2850  0.0110
   22SAPC  H18R 2911   0.632   6.371   8.766  0.5413 -1.8731  1.5066
   22SAPC  H18S 2912   0.679   6.387   8.935 -0.0640  0.3958  0.5174
   22SAPC  C219 2913   0.812   6.482   8.807 -0.3690  0.1671  0.6128
   22SAPC  H19R 2914   0.854   6.550   8.885  2.6939 -0.4527 -0.3567
   22SAPC  H19S 2915   0.812   6.546   8.716  0.2309  2.0689  1.8655
   22SAPC  C220 2916   0.911   6.364   8.789  0.6801  0.2777  0.0521
   22SAPC  H20R 2917   0.874   6.296   8.709  1.3741  0.6067 -0.5659
   22SAPC  H20S 2918   0.915   6.309   8.885 -1.0790 -1.1324 -0.6175
   22SAPC  H20T 2919   1.014   6.399   8.764  1.0660 -0.0776  1.0943
   22SAPC   C33 2920   0.642   6.105   9.036 -0.1199 -0.6974 -0.0539
   22SAPC   H3X 2921   0.718   6.186   9.043 -1.7785  1.0874 -1.3969
   22SAPC   H3Y 2922   0.540   6.143   9.059  0.3841  0.2832  0.6361
   22SAPC   C34 2923   0.627   6.046   8.900 -0.0033 -0.7571 -0.5260
   22SAPC   H4X 2924   0.713   5.976   8.894  1.3997  0.4825  2.7160
   22SAPC   H4Y 2925   0.643   6.121   8.819  0.0071 -1.0168 -0.7687
   22SAPC   C35 2926   0.488   5.990   8.874  0.3266 -0.4727 -0.9838
   22SAPC   H5X 2927   0.403   6.055   8.906 -0.2263 -1.5589 -0.1975
   22SAPC   H5Y 2928   0.462   5.900   8.934 -0.2621  1.3955  1.7762
   22SAPC   C36 2929   0.472   5.943   8.724  0.1290 -0.1805 -0.0209
   22SAPC   H6X 2930   0.549   5.868   8.699  0.8932  1.4423 -3.0063
   22SAPC   H6Y 2931   0.489   6.039   8.670  0.0435 -0.4131 -0.4615
   22SAPC   C37 2932   0.337   5.888   8.675  0.5959  0.1384 -0.0307
   22SAPC   H7X 2933   0.306   5.803   8.740  1.2943 -0.2009 -0.1354
   22SAPC   H7Y 2934   0.354   5.844   8.575 -1.1778  0.3567 -0.4589
   22SAPC   C38 2935   0.224   5.988   8.655  0.2155 -0.3037  0.0853
   22SAPC   H8X 2936   0.264   6.065   8.585  2.9928 -1.0534  0.7318
   22SAPC   H8Y 2937   0.198   6.029   8.756 -2.7798  1.2698 -1.1852
   22SAPC   C39 2938   0.100   5.927   8.582 -0.5754  0.3442  0.1125
   22SAPC   H9X 2939   0.026   6.008   8.595  0.2116  0.9766  0.7274
   22SAPC   H9Y 2940   0.056   5.851   8.651 -0.4628  0.4636  0.3178
   22SAPC  C310 2941   0.108   5.874   8.439  0.5877 -0.0385  0.0385
   22SAPC  H10X 2942   0.011   5.869   8.385  1.2197 -1.1934 -1.0590
   22SAPC  H10Y 2943   0.154   5.772   8.443  1.1038  0.1775 -0.3647
   22SAPC  C311 2944   0.202   5.960   8.346  0.4489  0.2396 -0.4456
   22SAPC  H11X 2945   0.202   5.919   8.243  0.5877  0.2232 -0.4400
   22SAPC  H11Y 2946   0.303   5.935   8.385  0.1179 -0.8239 -0.2424
   22SAPC  C312 2947   0.174   6.109   8.339  0.8086  0.1648  0.2850
   22SAPC  H12X 2948   0.142   6.152   8.436 -3.0730  1.2403 -1.2833
   22SAPC  H12Y 2949   0.099   6.126   8.258  0.6503  0.4952  0.4985
   22SAPC  C313 2950   0.295   6.189   8.289 -0.3830  0.4595  0.3782
   22SAPC  H13X 2951   0.266   6.295   8.279 -0.7560  0.2382 -1.1925
   22SAPC  H13Y 2952   0.321   6.162   8.185 -1.4161  0.6268  0.0636
   22SAPC  C314 2953   0.413   6.187   8.388  0.6241 -0.2748 -1.0363
   22SAPC  H14X 2954   0.441   6.083   8.414  1.4884  0.7642  2.8107
   22SAPC  H14Y 2955   0.378   6.232   8.483 -0.1632 -1.8094 -0.5620
   22SAPC  C315 2956   0.532   6.271   8.332  0.4128 -0.1634  0.6946
   22SAPC  H15X 2957   0.496   6.376   8.337  1.7878  0.3701 -0.1483
   22SAPC  H15Y 2958   0.555   6.249   8.226  0.6613  1.1005  0.4774
   22SAPC  C316 2959   0.663   6.260   8.413 -0.3854 -0.2553  0.8463
   22SAPC  H16X 2960   0.698   6.154   8.406  3.2060  0.7965  0.6409
   22SAPC  H16Y 2961   0.633   6.276   8.518 -0.9652  2.0406  0.3776
   22SAPC  C317 2962   0.774   6.351   8.362  0.1766  0.7639 -0.7183
   22SAPC  H17X 2963   0.871   6.317   8.404 -0.9196  0.8261  2.0603
   22SAPC  H17Y 2964   0.759   6.457   8.392 -2.0432  0.3884 -0.3194
   22SAPC  C318 2965   0.799   6.344   8.214 -0.3888 -0.4710  0.9523
   22SAPC  H18X 2966   0.880   6.416   8.192 -0.8731  0.0428  0.8389
   22SAPC  H18Y 2967   0.707   6.383   8.165 -0.3966 -2.5319 -0.8145
   22SAPC  H18Z 2968   0.827   6.241   8.183  2.1404  0.0197  1.4349
   23SAPC     N 2969   5.765   6.751  10.245  0.1652 -0.3342  0.2904
   23SAPC   C12 2970   5.814   6.686  10.111  0.1433  0.8221 -0.3971
   23SAPC  H12A 2971   5.836   6.582  10.131  1.2910  1.0718 -0.2918
   23SAPC  H12B 2972   5.903   6.733  10.073 -1.3138  0.9593 -4.0684
   23SAPC   C13 2973   5.705   6.890  10.232 -0.0659  0.0328 -0.3376
   23SAPC  H13A 2974   5.639   6.888  10.147 -1.1299  0.7904  0.4556
   23SAPC  H13B 2975   5.646   6.919  10.317  0.9467  0.0919  0.3699
   23SAPC  H13C 2976   5.766   6.977  10.210 -0.7906  0.1894 -1.8313
   23SAPC   C14 2977   5.666   6.660  10.307  0.1394  0.1031 -0.4042
   23SAPC  H14A 2978   5.632   6.709  10.397  0.8069  0.1343 -0.1572
   23SAPC  H14B 2979   5.583   6.640  10.241 -0.2092  0.5734 -0.1153
   23SAPC  H14C 2980   5.718   6.574  10.347 -1.1836 -0.5308 -0.0143
   23SAPC   C15 2981   5.872   6.778  10.337  0.3774  0.4994 -0.2175
   23SAPC  H15A 2982   5.837   6.775  10.439 -0.9249 -1.5353 -0.6593
   23SAPC  H15B 2983   5.940   6.696  10.324 -1.7419 -1.4964  0.4803
   23SAPC  H15C 2984   5.928   6.865  10.307  0.4902  0.5416  0.1074
   23SAPC   C11 2985   5.711   6.689   9.998 -0.0254  0.4649 -0.4916
   23SAPC  H11A 2986   5.613   6.646  10.029  0.5470 -0.1580  0.4977
   23SAPC  H11B 2987   5.748   6.617   9.921 -2.6854 -2.2543  0.5474
   23SAPC     P 2988   5.788   6.922   9.884 -0.2440  0.1144  0.3205
   23SAPC   O13 2989   5.708   7.046   9.886 -0.2284 -0.6356 -0.1049
   23SAPC   O14 2990   5.915   6.926   9.965  0.0611 -0.0826 -0.2493
   23SAPC   O12 2991   5.689   6.819   9.949  0.1824 -0.4619  0.3579
   23SAPC   O11 2992   5.817   6.869   9.741 -0.1941  0.2147  0.5293
   23SAPC    C1 2993   5.722   6.782   9.679 -0.0245 -0.0024  0.7565
   23SAPC    HA 2994   5.761   6.679   9.665  1.6353  0.3925  2.1947
   23SAPC    HB 2995   5.622   6.772   9.727 -0.7820 -0.1458 -0.7761
   23SAPC    C2 2996   5.690   6.839   9.534 -0.5542 -0.6717  0.0121
   23SAPC    HS 2997   5.649   6.942   9.543 -2.3960 -1.2974 -0.8134
   23SAPC   O21 2998   5.589   6.753   9.477  0.4374  0.3538  0.3682
   23SAPC   C21 2999   5.492   6.823   9.418  0.5060 -0.1033 -0.7186
   23SAPC   O22 3000   5.499   6.942   9.402  0.4241  0.4053 -0.1096
   23SAPC   C22 3001   5.366   6.740   9.391  0.2933  0.0382  1.1406
   23SAPC   H2R 3002   5.379   6.630   9.386 -1.9239 -0.2314  0.1291
   23SAPC   H2S 3003   5.307   6.759   9.484  3.6646  0.6009  3.3249
   23SAPC    C3 3004   5.817   6.832   9.447 -0.5638 -0.6459 -0.2742
   23SAPC    HX 3005   5.850   6.726   9.443  1.4084 -0.1979  2.0779
   23SAPC    HY 3006   5.907   6.884   9.484 -1.2799  0.8904 -0.6128
   23SAPC   O31 3007   5.796   6.882   9.308  0.1289  0.9658  0.1465
   23SAPC   C31 3008   5.773   7.007   9.310 -0.8236 -0.6168 -0.2748
   23SAPC   O32 3009   5.783   7.084   9.403 -0.4845 -0.7478  0.6954
   23SAPC   C32 3010   5.780   7.055   9.165 -0.1260  0.1064 -0.0493
   23SAPC   H2X 3011   5.883   7.057   9.123 -0.8969  1.8376 -2.0532
   23SAPC   H2Y 3012   5.746   7.161   9.169 -1.0569 -0.1605 -0.6166
   23SAPC   C23 3013   5.292   6.792   9.273  0.9185  0.5623  0.1014
   23SAPC   H3R 3014   5.300   6.902   9.266 -1.3323  0.7959  0.4329
   23SAPC   H3S 3015   5.184   6.768   9.282  1.3683 -2.8036 -1.6131
   23SAPC   C24 3016   5.339   6.721   9.141 -0.0985 -0.0687 -0.1415
   23SAPC   H4R 3017   5.306   6.615   9.141 -2.4756  0.6099  0.7323
   23SAPC   H4S 3018   5.450   6.714   9.144 -0.1335 -1.2965 -0.8355
   23SAPC   C25 3019   5.293   6.798   9.021  0.4741  0.2905  0.3325
   23SAPC   H5R 3020   5.316   6.905   9.033  2.7456 -0.1823  0.7176
   23SAPC   C26 3021   5.241   6.749   8.910 -0.1987 -0.4163 -0.4678
   23SAPC   H6R 3022   5.187   6.821   8.847 -3.1459 -0.3193  1.9337
   23SAPC   C27 3023   5.212   6.612   8.873  0.3545  0.0487 -0.1857
   23SAPC   H7R 3024   5.189   6.544   8.958 -1.2660  0.8511  0.0514
   23SAPC   H7S 3025   5.309   6.575   8.832  0.6896 -0.0613  0.6886
   23SAPC   C28 3026   5.100   6.596   8.777  0.4524 -0.3692  0.5092
   23SAPC   H8R 3027   5.005   6.564   8.821  0.5971 -0.4554  0.7593
   23SAPC   C29 3028   5.105   6.618   8.642  0.4522 -0.0622  0.2049
   23SAPC   H9R 3029   5.019   6.585   8.583  0.1102  0.0389  0.6390
   23SAPC  C210 3030   5.224   6.653   8.559 -0.1635 -0.0320  0.1465
   23SAPC  H10R 3031   5.300   6.701   8.624 -1.4998  0.1820  1.5997
   23SAPC  H10S 3032   5.196   6.733   8.487 -2.1627 -0.8020  0.0221
   23SAPC  C211 3033   5.279   6.528   8.494 -0.4642 -0.0056 -0.1092
   23SAPC  H11R 3034   5.239   6.433   8.532 -1.3568  1.1720  2.0885
   23SAPC  C212 3035   5.343   6.531   8.379 -0.0079 -0.1139  0.5097
   23SAPC  H12R 3036   5.388   6.438   8.342  0.2943  0.0793  0.3918
   23SAPC  C213 3037   5.387   6.647   8.287  0.2287  0.0892 -0.2409
   23SAPC  H13R 3038   5.484   6.626   8.238 -1.4068 -2.0197 -2.8392
   23SAPC  H13S 3039   5.414   6.721   8.366 -0.3916  0.5469 -0.4553
   23SAPC  C214 3040   5.283   6.709   8.191  0.3505  0.2466  0.6028
   23SAPC  H14R 3041   5.219   6.637   8.138 -0.4785  1.6617 -0.3768
   23SAPC  C215 3042   5.272   6.836   8.152 -0.5699  0.3598  0.2403
   23SAPC  H15R 3043   5.206   6.860   8.067 -4.0316 -2.4106  1.9025
   23SAPC  C216 3044   5.374   6.938   8.208  0.3745 -0.6084 -1.0358
   23SAPC  H16R 3045   5.471   6.892   8.234  1.4524  3.3844  3.3169
   23SAPC  H16S 3046   5.335   6.977   8.305 -0.6639 -1.2855 -1.1660
   23SAPC  C217 3047   5.386   7.062   8.124  0.1014  0.4395  0.4911
   23SAPC  H17R 3048   5.295   7.124   8.132 -1.1758 -1.2234 -0.5190
   23SAPC  H17S 3049   5.405   7.041   8.017  0.3082  3.2431 -0.1074
   23SAPC  C218 3050   5.507   7.146   8.174  0.6178 -0.2637 -0.2267
   23SAPC  H18R 3051   5.529   7.239   8.116 -0.5460  1.3112  1.7109
   23SAPC  H18S 3052   5.597   7.082   8.180  0.2735 -0.6609  0.9576
   23SAPC  C219 3053   5.514   7.198   8.324 -0.1145  0.1995  1.0335
   23SAPC  H19R 3054   5.620   7.219   8.347 -0.1689 -0.2942  1.7544
   23SAPC  H19S 3055   5.484   7.116   8.393  2.0054 -1.2829  0.2845
   23SAPC  C220 3056   5.444   7.331   8.344  0.0578  0.1056  0.5872
   23SAPC  H20R 3057   5.336   7.310   8.330  0.1248 -2.9746  3.2452
   23SAPC  H20S 3058   5.486   7.390   8.261  1.1860  0.9649  1.7230
   23SAPC  H20T 3059   5.455   7.375   8.446  1.3638 -1.2771  1.0830
   23SAPC   C33 3060   5.687   6.974   9.077  1.0770 -0.9030  0.1876
   23SAPC   H3X 3061   5.583   6.994   9.109  1.1961 -2.3511  1.6188
   23SAPC   H3Y 3062   5.701   6.864   9.092  0.8249 -0.7900  1.2979
   23SAPC   C34 3063   5.708   7.004   8.923  0.2875  0.1174 -0.0922
   23SAPC   H4X 3064   5.812   7.041   8.912  0.7404 -1.1413 -0.2601
   23SAPC   H4Y 3065   5.646   7.082   8.874 -0.9740 -1.1961 -0.6861
   23SAPC   C35 3066   5.678   6.874   8.838 -0.3161  0.4757 -0.0354
   23SAPC   H5X 3067   5.567   6.867   8.834 -0.3126  1.0690 -1.8173
   23SAPC   H5Y 3068   5.721   6.794   8.902 -1.2883  0.0175  0.0573
   23SAPC   C36 3069   5.749   6.871   8.701 -0.1473 -0.1141  0.6209
   23SAPC   H6X 3070   5.719   6.777   8.649 -0.2850  0.1196  0.2748
   23SAPC   H6Y 3071   5.861   6.871   8.705 -0.0970 -1.4575 -0.1031
   23SAPC   C37 3072   5.726   6.995   8.609 -0.1216  0.0374 -0.0926
   23SAPC   H7X 3073   5.748   7.084   8.672  0.5192  0.3770 -0.7843
   23SAPC   H7Y 3074   5.618   7.015   8.587 -1.0905 -2.5713  1.8816
   23SAPC   C38 3075   5.807   6.991   8.482 -0.4759 -0.1476  0.6978
   23SAPC   H8X 3076   5.914   6.969   8.502 -0.1140  0.5294 -0.4238
   23SAPC   H8Y 3077   5.814   7.090   8.432  1.1423 -0.1542  0.8568
   23SAPC   C39 3078   5.754   6.889   8.377  0.6259  0.4309  0.0043
   23SAPC   H9X 3079   5.653   6.927   8.353 -0.3290 -0.6575  2.0419
   23SAPC   H9Y 3080   5.742   6.790   8.425  2.3337 -0.0633 -0.4894
   23SAPC  C310 3081   5.829   6.883   8.247  0.2101  0.4574  0.0723
   23SAPC  H10X 3082   5.930   6.840   8.264 -0.5053 -1.0564  0.6643
   23SAPC  H10Y 3083   5.831   6.985   8.202  0.4206  1.3079  1.8830
   23SAPC  C311 3084   5.752   6.788   8.157  0.6052 -0.2097 -0.5550
   23SAPC  H11X 3085   5.645   6.819   8.158  0.4259 -0.5832  2.3377
   23SAPC  H11Y 3086   5.743   6.693   8.214 -0.3580  1.2649  1.9217
   23SAPC  C312 3087   5.813   6.783   8.018 -0.2668 -0.5997  0.0717
   23SAPC  H12X 3088   5.774   6.689   7.974 -2.9408  0.6909 -0.5333
   23SAPC  H12Y 3089   5.924   6.776   8.013 -0.2871  0.0435 -2.3489
   23SAPC  C313 3090   5.768   6.891   7.917 -0.1292  0.1540 -0.3205
   23SAPC  H13X 3091   5.762   6.994   7.958 -0.0588  0.6001 -1.4151
   23SAPC  H13Y 3092   5.664   6.875   7.880 -0.8125 -0.1828  1.5908
   23SAPC  C314 3093   5.860   6.901   7.794  0.4879 -0.4404  0.8225
   23SAPC  H14X 3094   5.911   6.807   7.766 -0.6141  0.0835 -3.6579
   23SAPC  H14Y 3095   5.942   6.976   7.801  0.9603 -0.9716  0.9671
   23SAPC  C315 3096   5.774   6.940   7.672 -0.4942 -0.2973 -0.5361
   23SAPC  H15X 3097   5.691   6.871   7.650 -1.1203 -0.0793  1.0391
   23SAPC  H15Y 3098   5.850   6.935   7.591 -2.8837 -1.6907 -2.8194
   23SAPC  C316 3099   5.711   7.087   7.687 -0.5793  0.3278 -0.3735
   23SAPC  H16X 3100   5.762   7.147   7.607 -0.5463 -2.0187 -2.2191
   23SAPC  H16Y 3101   5.731   7.134   7.786 -1.1063  0.4498 -0.3227
   23SAPC  C317 3102   5.562   7.104   7.669  0.8489 -0.3215 -0.1121
   23SAPC  H17X 3103   5.513   7.029   7.734  0.0159 -1.1757 -1.6627
   23SAPC  H17Y 3104   5.539   7.066   7.567 -0.1667  1.2526 -0.4973
   23SAPC  C318 3105   5.500   7.242   7.686 -0.7204 -0.4848 -0.2307
   23SAPC  H18X 3106   5.500   7.279   7.791  0.4308 -0.6117 -0.1711
   23SAPC  H18Y 3107   5.396   7.253   7.651 -1.5768 -2.1720  1.5852
   23SAPC  H18Z 3108   5.559   7.318   7.631 -2.0436 -1.4425 -3.1929
   24SAPC     N 3109   6.666   6.790  10.079 -0.0293 -0.2153  0.0392
   24SAPC   C12 3110   6.636   6.679   9.986  0.3522  0.6872 -0.1527
   24SAPC  H12A 3111   6.570   6.717   9.910 -0.2870  0.8111  0.4605
   24SAPC  H12B 3112   6.566   6.617  10.040  0.4602  1.6255  1.1110
   24SAPC   C13 3113   6.785   6.862  10.032 -1.1538 -0.1997  0.2154
   24SAPC  H13A 3114   6.788   6.875   9.925 -3.4427  0.3107  0.1685
   24SAPC  H13B 3115   6.803   6.962  10.068  0.9839 -0.8389  1.0624
   24SAPC  H13C 3116   6.880   6.816  10.054 -0.4125  1.6009  0.9411
   24SAPC   C14 3117   6.553   6.893  10.083  0.7151  0.2818  0.6445
   24SAPC  H14A 3118   6.542   6.941   9.986 -2.3035 -2.2773 -0.4295
   24SAPC  H14B 3119   6.458   6.844  10.096  1.9359 -2.3378  0.1772
   24SAPC  H14C 3120   6.563   6.975  10.152 -2.0515  1.5875 -0.3492
   24SAPC   C15 3121   6.699   6.730  10.209 -0.0498  0.1013 -0.6846
   24SAPC  H15A 3122   6.619   6.688  10.268  0.3856  1.3490  0.8523
   24SAPC  H15B 3123   6.772   6.651  10.200 -0.6311 -0.5397  0.0964
   24SAPC  H15C 3124   6.747   6.804  10.271 -1.4714 -0.3218  0.9858
   24SAPC   C11 3125   6.750   6.601   9.925 -0.7004  0.2537  0.2039
   24SAPC  H11A 3126   6.701   6.514   9.878  0.7009  0.1441 -1.1257
   24SAPC  H11B 3127   6.817   6.571  10.008 -0.5539 -0.2996 -0.1085
   24SAPC     P 3128   6.934   6.603   9.740 -0.0710 -0.3605  0.1911
   24SAPC   O13 3129   7.066   6.634   9.807 -0.5989  0.4771  0.5265
   24SAPC   O14 3130   6.883   6.467   9.724  0.4506  0.1012  0.0893
   24SAPC   O12 3131   6.815   6.680   9.820 -0.0444  0.6593 -0.1386
   24SAPC   O11 3132   6.951   6.670   9.593  0.4144  0.3595 -0.3493
   24SAPC    C1 3133   6.881   6.788   9.556  0.4603 -0.1596 -0.1273
   24SAPC    HA 3134   6.889   6.860   9.641 -1.3349 -1.2061  0.9902
   24SAPC    HB 3135   6.924   6.836   9.466  1.9414 -0.5293  0.3482
   24SAPC    C2 3136   6.738   6.762   9.525  0.2036 -0.5313 -0.6734
   24SAPC    HS 3137   6.694   6.707   9.611  0.6911 -0.8236 -0.6083
   24SAPC   O21 3138   6.728   6.693   9.403  0.4927 -0.5587  0.4278
   24SAPC   C21 3139   6.616   6.649   9.361  0.2571  0.0050 -0.1047
   24SAPC   O22 3140   6.512   6.636   9.423 -0.5520  0.3949  0.8901
   24SAPC   C22 3141   6.637   6.621   9.210 -0.4760 -0.3372 -0.1949
   24SAPC   H2R 3142   6.725   6.557   9.188 -0.8366 -1.0714  0.4296
   24SAPC   H2S 3143   6.558   6.552   9.174 -0.1318 -0.2649 -1.0983
   24SAPC    C3 3144   6.651   6.892   9.526 -0.1038 -0.0267  0.2804
   24SAPC    HX 3145   6.678   6.936   9.624 -0.8512  1.2113 -0.0545
   24SAPC    HY 3146   6.541   6.877   9.526 -0.2613  1.0247 -0.6179
   24SAPC   O31 3147   6.709   6.970   9.417  0.4422  0.0715  0.0111
   24SAPC   C31 3148   6.631   7.072   9.378 -0.4115  0.6860 -0.7455
   24SAPC   O32 3149   6.531   7.112   9.433  0.4011  0.5574 -0.3331
   24SAPC   C32 3150   6.682   7.121   9.248  0.0560 -0.0631  0.1616
   24SAPC   H2X 3151   6.689   7.031   9.183 -2.3149  0.2041 -0.5506
   24SAPC   H2Y 3152   6.781   7.170   9.253  1.3842 -2.7140  1.8406
   24SAPC   C23 3153   6.648   6.755   9.132  0.0365 -0.1639 -0.6636
   24SAPC   H3R 3154   6.740   6.804   9.168 -1.6395  2.2636  0.5920
   24SAPC   H3S 3155   6.574   6.831   9.166 -0.3493  0.1733 -2.1583
   24SAPC   C24 3156   6.651   6.735   8.978 -0.1813  0.2132  0.6987
   24SAPC   H4R 3157   6.653   6.836   8.933  0.0917  0.6866  1.7359
   24SAPC   H4S 3158   6.560   6.677   8.951 -1.1680  1.6896  0.7022
   24SAPC   C25 3159   6.780   6.669   8.937 -0.0929  0.3767  0.6445
   24SAPC   H5R 3160   6.854   6.643   9.014 -0.7761  0.6033  1.4000
   24SAPC   C26 3161   6.814   6.631   8.812 -0.4429 -0.1711  0.2173
   24SAPC   H6R 3162   6.902   6.570   8.790  0.8429  1.7457 -0.1801
   24SAPC   C27 3163   6.725   6.637   8.685 -0.4328  0.9672 -0.5241
   24SAPC   H7R 3164   6.713   6.738   8.639  1.7917  0.4362 -2.4972
   24SAPC   H7S 3165   6.625   6.600   8.715  0.0354  0.4847  0.4792
   24SAPC   C28 3166   6.772   6.541   8.571 -0.7099  0.8480 -0.3052
   24SAPC   H8R 3167   6.711   6.452   8.551 -1.1998  1.3939 -1.3486
   24SAPC   C29 3168   6.871   6.562   8.482  0.2444 -0.4081  0.2339
   24SAPC   H9R 3169   6.898   6.486   8.407  0.3372 -0.9840  0.8442
   24SAPC  C210 3170   6.960   6.683   8.471  0.7684 -1.1118  0.1445
   24SAPC  H10R 3171   7.068   6.658   8.483  0.7983 -0.3344  1.8248
   24SAPC  H10S 3172   6.928   6.771   8.532 -2.6265 -0.9135 -1.6839
   24SAPC  C211 3173   6.920   6.736   8.336  0.2856  0.2223 -0.0968
   24SAPC  H11R 3174   6.837   6.808   8.340 -1.1491 -1.3937  0.5293
   24SAPC  C212 3175   6.979   6.698   8.222 -0.5055 -0.2967  0.8086
   24SAPC  H12R 3176   6.943   6.732   8.124 -0.9862  0.1659  1.1368
   24SAPC  C213 3177   7.091   6.600   8.210  0.0774 -0.0027 -0.7003
   24SAPC  H13R 3178   7.065   6.522   8.135  1.8730 -0.4101 -0.9631
   24SAPC  H13S 3179   7.115   6.538   8.298  1.1990 -0.6548 -1.4292
   24SAPC  C214 3180   7.220   6.667   8.176 -0.9346 -0.1562  0.4129
   24SAPC  H14R 3181   7.237   6.760   8.233  2.0199  0.0052 -0.5600
   24SAPC  C215 3182   7.311   6.638   8.084  0.4155  0.2188  0.3386
   24SAPC  H15R 3183   7.403   6.697   8.078 -0.1536  1.2752  1.5961
   24SAPC  C216 3184   7.315   6.516   7.994  0.5197 -0.6350 -0.1975
   24SAPC  H16R 3185   7.268   6.548   7.899  0.1582 -0.7919 -0.0715
   24SAPC  H16S 3186   7.244   6.439   8.031  0.9249 -0.2887  1.3689
   24SAPC  C217 3187   7.460   6.467   7.987 -0.3635  0.6278  0.0349
   24SAPC  H17R 3188   7.464   6.373   7.927 -1.2944  0.3417  0.4199
   24SAPC  H17S 3189   7.494   6.437   8.088  1.3837 -0.0596 -0.7094
   24SAPC  C218 3190   7.568   6.550   7.920  0.3276  0.1412 -0.2042
   24SAPC  H18R 3191   7.542   6.651   7.958 -2.2819 -0.4866 -0.1222
   24SAPC  H18S 3192   7.547   6.546   7.811  0.1247 -0.1608 -0.1538
   24SAPC  C219 3193   7.712   6.516   7.950 -0.8288 -0.7379 -0.1901
   24SAPC  H19R 3194   7.742   6.452   7.865 -1.4216  0.2140 -1.1411
   24SAPC  H19S 3195   7.722   6.455   8.043  2.8261 -0.6085 -0.3505
   24SAPC  C220 3196   7.801   6.636   7.967  0.6308 -0.3160 -0.0236
   24SAPC  H20R 3197   7.797   6.685   7.867 -2.5705 -2.2031 -0.9588
   24SAPC  H20S 3198   7.908   6.611   7.981  0.5046 -2.6735 -2.6136
   24SAPC  H20T 3199   7.757   6.706   8.042 -0.2956  0.6990 -1.4555
   24SAPC   C33 3200   6.571   7.202   9.178  0.9475 -0.8428  0.1751
   24SAPC   H3X 3201   6.558   7.296   9.235 -0.6377  0.5506 -2.3128
   24SAPC   H3Y 3202   6.475   7.146   9.176 -0.1772  1.0184 -0.3343
   24SAPC   C34 3203   6.619   7.230   9.032  0.4057 -0.8698  0.2211
   24SAPC   H4X 3204   6.725   7.264   9.032  0.0451  0.3621  1.3090
   24SAPC   H4Y 3205   6.560   7.315   8.992  1.8758 -0.0233 -0.2327
   24SAPC   C35 3206   6.616   7.110   8.943  0.0880  0.0990  0.0173
   24SAPC   H5X 3207   6.563   7.016   8.973  0.9877 -1.3852 -2.7058
   24SAPC   H5Y 3208   6.723   7.086   8.930  0.0698 -0.3874  0.6744
   24SAPC   C36 3209   6.576   7.137   8.794  0.3097 -0.6868 -0.0672
   24SAPC   H6X 3210   6.591   7.242   8.761 -0.9633 -0.2412  0.6866
   24SAPC   H6Y 3211   6.467   7.117   8.792  0.4454 -1.8586  1.9986
   24SAPC   C37 3212   6.628   7.043   8.696  0.0672  0.0479 -0.2143
   24SAPC   H7X 3213   6.596   6.940   8.723  1.6474  0.3831  3.5823
   24SAPC   H7Y 3214   6.738   7.055   8.707 -0.0186  2.7305 -1.5789
   24SAPC   C38 3215   6.600   7.086   8.554  0.6400  0.7388  0.5907
   24SAPC   H8X 3216   6.600   7.197   8.548 -1.2536  0.7069 -0.4133
   24SAPC   H8Y 3217   6.503   7.052   8.514  0.9453  0.0679  0.4062
   24SAPC   C39 3218   6.712   7.040   8.458  0.7187 -0.2506 -0.3345
   24SAPC   H9X 3219   6.736   6.934   8.482  2.5657  0.1725 -0.2061
   24SAPC   H9Y 3220   6.807   7.093   8.478 -0.8376  3.0269 -1.0589
   24SAPC  C310 3221   6.669   7.050   8.309 -0.5399  0.0250 -0.3213
   24SAPC  H10X 3222   6.760   7.053   8.245  0.4376  1.3102  1.0658
   24SAPC  H10Y 3223   6.617   7.147   8.299  0.5452  0.6334 -0.2193
   24SAPC  C311 3224   6.582   6.936   8.258  0.3581  0.2775 -0.1716
   24SAPC  H11X 3225   6.497   6.928   8.329  0.7801 -1.3443  0.1839
   24SAPC  H11Y 3226   6.637   6.841   8.274  0.8761  0.7392  0.9431
   24SAPC  C312 3227   6.561   6.955   8.105 -0.2521  0.3286 -0.5628
   24SAPC  H12X 3228   6.665   6.938   8.068 -0.1959 -0.1556 -0.1997
   24SAPC  H12Y 3229   6.516   7.052   8.076 -2.5612 -0.7431 -0.8125
   24SAPC  C313 3230   6.472   6.849   8.042 -0.7056  0.7247  0.0557
   24SAPC  H13X 3231   6.368   6.838   8.080 -0.9158  0.1917 -0.6548
   24SAPC  H13Y 3232   6.522   6.753   8.067  3.5812  2.1425 -2.1060
   24SAPC  C314 3233   6.488   6.847   7.889 -0.0800  0.0804 -0.4117
   24SAPC  H14X 3234   6.597   6.857   7.871 -0.1605  2.3942  0.1093
   24SAPC  H14Y 3235   6.436   6.934   7.844  1.1204  0.9730 -0.1357
   24SAPC  C315 3236   6.428   6.717   7.832 -0.2718 -1.0138 -0.9477
   24SAPC  H15X 3237   6.317   6.722   7.842 -0.2900  0.0094 -1.4467
   24SAPC  H15Y 3238   6.474   6.629   7.882  0.6483 -0.9879 -1.7242
   24SAPC  C316 3239   6.448   6.703   7.681 -0.3903  0.0352 -0.2234
   24SAPC  H16X 3240   6.444   6.796   7.621  2.1743  0.1355 -0.3581
   24SAPC  H16Y 3241   6.366   6.638   7.643 -0.6501 -0.1491  0.6500
   24SAPC  C317 3242   6.589   6.648   7.646 -0.7423 -0.0843  0.6197
   24SAPC  H17X 3243   6.621   6.572   7.720 -1.4531 -0.5118  0.4888
   24SAPC  H17Y 3244   6.662   6.732   7.645  2.0855 -2.2988 -2.8153
   24SAPC  C318 3245   6.592   6.579   7.509 -0.0286 -0.2188 -0.3514
   24SAPC  H18X 3246   6.558   6.653   7.433  1.4663  0.4459 -0.4035
   24SAPC  H18Y 3247   6.520   6.495   7.517 -0.8478  0.6098  1.2586
   24SAPC  H18Z 3248   6.694   6.543   7.483  0.2825 -1.1888  1.9820
   25SAPC     N 3249   4.598   3.496   5.786 -0.3082  0.2028 -0.3187
   25SAPC   C12 3250   4.635   3.565   5.917 -1.0632  0.5934  0.1181
   25SAPC  H12A 3251   4.742   3.580   5.919 -0.9188 -0.4514  1.0872
   25SAPC  H12B 3252   4.621   3.487   5.990 -0.0155 -0.3036 -0.6092
   25SAPC   C13 3253   4.636   3.349   5.789 -0.3115 -0.4525  0.4983
   25SAPC  H13A 3254   4.744   3.335   5.791 -0.0749  0.8697 -1.3517
   25SAPC  H13B 3255   4.608   3.299   5.881 -0.0103 -0.8155  0.3976
   25SAPC  H13C 3256   4.598   3.307   5.698 -0.6744  0.9093  0.0025
   25SAPC   C14 3257   4.444   3.503   5.780 -0.4953 -0.1793 -0.6538
   25SAPC  H14A 3258   4.419   3.603   5.812  0.5592  0.0105 -0.3755
   25SAPC  H14B 3259   4.416   3.490   5.676 -1.5811 -0.4280 -0.3352
   25SAPC  H14C 3260   4.409   3.430   5.851  2.9480  0.4229  1.9458
   25SAPC   C15 3261   4.661   3.550   5.662  0.1548 -0.3964 -0.0514
   25SAPC  H15A 3262   4.632   3.496   5.572  0.4240 -0.0500 -0.3490
   25SAPC  H15B 3263   4.628   3.653   5.656  2.2088  0.2754 -0.4815
   25SAPC  H15C 3264   4.767   3.566   5.673 -0.1027 -0.1195  2.7942
   25SAPC   C11 3265   4.561   3.687   5.963 -0.3167  0.1857  0.3188
   25SAPC  H11A 3266   4.561   3.757   5.877  1.6945  0.3886  0.4331
   25SAPC  H11B 3267   4.622   3.738   6.041  4.2424 -1.6639 -1.6710
   25SAPC     P 3268   4.307   3.764   6.001 -0.0386 -0.4466  0.1430
   25SAPC   O13 3269   4.296   3.817   5.861 -0.2011  0.0824  0.2086
   25SAPC   O14 3270   4.187   3.692   6.052  0.0918  0.2330  0.0861
   25SAPC   O12 3271   4.429   3.665   6.019 -0.0833 -0.2958 -0.0812
   25SAPC   O11 3272   4.337   3.883   6.106  0.8055  0.4501 -0.2284
   25SAPC    C1 3273   4.393   3.859   6.232 -0.1090 -0.1174 -0.1007
   25SAPC    HA 3274   4.324   3.807   6.303  0.0575  0.8908  0.8243
   25SAPC    HB 3275   4.491   3.806   6.234 -0.5278 -1.0482 -1.8723
   25SAPC    C2 3276   4.427   4.000   6.308 -0.1423  0.5374 -0.6897
   25SAPC    HS 3277   4.531   3.997   6.347 -0.3150 -1.8887 -0.2812
   25SAPC   O21 3278   4.328   4.035   6.411 -0.7840 -0.1446  0.5585
   25SAPC   C21 3279   4.338   3.959   6.518 -0.5816  0.6025 -0.2687
   25SAPC   O22 3280   4.423   3.868   6.526 -0.8974  0.0454 -0.6299
   25SAPC   C22 3281   4.252   4.018   6.634  0.1150 -0.4814  0.2949
   25SAPC   H2R 3282   4.188   4.100   6.596  2.1749  0.7927 -0.5768
   25SAPC   H2S 3283   4.172   3.941   6.647 -0.1075 -0.2935  0.0620
   25SAPC    C3 3284   4.430   4.123   6.216 -0.0375 -0.5249  0.4944
   25SAPC    HX 3285   4.325   4.114   6.180  0.3800 -0.9464 -0.6848
   25SAPC    HY 3286   4.488   4.094   6.125 -1.4122 -2.1801  0.0764
   25SAPC   O31 3287   4.479   4.248   6.268 -0.1964 -0.5414  0.2140
   25SAPC   C31 3288   4.388   4.347   6.253 -0.3429  0.0595 -0.3553
   25SAPC   O32 3289   4.272   4.335   6.220  0.1519 -0.1841  0.2993
   25SAPC   C32 3290   4.449   4.475   6.316 -0.4977 -0.2859  0.2990
   25SAPC   H2X 3291   4.392   4.566   6.289 -1.9035 -1.9339 -2.8203
   25SAPC   H2Y 3292   4.551   4.490   6.275 -0.1609 -1.4211  0.6826
   25SAPC   C23 3293   4.326   4.047   6.770  0.6652  0.0021  0.4572
   25SAPC   H3R 3294   4.384   4.140   6.758  1.0022 -0.1655  0.7608
   25SAPC   H3S 3295   4.394   3.960   6.782  0.2502 -0.3677  0.1609
   25SAPC   C24 3296   4.233   4.031   6.894 -0.1539 -0.5566  0.3078
   25SAPC   H4R 3297   4.288   4.023   6.990  2.0832 -0.2216 -0.8827
   25SAPC   H4S 3298   4.168   3.943   6.873 -1.0200  0.3864 -1.1958
   25SAPC   C25 3299   4.148   4.156   6.908  0.4672  0.3948 -0.3589
   25SAPC   H5R 3300   4.193   4.246   6.953  0.4915 -0.5298  1.5165
   25SAPC   C26 3301   4.019   4.176   6.868  0.1926 -0.0481 -0.2186
   25SAPC   H6R 3302   3.975   4.273   6.896 -0.5442  0.0828 -1.7507
   25SAPC   C27 3303   3.926   4.067   6.821  0.0665 -0.2486  0.1983
   25SAPC   H7R 3304   3.941   3.978   6.884  1.0795 -0.2050  0.0293
   25SAPC   H7S 3305   3.958   4.045   6.716  1.1441 -3.1214  1.0302
   25SAPC   C28 3306   3.777   4.101   6.801 -0.1231 -0.1254 -0.4608
   25SAPC   H8R 3307   3.745   4.124   6.699  0.6875 -1.4590 -1.0384
   25SAPC   C29 3308   3.690   4.122   6.902  0.3017 -0.5580  0.2962
   25SAPC   H9R 3309   3.585   4.125   6.870  0.1833 -0.1994  0.7123
   25SAPC  C210 3310   3.719   4.108   7.055 -0.3213 -1.0059  0.6314
   25SAPC  H10R 3311   3.829   4.124   7.056 -0.6248  1.8913 -0.5164
   25SAPC  H10S 3312   3.686   4.008   7.090  0.3593 -1.5531 -0.2347
   25SAPC  C211 3313   3.675   4.226   7.148  0.3505  0.0708  0.1302
   25SAPC  H11R 3314   3.633   4.320   7.109  0.8856  1.1271  1.9667
   25SAPC  C212 3315   3.703   4.226   7.281  0.3700  0.7076  0.8626
   25SAPC  H12R 3316   3.679   4.318   7.337 -0.5796  0.1172  1.4520
   25SAPC  C213 3317   3.774   4.111   7.357  0.4972  0.1841  0.8941
   25SAPC  H13R 3318   3.869   4.081   7.308  1.0034 -0.7145  2.3678
   25SAPC  H13S 3319   3.712   4.020   7.342 -1.3482  1.5983 -0.4144
   25SAPC  C214 3320   3.788   4.133   7.505 -0.5199 -0.2201  0.1688
   25SAPC  H14R 3321   3.892   4.161   7.530 -0.2052 -2.6932  1.9119
   25SAPC  C215 3322   3.700   4.147   7.598 -0.2184 -0.8067  0.2839
   25SAPC  H15R 3323   3.749   4.154   7.697  0.7622  1.4432 -0.3062
   25SAPC  C216 3324   3.555   4.127   7.582 -0.4463  0.0591 -0.1566
   25SAPC  H16R 3325   3.524   4.026   7.614 -0.6288  0.1383 -0.0794
   25SAPC  H16S 3326   3.517   4.135   7.478  0.2392  0.1728 -0.4025
   25SAPC  C217 3327   3.474   4.229   7.677 -1.2610 -0.2962  1.0901
   25SAPC  H17R 3328   3.510   4.212   7.780  1.0426  0.4372  0.4754
   25SAPC  H17S 3329   3.366   4.216   7.655 -0.5655 -2.2651 -1.7142
   25SAPC  C218 3330   3.518   4.379   7.670 -0.0133  0.1477 -0.1682
   25SAPC  H18R 3331   3.517   4.416   7.565  2.6435 -0.1173 -0.3681
   25SAPC  H18S 3332   3.614   4.395   7.725 -0.0508  1.6405 -0.5015
   25SAPC  C219 3333   3.424   4.462   7.755  0.6394  0.0887  0.5218
   25SAPC  H19R 3334   3.320   4.459   7.714  1.0216 -0.4294 -0.4476
   25SAPC  H19S 3335   3.448   4.570   7.761  2.8786 -0.2962 -0.6612
   25SAPC  C220 3336   3.411   4.423   7.905  0.1476 -0.1299 -0.3415
   25SAPC  H20R 3337   3.348   4.332   7.917  0.3197 -0.4156 -1.4682
   25SAPC  H20S 3338   3.360   4.504   7.961 -1.1288 -0.7625 -0.5433
   25SAPC  H20T 3339   3.515   4.404   7.940 -0.5713 -1.8089  1.0271
   25SAPC   C33 3340   4.470   4.457   6.466  0.4112 -0.3142 -0.8819
   25SAPC   H3X 3341   4.520   4.548   6.504  0.7509 -1.2759  1.1044
   25SAPC   H3Y 3342   4.533   4.366   6.473  1.1543  0.3197  1.7645
   25SAPC   C34 3343   4.342   4.453   6.546 -0.8396  0.2643  0.3408
   25SAPC   H4X 3344   4.284   4.358   6.545 -0.2153 -0.1279  0.6284
   25SAPC   H4Y 3345   4.276   4.538   6.516  0.4050  1.5059  0.9950
   25SAPC   C35 3346   4.353   4.500   6.696  0.1398 -0.9727  0.9105
   25SAPC   H5X 3347   4.415   4.592   6.705 -0.3267 -0.6668  1.0444
   25SAPC   H5Y 3348   4.432   4.432   6.733  0.3223 -0.2464  1.9227
   25SAPC   C36 3349   4.212   4.500   6.769 -0.1521  0.4446  0.3722
   25SAPC   H6X 3350   4.161   4.404   6.745 -0.0649  0.1580  1.3131
   25SAPC   H6Y 3351   4.148   4.578   6.722 -1.3559 -0.7818 -0.0801
   25SAPC   C37 3352   4.220   4.524   6.920  0.2618 -1.1132  0.3650
   25SAPC   H7X 3353   4.282   4.614   6.940 -0.1098 -0.1080 -2.4662
   25SAPC   H7Y 3354   4.264   4.439   6.977  0.0062 -0.7729  1.0798
   25SAPC   C38 3355   4.074   4.542   6.978  0.1975  0.2721  0.0843
   25SAPC   H8X 3356   3.996   4.484   6.925 -0.4453  0.9178  0.3096
   25SAPC   H8Y 3357   4.043   4.645   6.952 -1.3528  0.2046  1.5384
   25SAPC   C39 3358   4.066   4.514   7.124  0.4888 -0.0221 -0.1828
   25SAPC   H9X 3359   4.123   4.582   7.190  0.1010  0.2289 -0.1021
   25SAPC   H9Y 3360   4.110   4.413   7.135 -0.0053 -0.3184 -0.8425
   25SAPC  C310 3361   3.919   4.521   7.174  0.3198  1.0930 -0.0342
   25SAPC  H10X 3362   3.867   4.424   7.158  2.3053 -0.2811  1.4594
   25SAPC  H10Y 3363   3.853   4.596   7.125 -0.6947  0.9793  1.1008
   25SAPC  C311 3364   3.904   4.557   7.325  0.2461 -0.1084 -0.0552
   25SAPC  H11X 3365   3.992   4.532   7.388  0.4041  1.5316  0.4355
   25SAPC  H11Y 3366   3.804   4.531   7.367 -0.5907  0.3495 -1.6689
   25SAPC  C312 3367   3.904   4.711   7.337  0.4996 -1.0746  0.2893
   25SAPC  H12X 3368   3.835   4.749   7.260 -0.6040 -3.0034  0.2754
   25SAPC  H12Y 3369   4.005   4.749   7.310  0.3994 -0.1181  1.1709
   25SAPC  C313 3370   3.871   4.756   7.478  0.8888  0.0051 -0.3207
   25SAPC  H13X 3371   3.768   4.724   7.508 -0.3764  2.6857 -1.4675
   25SAPC  H13Y 3372   3.869   4.867   7.480 -2.2025  0.0756  2.3810
   25SAPC  C314 3373   3.957   4.695   7.591 -0.1630 -0.5537 -0.8427
   25SAPC  H14X 3374   4.061   4.705   7.555 -1.2256 -0.7361 -4.3895
   25SAPC  H14Y 3375   3.936   4.587   7.606 -0.9057 -0.5408 -1.7093
   25SAPC  C315 3376   3.927   4.775   7.725  0.9881  0.0655  0.3321
   25SAPC  H15X 3377   3.941   4.885   7.714 -0.3111  0.1377 -0.9107
   25SAPC  H15Y 3378   4.006   4.736   7.792  1.1107  0.4749  0.4308
   25SAPC  C316 3379   3.785   4.756   7.785 -0.6193  0.3486  0.1771
   25SAPC  H16X 3380   3.769   4.650   7.811 -1.0281  0.2481 -0.4430
   25SAPC  H16Y 3381   3.704   4.775   7.711 -1.7828 -1.4191  0.9368
   25SAPC  C317 3382   3.758   4.847   7.906 -0.6872 -0.5688 -0.4665
   25SAPC  H17X 3383   3.650   4.834   7.931 -0.6160  1.5740  1.2835
   25SAPC  H17Y 3384   3.772   4.953   7.876 -0.5965  0.7206  3.5249
   25SAPC  C318 3385   3.854   4.827   8.027 -0.2527  0.3759 -0.5645
   25SAPC  H18X 3386   3.958   4.846   7.994 -0.1377 -1.2723 -1.2549
   25SAPC  H18Y 3387   3.850   4.722   8.062 -0.5442  0.9406  1.1903
   25SAPC  H18Z 3388   3.831   4.890   8.115  0.0896 -0.1679 -0.0828
   26SAPC     N 3389   3.988   4.928   5.841  0.5182  0.0183  0.2521
   26SAPC   C12 3390   4.122   4.918   5.908 -0.4408 -0.5744 -0.7133
   26SAPC  H12A 3391   4.195   4.886   5.835  0.4245 -0.7254  0.2099
   26SAPC  H12B 3392   4.104   4.833   5.971  0.5020  0.1318  0.5522
   26SAPC   C13 3393   3.894   5.007   5.934 -0.0538  0.0694 -0.0859
   26SAPC  H13A 3394   3.910   4.968   6.033  2.1026  1.2090  0.0788
   26SAPC  H13B 3395   3.906   5.114   5.925 -0.8737  0.2965  1.3134
   26SAPC  H13C 3396   3.794   4.978   5.906  0.6489 -0.8847 -1.8276
   26SAPC   C14 3397   3.998   4.999   5.707  0.2478  0.3073  0.9786
   26SAPC  H14A 3398   3.899   5.029   5.674 -0.5651 -2.1627  0.9853
   26SAPC  H14B 3399   4.056   5.090   5.717 -0.4059  0.9080 -0.4273
   26SAPC  H14C 3400   4.032   4.938   5.625  0.2666  1.4361  0.1249
   26SAPC   C15 3401   3.940   4.787   5.824  0.1043 -0.0286 -0.8861
   26SAPC  H15A 3402   3.839   4.769   5.792 -0.0354 -2.9375  0.8998
   26SAPC  H15B 3403   4.003   4.739   5.750 -0.4170  1.7216 -2.5518
   26SAPC  H15C 3404   3.952   4.726   5.912  3.4947  0.3318 -0.9369
   26SAPC   C11 3405   4.203   5.030   5.973 -0.0920 -0.0290  0.3532
   26SAPC  H11A 3406   4.305   4.994   5.997 -0.0574  0.1999  0.5650
   26SAPC  H11B 3407   4.148   5.051   6.068 -2.7662 -2.0874 -0.6018
   26SAPC     P 3408   4.333   5.191   5.820 -0.3568  0.0298 -0.1478
   26SAPC   O13 3409   4.401   5.084   5.741 -0.3254 -0.0120  0.5629
   26SAPC   O14 3410   4.308   5.318   5.742 -0.2039  0.0716 -0.1992
   26SAPC   O12 3411   4.196   5.143   5.888 -0.5739 -0.5899  0.2866
   26SAPC   O11 3412   4.413   5.238   5.946 -0.4954 -0.1094  0.2607
   26SAPC    C1 3413   4.358   5.319   6.045  0.0756 -0.1595  0.0384
   26SAPC    HA 3414   4.262   5.362   6.009  0.0692 -0.7301 -0.6385
   26SAPC    HB 3415   4.339   5.251   6.131 -1.1425 -1.3073 -1.1058
   26SAPC    C2 3416   4.456   5.428   6.092  0.2239  0.0316 -0.4098
   26SAPC    HS 3417   4.477   5.490   6.002  0.4942  0.5694  0.0144
   26SAPC   O21 3418   4.580   5.370   6.150 -0.6515 -0.5169  0.1001
   26SAPC   C21 3419   4.679   5.463   6.161 -0.1824  0.5125 -0.1808
   26SAPC   O22 3420   4.675   5.579   6.121 -0.3992 -0.5060 -0.2177
   26SAPC   C22 3421   4.799   5.403   6.220  0.0935 -0.4186 -0.2219
   26SAPC   H2R 3422   4.856   5.359   6.136  0.3685 -0.2968 -0.1000
   26SAPC   H2S 3423   4.847   5.493   6.264  1.2241 -1.4880  0.8192
   26SAPC    C3 3424   4.390   5.521   6.203 -0.1034 -0.8910 -0.0625
   26SAPC    HX 3425   4.290   5.552   6.164 -0.2340 -0.7461  0.3825
   26SAPC    HY 3426   4.445   5.615   6.222 -2.7701  1.5004 -3.1043
   26SAPC   O31 3427   4.369   5.450   6.325 -0.2458  0.2494  0.2541
   26SAPC   C31 3428   4.256   5.471   6.392  0.6097  0.9176  0.1017
   26SAPC   O32 3429   4.179   5.556   6.362  0.2368 -0.9660  0.3183
   26SAPC   C32 3430   4.241   5.377   6.508  0.5403  0.6042  0.3689
   26SAPC   H2X 3431   4.325   5.305   6.511 -1.3790 -1.7452  2.3413
   26SAPC   H2Y 3432   4.141   5.327   6.504  1.3728 -1.0837 -0.1724
   26SAPC   C23 3433   4.784   5.298   6.328  0.0932 -0.0723  0.0192
   26SAPC   H3R 3434   4.882   5.285   6.379 -0.4562 -0.1030  1.1118
   26SAPC   H3S 3435   4.768   5.211   6.261  1.5488 -0.2133 -0.1878
   26SAPC   C24 3436   4.664   5.313   6.434  0.1421 -0.1872  1.1834
   26SAPC   H4R 3437   4.667   5.208   6.472 -0.7657 -0.5889  0.2071
   26SAPC   H4S 3438   4.563   5.324   6.389 -0.1923 -2.0954  1.3647
   26SAPC   C25 3439   4.678   5.420   6.546 -0.4140 -0.9076  0.1187
   26SAPC   H5R 3440   4.658   5.525   6.520 -3.2513 -0.5691  2.9704
   26SAPC   C26 3441   4.689   5.399   6.676 -0.4280 -0.4851 -0.2506
   26SAPC   H6R 3442   4.719   5.487   6.734  0.6142 -0.1776 -1.2180
   26SAPC   C27 3443   4.714   5.272   6.756  0.6517 -0.1450 -0.5359
   26SAPC   H7R 3444   4.812   5.273   6.809 -0.1239 -0.0588  0.9350
   26SAPC   H7S 3445   4.697   5.177   6.702 -0.2766 -0.2649 -0.0564
   26SAPC   C28 3446   4.618   5.263   6.871  0.4262 -0.4017 -0.4882
   26SAPC   H8R 3447   4.513   5.295   6.858 -1.4617 -4.1653  3.0451
   26SAPC   C29 3448   4.643   5.215   6.994  0.4006  0.1528  0.2080
   26SAPC   H9R 3449   4.567   5.231   7.071 -2.1466 -0.0526 -2.1123
   26SAPC  C210 3450   4.778   5.165   7.042 -0.4952  0.4682  0.1005
   26SAPC  H10R 3451   4.848   5.251   7.036  0.7952 -0.4242  1.4252
   26SAPC  H10S 3452   4.811   5.083   6.975 -1.4522  1.1473 -1.2516
   26SAPC  C211 3453   4.777   5.116   7.181  0.1054  0.3460  0.1664
   26SAPC  H11R 3454   4.729   5.018   7.199 -0.2748  0.7790  1.7164
   26SAPC  C212 3455   4.824   5.184   7.291 -0.4210 -0.0782  0.1460
   26SAPC  H12R 3456   4.822   5.130   7.387  1.2615  0.2335  0.3913
   26SAPC  C213 3457   4.884   5.322   7.282  0.3029  0.1131  0.0034
   26SAPC  H13R 3458   4.959   5.329   7.201  0.1879 -0.0072 -0.1138
   26SAPC  H13S 3459   4.949   5.329   7.372 -0.0245  1.7282  0.1369
   26SAPC  C214 3460   4.792   5.440   7.262 -0.7576  0.2207 -0.3251
   26SAPC  H14R 3461   4.743   5.453   7.165  0.3251 -0.7702 -1.0331
   26SAPC  C215 3462   4.752   5.520   7.364 -0.1316  0.7474 -0.1010
   26SAPC  H15R 3463   4.684   5.601   7.332 -1.6038 -0.7100 -0.7934
   26SAPC  C216 3464   4.793   5.508   7.509  0.1125  0.6914 -0.3848
   26SAPC  H16R 3465   4.780   5.405   7.548 -1.6709  0.1795 -2.1195
   26SAPC  H16S 3466   4.727   5.583   7.558 -1.0573  0.6506 -1.8199
   26SAPC  C217 3467   4.931   5.552   7.547 -0.2160  0.0428 -0.0221
   26SAPC  H17R 3468   4.966   5.641   7.490 -1.6482 -1.3083 -3.2408
   26SAPC  H17S 3469   5.010   5.479   7.520 -0.3276  0.2445 -0.9072
   26SAPC  C218 3470   4.948   5.584   7.704  0.2860 -0.8849  0.3591
   26SAPC  H18R 3471   4.878   5.667   7.728  2.4601  1.5906 -1.3006
   26SAPC  H18S 3472   5.049   5.614   7.741 -0.7649  2.0144  1.1421
   26SAPC  C219 3473   4.913   5.467   7.799 -0.4476 -0.4556 -0.1673
   26SAPC  H19R 3474   4.991   5.388   7.789 -1.2006 -1.0121 -2.1384
   26SAPC  H19S 3475   4.814   5.428   7.767 -1.9197  2.3612  0.6834
   26SAPC  C220 3476   4.905   5.510   7.943  0.4578  0.6076 -0.1043
   26SAPC  H20R 3477   4.812   5.569   7.956 -0.0362  0.2709 -1.8698
   26SAPC  H20S 3478   4.992   5.574   7.970  0.0628  1.0850  0.0560
   26SAPC  H20T 3479   4.901   5.420   8.008 -0.2186  0.9416  0.3327
   26SAPC   C33 3480   4.248   5.456   6.633 -0.4582  0.2179 -0.7643
   26SAPC   H3X 3481   4.163   5.527   6.647 -0.2042  0.4462 -0.3658
   26SAPC   H3Y 3482   4.339   5.518   6.645  1.2155 -2.1149 -0.7661
   26SAPC   C34 3483   4.249   5.374   6.768 -0.1025 -0.0924 -0.1350
   26SAPC   H4X 3484   4.336   5.305   6.776  1.2562  1.5961  0.2994
   26SAPC   H4Y 3485   4.157   5.312   6.778 -0.0309  0.0442  1.7838
   26SAPC   C35 3486   4.245   5.468   6.889 -0.6623  0.9540 -0.4530
   26SAPC   H5X 3487   4.168   5.548   6.890 -0.5395  1.0876 -1.1078
   26SAPC   H5Y 3488   4.346   5.513   6.880 -1.1251  2.2574  0.4523
   26SAPC   C36 3489   4.245   5.389   7.026  0.1084  0.4328  0.0245
   26SAPC   H6X 3490   4.333   5.322   7.018 -0.4485 -0.3443  0.2588
   26SAPC   H6Y 3491   4.159   5.321   7.043  0.8100  0.0351  2.4591
   26SAPC   C37 3492   4.268   5.473   7.154 -0.2733 -0.0603 -0.5921
   26SAPC   H7X 3493   4.169   5.524   7.161  0.1839  0.8525 -0.7050
   26SAPC   H7Y 3494   4.354   5.542   7.144  0.0836 -0.4497 -0.2761
   26SAPC   C38 3495   4.287   5.377   7.270  0.5924  0.0168 -0.2322
   26SAPC   H8X 3496   4.358   5.293   7.254 -0.0134 -0.3798 -0.9063
   26SAPC   H8Y 3497   4.185   5.335   7.283  0.7681  0.2216  2.1613
   26SAPC   C39 3498   4.320   5.450   7.404 -0.5804  0.7959  0.4766
   26SAPC   H9X 3499   4.223   5.495   7.433 -0.6401  0.3776  0.9328
   26SAPC   H9Y 3500   4.397   5.530   7.396  0.1558  0.5458  3.6851
   26SAPC  C310 3501   4.383   5.357   7.510 -0.6117 -0.5755 -0.7366
   26SAPC  H10X 3502   4.486   5.335   7.477  0.6264  0.9404  1.8361
   26SAPC  H10Y 3503   4.317   5.268   7.521 -1.4299  0.0969  0.0121
   26SAPC  C311 3504   4.404   5.428   7.647  0.5325  1.0465 -0.1158
   26SAPC  H11X 3505   4.311   5.439   7.707  1.3909  3.4057  0.9049
   26SAPC  H11Y 3506   4.436   5.534   7.635  1.2647  1.1361  2.1105
   26SAPC  C312 3507   4.499   5.352   7.746 -0.2220 -0.4098  0.4515
   26SAPC  H12X 3508   4.585   5.309   7.689 -1.2867  0.2464 -1.7650
   26SAPC  H12Y 3509   4.454   5.260   7.790 -1.3554  0.1837  0.5563
   26SAPC  C313 3510   4.537   5.440   7.865 -0.3460 -0.0479  0.2187
   26SAPC  H13X 3511   4.541   5.547   7.835  1.6913  0.8369  3.2664
   26SAPC  H13Y 3512   4.637   5.406   7.897 -1.8529 -2.5925  2.6175
   26SAPC  C314 3513   4.437   5.424   7.984  0.2883 -0.0030  0.0501
   26SAPC  H14X 3514   4.435   5.315   8.002 -2.1722 -0.4796 -2.3226
   26SAPC  H14Y 3515   4.337   5.451   7.943  1.3026  3.0195 -0.7134
   26SAPC  C315 3516   4.469   5.521   8.101  0.5215  0.5153  0.3380
   26SAPC  H15X 3517   4.481   5.626   8.066 -0.4606  1.0088  1.4427
   26SAPC  H15Y 3518   4.569   5.483   8.131 -0.8479 -0.6557  3.9460
   26SAPC  C316 3519   4.382   5.514   8.223  0.8163  0.6302 -0.9964
   26SAPC  H16X 3520   4.364   5.408   8.251  1.5264  0.7131 -0.2216
   26SAPC  H16Y 3521   4.287   5.562   8.191  0.4923  0.0367 -0.9429
   26SAPC  C317 3522   4.451   5.588   8.330  0.0151  0.0227  0.2577
   26SAPC  H17X 3523   4.485   5.691   8.304 -0.0652  0.0841  0.3983
   26SAPC  H17Y 3524   4.538   5.528   8.366 -0.4930 -0.4824  0.6589
   26SAPC  C318 3525   4.347   5.612   8.439  0.3812 -0.4410  0.2695
   26SAPC  H18X 3526   4.321   5.520   8.496  0.7192  0.3178  1.6799
   26SAPC  H18Y 3527   4.252   5.651   8.398 -1.3805 -1.4394  3.1079
   26SAPC  H18Z 3528   4.379   5.698   8.502  0.1404 -0.8421  0.9531
   27SAPC     N 3529   2.852   0.743   5.304  0.4396  0.3387  0.4447
   27SAPC   C12 3530   2.942   0.649   5.376  1.0102 -0.1414  0.8740
   27SAPC  H12A 3531   3.034   0.706   5.388 -0.6409  2.6222  1.3085
   27SAPC  H12B 3532   2.966   0.559   5.321 -1.3781 -0.4706  0.2891
   27SAPC   C13 3533   2.913   0.797   5.181  0.0400  0.0981  0.4999
   27SAPC  H13A 3534   2.917   0.713   5.112  2.4726  1.5926 -1.3402
   27SAPC  H13B 3535   2.845   0.859   5.125 -1.3351 -2.4153 -0.7660
   27SAPC  H13C 3536   3.011   0.838   5.199  1.5611 -1.5854 -2.9910
   27SAPC   C14 3537   2.726   0.681   5.261  0.3407  0.3685 -0.1178
   27SAPC  H14A 3538   2.645   0.752   5.253  0.1077  0.1244  0.0563
   27SAPC  H14B 3539   2.733   0.620   5.172  0.1105 -0.4873  0.4348
   27SAPC  H14C 3540   2.697   0.622   5.346 -0.2490  2.9805  1.5856
   27SAPC   C15 3541   2.818   0.861   5.392 -0.4521  0.8585  0.4508
   27SAPC  H15A 3542   2.791   0.813   5.485  2.6218 -0.5000  0.7839
   27SAPC  H15B 3543   2.902   0.924   5.416 -0.8880  1.1118  1.3232
   27SAPC  H15C 3544   2.736   0.923   5.360 -0.1781 -0.0871 -2.4105
   27SAPC   C11 3545   2.893   0.611   5.523  0.7204 -0.6315  0.2016
   27SAPC  H11A 3546   2.898   0.699   5.590 -1.0459 -0.1007 -0.3314
   27SAPC  H11B 3547   2.967   0.545   5.573  1.8443 -0.1327 -0.7503
   27SAPC     P 3548   2.743   0.392   5.537  0.1667 -0.6508 -0.5693
   27SAPC   O13 3549   2.600   0.359   5.516 -0.7765 -0.0297 -0.3172
   27SAPC   O14 3550   2.832   0.329   5.440  0.2489  0.5755 -0.3182
   27SAPC   O12 3551   2.759   0.553   5.529 -0.0531 -0.0238  0.0797
   27SAPC   O11 3552   2.789   0.364   5.691  0.9213  0.4213 -0.2471
   27SAPC    C1 3553   2.737   0.442   5.799  0.9441 -0.6147  0.2164
   27SAPC    HA 3554   2.800   0.530   5.826 -1.1039  1.7279 -2.0913
   27SAPC    HB 3555   2.638   0.488   5.778  0.9626  0.3958  2.1298
   27SAPC    C2 3556   2.708   0.356   5.923 -0.0853 -0.1004 -0.2353
   27SAPC    HS 3557   2.636   0.274   5.904 -0.6445  0.4922 -0.7428
   27SAPC   O21 3558   2.675   0.427   6.036  0.2042 -0.5506 -0.8436
   27SAPC   C21 3559   2.546   0.458   6.054 -0.5310  0.8429  0.0886
   27SAPC   O22 3560   2.453   0.433   5.978 -0.4062  0.2971 -0.5796
   27SAPC   C22 3561   2.524   0.531   6.184 -0.7746  0.2682  0.3868
   27SAPC   H2R 3562   2.570   0.632   6.180 -1.3909  0.5306 -0.5194
   27SAPC   H2S 3563   2.415   0.545   6.200 -0.3822  1.7003  2.0600
   27SAPC    C3 3564   2.829   0.271   5.952  0.4088 -0.1441 -0.2944
   27SAPC    HX 3565   2.921   0.331   5.938  0.2890  0.0135 -0.4164
   27SAPC    HY 3566   2.845   0.195   5.873  1.0971  3.1205 -3.5768
   27SAPC   O31 3567   2.829   0.219   6.083 -0.1621 -0.3804 -0.3868
   27SAPC   C31 3568   2.748   0.113   6.106 -0.1972 -0.1826 -0.1928
   27SAPC   O32 3569   2.697   0.039   6.025  0.2555  0.2985  0.3086
   27SAPC   C32 3570   2.725   0.102   6.255 -0.8376  0.2011  0.5763
   27SAPC   H2X 3571   2.727   0.204   6.298  0.6954  0.2602  0.4016
   27SAPC   H2Y 3572   2.806   0.040   6.299 -0.0336  0.0049 -1.1032
   27SAPC   C23 3573   2.582   0.449   6.299 -0.4542  0.2259  0.2097
   27SAPC   H3R 3574   2.690   0.435   6.281 -0.7098 -0.2298 -1.0788
   27SAPC   H3S 3575   2.543   0.346   6.312  1.8784 -0.9212 -1.2142
   27SAPC   C24 3576   2.577   0.527   6.435  0.5438 -0.2020  0.2489
   27SAPC   H4R 3577   2.468   0.518   6.449  0.5391 -1.8779 -0.6568
   27SAPC   H4S 3578   2.596   0.636   6.421 -2.3842  0.0844 -2.5694
   27SAPC   C25 3579   2.661   0.479   6.552  0.4743 -0.0174  0.0942
   27SAPC   H5R 3580   2.764   0.452   6.524 -0.1717 -2.7223  0.0117
   27SAPC   C26 3581   2.625   0.489   6.680  0.6852  0.2136 -0.5953
   27SAPC   H6R 3582   2.699   0.480   6.762  0.8154  1.3337 -0.5795
   27SAPC   C27 3583   2.490   0.538   6.733 -0.0640  0.3808  0.7075
   27SAPC   H7R 3584   2.448   0.618   6.668  1.5059  0.3480 -0.3949
   27SAPC   H7S 3585   2.507   0.593   6.828 -3.8605  2.2356  0.4823
   27SAPC   C28 3586   2.398   0.426   6.750  0.3879  0.4153 -0.3169
   27SAPC   H8R 3587   2.363   0.382   6.655 -0.4321  0.0689  0.1278
   27SAPC   C29 3588   2.369   0.367   6.869  0.0648 -0.8080 -0.4983
   27SAPC   H9R 3589   2.292   0.288   6.870  2.6504 -3.4873  0.4030
   27SAPC  C210 3590   2.441   0.402   7.002  0.3818  0.5140 -0.6706
   27SAPC  H10R 3591   2.545   0.432   6.978  0.1069  1.0980 -1.1607
   27SAPC  H10S 3592   2.433   0.314   7.070  1.8533  0.9636  0.1365
   27SAPC  C211 3593   2.394   0.515   7.087 -0.1793 -0.4216 -0.3917
   27SAPC  H11R 3594   2.295   0.555   7.059  1.5903  2.0386 -3.9153
   27SAPC  C212 3595   2.447   0.549   7.206  0.3685 -0.9977 -0.3344
   27SAPC  H12R 3596   2.391   0.617   7.271  1.2754  0.5008 -1.0729
   27SAPC  C213 3597   2.574   0.489   7.257  0.4946 -0.0788  0.2883
   27SAPC  H13R 3598   2.619   0.584   7.291 -2.9688  1.4388  1.0940
   27SAPC  H13S 3599   2.643   0.444   7.183 -1.5115 -1.3620 -0.9191
   27SAPC  C214 3600   2.573   0.409   7.384 -0.1502  0.0840  0.2998
   27SAPC  H14R 3601   2.480   0.365   7.422  1.0272 -1.7471  1.2033
   27SAPC  C215 3602   2.683   0.371   7.451 -0.1680  0.8864 -0.8496
   27SAPC  H15R 3603   2.691   0.293   7.528 -0.2997  0.8405 -0.8824
   27SAPC  C216 3604   2.817   0.424   7.420  0.2401  0.4162  0.3942
   27SAPC  H16R 3605   2.807   0.528   7.381 -1.5943  0.1464  0.0091
   27SAPC  H16S 3606   2.868   0.363   7.343  0.8592  0.4077  0.8092
   27SAPC  C217 3607   2.920   0.429   7.536  0.1143 -0.4175  0.0849
   27SAPC  H17R 3608   2.946   0.327   7.571 -0.6404 -0.1182  1.6226
   27SAPC  H17S 3609   2.870   0.484   7.619  2.5267  1.5825  0.3601
   27SAPC  C218 3610   3.057   0.505   7.526 -0.4494 -0.3481 -0.2463
   27SAPC  H18R 3611   3.044   0.615   7.513  0.5253 -0.2328 -0.2767
   27SAPC  H18S 3612   3.110   0.441   7.452 -1.4593 -0.4322 -0.9220
   27SAPC  C219 3613   3.147   0.480   7.653 -0.1009  0.3005  0.4252
   27SAPC  H19R 3614   3.250   0.511   7.626 -0.3204 -1.2913 -2.7617
   27SAPC  H19S 3615   3.154   0.370   7.667 -0.9186  0.3740  1.5340
   27SAPC  C220 3616   3.099   0.549   7.777  0.2648 -0.0386  0.9731
   27SAPC  H20R 3617   3.050   0.643   7.745 -2.7024 -1.9595 -0.5508
   27SAPC  H20S 3618   3.190   0.572   7.837 -0.4409  2.0315  1.3313
   27SAPC  H20T 3619   3.023   0.494   7.836  0.2602 -0.4089  0.6275
   27SAPC   C33 3620   2.588   0.034   6.286  0.2757  0.8120  0.0946
   27SAPC   H3X 3621   2.592  -0.072   6.252 -1.7734  0.5721  0.4370
   27SAPC   H3Y 3622   2.509   0.083   6.225 -0.2682  1.5226  1.3360
   27SAPC   C34 3623   2.535   0.057   6.426 -0.3126  0.5111 -0.1776
   27SAPC   H4X 3624   2.452  -0.013   6.449  0.1988  0.2709  0.9858
   27SAPC   H4Y 3625   2.501   0.161   6.441  1.5163  0.8615  1.9770
   27SAPC   C35 3626   2.643   0.024   6.536 -0.6486 -0.2167 -0.3427
   27SAPC   H5X 3627   2.735   0.086   6.533  0.1296 -0.6076  5.3688
   27SAPC   H5Y 3628   2.673  -0.079   6.509  0.6415 -0.0318  0.3334
   27SAPC   C36 3629   2.578   0.051   6.673 -0.1567  0.9001 -0.4201
   27SAPC   H6X 3630   2.480  -0.001   6.672 -0.3768  1.3153 -0.9503
   27SAPC   H6Y 3631   2.562   0.161   6.678 -1.2619  0.7988 -1.2952
   27SAPC   C37 3632   2.657   0.001   6.801  1.0604  0.2412  0.1439
   27SAPC   H7X 3633   2.759   0.044   6.804  1.8549 -1.5898  2.4476
   27SAPC   H7Y 3634   2.655  -0.110   6.803  1.2144  0.2472  0.6885
   27SAPC   C38 3635   2.610   0.063   6.935 -0.3506 -0.3628  0.2751
   27SAPC   H8X 3636   2.615   0.173   6.922  1.4938 -0.7246 -3.1119
   27SAPC   H8Y 3637   2.691   0.019   6.997 -1.3106 -0.8994  1.1999
   27SAPC   C39 3638   2.478   0.007   6.976  0.7017  0.4329  0.6774
   27SAPC   H9X 3639   2.459  -0.088   6.921  0.2666  1.2660 -0.6702
   27SAPC   H9Y 3640   2.407   0.085   6.941  0.7390  1.3794  2.6076
   27SAPC  C310 3641   2.456  -0.020   7.125  0.8345 -0.6236 -0.2678
   27SAPC  H10X 3642   2.502   0.054   7.194  1.3056 -0.4686 -0.7454
   27SAPC  H10Y 3643   2.488  -0.125   7.144  0.8301 -0.8142 -1.2682
   27SAPC  C311 3644   2.308  -0.037   7.166 -0.5079 -0.5176 -0.0376
   27SAPC  H11X 3645   2.284  -0.135   7.121  0.6930 -1.8989  2.1794
   27SAPC  H11Y 3646   2.248   0.047   7.124 -0.0677  0.6150  1.5025
   27SAPC  C312 3647   2.284  -0.055   7.317  0.4719 -0.5647  0.5362
   27SAPC  H12X 3648   2.325  -0.147   7.365  0.0941 -1.5015 -0.8626
   27SAPC  H12Y 3649   2.174  -0.055   7.337  0.2573  0.7111 -0.5241
   27SAPC  C313 3650   2.331   0.069   7.398  0.1655  0.0157  0.1031
   27SAPC  H13X 3651   2.301   0.162   7.346 -2.3357 -1.1702 -0.7489
   27SAPC  H13Y 3652   2.442   0.074   7.406  0.3514 -1.5882 -1.0948
   27SAPC  C314 3653   2.278   0.070   7.546  0.2107 -0.1218  0.3071
   27SAPC  H14X 3654   2.303  -0.035   7.572 -0.1626 -0.9836 -2.4951
   27SAPC  H14Y 3655   2.167   0.084   7.545 -0.2978 -3.4512 -0.6569
   27SAPC  C315 3656   2.353   0.149   7.651 -0.3437 -0.2378  0.4191
   27SAPC  H15X 3657   2.365   0.252   7.610  0.8271 -0.8292 -0.8044
   27SAPC  H15Y 3658   2.454   0.103   7.660  1.9376  3.0699 -4.1857
   27SAPC  C316 3659   2.281   0.164   7.786 -0.4600 -0.1223  0.1818
   27SAPC  H16X 3660   2.355   0.220   7.847  0.5024 -2.3180  1.1375
   27SAPC  H16Y 3661   2.265   0.066   7.835 -0.4874 -0.0538  0.3106
   27SAPC  C317 3662   2.138   0.235   7.784 -0.2376  0.3951 -0.2044
   27SAPC  H17X 3663   2.097   0.262   7.884  1.5874  4.0475 -0.2755
   27SAPC  H17Y 3664   2.077   0.155   7.737 -0.1664  0.4972 -0.4689
   27SAPC  C318 3665   2.136   0.373   7.719 -0.7424 -0.5939  0.1193
   27SAPC  H18X 3666   2.030   0.408   7.726 -0.3259  0.6830  0.4455
   27SAPC  H18Y 3667   2.172   0.371   7.614 -0.5628  1.2503  0.1040
   27SAPC  H18Z 3668   2.197   0.441   7.783 -3.0114 -0.2128  2.0344
   28SAPC     N 3669   0.028   3.779   5.171 -0.0175  0.0567  0.0116
   28SAPC   C12 3670  -0.000   3.767   5.324 -0.3210  0.0929 -0.3970
   28SAPC  H12A 3671  -0.064   3.680   5.322 -2.0731  1.2950  0.3833
   28SAPC  H12B 3672  -0.067   3.850   5.344 -1.6822 -0.7330 -1.3375
   28SAPC   C13 3673  -0.097   3.800   5.084 -0.1423 -0.5251 -0.1873
   28SAPC  H13A 3674  -0.143   3.892   5.117  0.2262 -0.3408 -0.1798
   28SAPC  H13B 3675  -0.073   3.815   4.980 -0.1445  0.8151 -0.0169
   28SAPC  H13C 3676  -0.163   3.718   5.104  2.3155 -1.9897  2.5827
   28SAPC   C14 3677   0.115   3.897   5.153 -0.0475 -0.2718 -0.4171
   28SAPC  H14A 3678   0.219   3.883   5.178 -0.0210  1.7346  0.7943
   28SAPC  H14B 3679   0.115   3.928   5.050  2.2626  0.3921 -0.2851
   28SAPC  H14C 3680   0.081   3.986   5.203  0.0990 -0.4863  0.0701
   28SAPC   C15 3681   0.079   3.648   5.117 -0.8668  0.4759  0.0213
   28SAPC  H15A 3682  -0.002   3.580   5.100  0.9560 -2.2741  1.5842
   28SAPC  H15B 3683   0.128   3.673   5.023  0.5189  1.6250  0.9905
   28SAPC  H15C 3684   0.149   3.603   5.186 -1.5921 -2.1407 -0.8436
   28SAPC   C11 3685   0.117   3.729   5.419  0.1610  0.1644 -0.0306
   28SAPC  H11A 3686   0.085   3.734   5.525  0.9666  0.1790  0.2219
   28SAPC  H11B 3687   0.201   3.800   5.402  3.2137 -3.4685 -1.5642
   28SAPC     P 3688   0.139   3.473   5.457  0.5680 -0.0101  0.3958
   28SAPC   O13 3689   0.000   3.437   5.418 -0.4380  0.6366 -0.2759
   28SAPC   O14 3690   0.248   3.371   5.438  0.2636 -0.1597  0.1098
   28SAPC   O12 3691   0.176   3.605   5.383 -0.2427 -0.6919  1.0782
   28SAPC   O11 3692   0.134   3.518   5.609 -0.1550  0.1441  0.7811
   28SAPC    C1 3693   0.241   3.569   5.684  0.4295 -0.5188 -0.5400
   28SAPC    HA 3694   0.329   3.595   5.622 -1.1836 -0.2597 -2.8616
   28SAPC    HB 3695   0.219   3.660   5.743 -0.1106  1.0992 -3.0593
   28SAPC    C2 3696   0.295   3.454   5.776 -0.4462 -0.0637 -0.3690
   28SAPC    HS 3697   0.304   3.358   5.721 -1.0977  1.1021 -2.6102
   28SAPC   O21 3698   0.209   3.447   5.893 -0.6203  0.0104  0.4617
   28SAPC   C21 3699   0.157   3.325   5.909 -0.0242 -0.3038  0.6265
   28SAPC   O22 3700   0.166   3.232   5.834 -0.1787 -0.1003  0.5343
   28SAPC   C22 3701   0.069   3.323   6.031  0.7620  0.1403 -0.1570
   28SAPC   H2R 3702  -0.009   3.400   6.010 -1.8248 -2.6753 -1.5800
   28SAPC   H2S 3703   0.029   3.220   6.028 -0.7790  0.7276 -0.6386
   28SAPC    C3 3704   0.433   3.490   5.825  0.5139  0.2416  0.0547
   28SAPC    HX 3705   0.499   3.528   5.744  0.1696 -0.9592 -0.8365
   28SAPC    HY 3706   0.488   3.400   5.858  0.8903  0.3064 -0.3833
   28SAPC   O31 3707   0.428   3.596   5.923 -0.2915  0.5001  0.1297
   28SAPC   C31 3708   0.555   3.626   5.963 -0.1861  0.3615 -0.1450
   28SAPC   O32 3709   0.657   3.579   5.916 -0.3703  1.0091  0.2537
   28SAPC   C32 3710   0.531   3.729   6.075 -0.0936  0.4001  0.1015
   28SAPC   H2X 3711   0.433   3.712   6.125  0.5537  0.6043  1.4830
   28SAPC   H2Y 3712   0.521   3.828   6.025  0.5789  0.1415 -0.5519
   28SAPC   C23 3713   0.152   3.342   6.154  0.0504  0.2169  0.3632
   28SAPC   H3R 3714   0.179   3.449   6.165  2.0443 -0.2880  0.9592
   28SAPC   H3S 3715   0.251   3.292   6.148  0.1573  0.3290  1.0414
   28SAPC   C24 3716   0.081   3.293   6.284  0.9588  0.1454  0.0710
   28SAPC   H4R 3717   0.138   3.331   6.372 -1.6239  1.1214  1.4390
   28SAPC   H4S 3718  -0.017   3.343   6.300  0.7980 -0.6616  1.8161
   28SAPC   C25 3719   0.040   3.145   6.300  0.0583 -0.1019  0.5252
   28SAPC   H5R 3720  -0.053   3.107   6.255  0.0314 -0.3715  0.8058
   28SAPC   C26 3721   0.111   3.062   6.373 -0.4315  0.5691  0.8720
   28SAPC   H6R 3722   0.063   2.966   6.399 -0.0118  0.6637  2.0997
   28SAPC   C27 3723   0.238   3.091   6.454  0.1895  0.1231 -0.2747
   28SAPC   H7R 3724   0.228   3.169   6.533 -0.2407  0.7469 -0.9204
   28SAPC   H7S 3725   0.318   3.141   6.396  2.1155 -1.3733  0.9658
   28SAPC   C28 3726   0.318   2.971   6.502  0.1311  0.8694  0.0429
   28SAPC   H8R 3727   0.345   2.907   6.417 -0.9665  0.5996 -0.1209
   28SAPC   C29 3728   0.368   2.950   6.626 -0.9260 -0.3160  0.3729
   28SAPC   H9R 3729   0.439   2.869   6.646 -1.0033 -0.2036  1.1386
   28SAPC  C210 3730   0.342   3.047   6.751 -0.6810 -0.3941  1.1526
   28SAPC  H10R 3731   0.258   3.117   6.731  0.5410  0.3113 -2.2609
   28SAPC  H10S 3732   0.430   3.113   6.767 -1.2746  1.5163 -2.3979
   28SAPC  C211 3733   0.300   2.964   6.865 -0.4599  0.3227 -0.3325
   28SAPC  H11R 3734   0.214   2.899   6.842 -1.0892  1.2737 -0.7183
   28SAPC  C212 3735   0.331   2.975   6.991 -0.0181 -0.1307 -0.4119
   28SAPC  H12R 3736   0.275   2.904   7.054 -0.4756  1.8161  1.4938
   28SAPC  C213 3737   0.418   3.076   7.059 -0.3962  0.1670  0.7239
   28SAPC  H13R 3738   0.428   3.160   6.987 -0.2004 -1.0978 -0.7861
   28SAPC  H13S 3739   0.519   3.036   7.082 -1.3005 -4.0778 -1.5777
   28SAPC  C214 3740   0.343   3.136   7.175 -0.0041  0.2765  0.9491
   28SAPC  H14R 3741   0.252   3.189   7.145 -0.7618 -1.2044  0.5374
   28SAPC  C215 3742   0.376   3.128   7.306  0.8053 -0.0521  0.6275
   28SAPC  H15R 3743   0.309   3.174   7.380  1.2171 -0.0164  0.9761
   28SAPC  C216 3744   0.500   3.061   7.358  0.7341  0.7277  0.1714
   28SAPC  H16R 3745   0.596   3.113   7.338  1.1262  0.3482  1.0152
   28SAPC  H16S 3746   0.510   2.955   7.327  0.5866 -0.6282  4.2485
   28SAPC  C217 3747   0.499   3.050   7.511 -0.0736 -0.5248 -0.2231
   28SAPC  H17R 3748   0.401   3.001   7.532 -1.1159  0.9883 -1.3505
   28SAPC  H17S 3749   0.501   3.154   7.549 -0.8642 -0.8094  0.6271
   28SAPC  C218 3750   0.631   2.979   7.565  0.0284 -0.5630 -0.6631
   28SAPC  H18R 3751   0.721   3.041   7.545 -0.3653  1.2683  2.5741
   28SAPC  H18S 3752   0.646   2.880   7.517  1.0327 -1.3993  1.2766
   28SAPC  C219 3753   0.632   2.967   7.723 -0.4683  0.4683 -0.1823
   28SAPC  H19R 3754   0.556   2.895   7.759 -1.0055  1.5163  0.8183
   28SAPC  H19S 3755   0.606   3.066   7.766 -2.3639  0.1964 -0.6189
   28SAPC  C220 3756   0.766   2.919   7.780 -0.5772  0.3910 -0.1237
   28SAPC  H20R 3757   0.758   2.896   7.888 -1.3003 -3.2884 -0.8244
   28SAPC  H20S 3758   0.842   3.000   7.767  0.3776 -0.5423 -0.5300
   28SAPC  H20T 3759   0.812   2.836   7.723 -0.8380 -0.6490  1.1485
   28SAPC   C33 3760   0.641   3.731   6.179 -0.1871 -0.6602 -0.2914
   28SAPC   H3X 3761   0.615   3.815   6.247  0.8030 -0.8360  0.3277
   28SAPC   H3Y 3762   0.743   3.747   6.137 -0.9476 -1.5304 -2.6085
   28SAPC   C34 3763   0.640   3.604   6.270 -0.5230 -0.7679  0.4619
   28SAPC   H4X 3764   0.655   3.515   6.205 -0.6085 -0.1044 -0.4940
   28SAPC   H4Y 3765   0.537   3.588   6.309 -1.7025  1.4542 -1.4850
   28SAPC   C35 3766   0.731   3.606   6.392  0.4611  0.1480  0.3342
   28SAPC   H5X 3767   0.820   3.659   6.354 -0.9477  2.1572 -0.2903
   28SAPC   H5Y 3768   0.760   3.505   6.430 -0.1966 -1.2525 -2.5857
   28SAPC   C36 3769   0.668   3.685   6.511 -0.0471 -0.2557 -0.3595
   28SAPC   H6X 3770   0.560   3.656   6.514  0.3677 -2.2566 -1.7938
   28SAPC   H6Y 3771   0.691   3.793   6.504  2.4339 -0.6350  1.0009
   28SAPC   C37 3772   0.736   3.638   6.638  0.4583 -0.2479  0.1787
   28SAPC   H7X 3773   0.841   3.601   6.634  0.3229 -0.6495  0.3543
   28SAPC   H7Y 3774   0.683   3.541   6.648  1.1397 -0.5354  1.0872
   28SAPC   C38 3775   0.710   3.717   6.769  0.1755  0.3052  0.1405
   28SAPC   H8X 3776   0.611   3.766   6.769  0.2299  0.4219  0.4107
   28SAPC   H8Y 3777   0.785   3.798   6.789  0.6326 -0.2951  0.9430
   28SAPC   C39 3778   0.717   3.618   6.887  0.2297  0.2248 -0.0500
   28SAPC   H9X 3779   0.803   3.549   6.886 -1.8320 -2.5878  1.3206
   28SAPC   H9Y 3780   0.635   3.546   6.865  1.5082 -1.3837  0.2654
   28SAPC  C310 3781   0.695   3.688   7.025  0.2485  0.5766 -0.0557
   28SAPC  H10X 3782   0.673   3.606   7.097  1.3691 -0.5539 -0.9587
   28SAPC  H10Y 3783   0.609   3.757   7.015  0.0150 -0.0080 -3.2505
   28SAPC  C311 3784   0.825   3.758   7.066  0.2284 -0.4259  0.5646
   28SAPC  H11X 3785   0.871   3.809   6.979 -2.0626 -0.4261 -0.7187
   28SAPC  H11Y 3786   0.900   3.680   7.090 -0.1793 -0.4813  1.7391
   28SAPC  C312 3787   0.823   3.857   7.185 -0.5140 -0.7273  0.9831
   28SAPC  H12X 3788   0.764   3.945   7.152  1.5104  1.3673  2.6043
   28SAPC  H12Y 3789   0.929   3.876   7.213  0.5547 -1.0517 -2.4143
   28SAPC  C313 3790   0.758   3.803   7.315  0.1422  1.2787  0.7110
   28SAPC  H13X 3791   0.783   3.696   7.333 -1.0632  1.1777  1.8345
   28SAPC  H13Y 3792   0.652   3.790   7.287  0.8256 -0.5841 -1.3541
   28SAPC  C314 3793   0.778   3.886   7.444  0.2695 -0.7588 -0.3467
   28SAPC  H14X 3794   0.704   3.871   7.525 -0.1130 -0.1617 -0.5759
   28SAPC  H14Y 3795   0.766   3.993   7.415  2.2562 -0.2690  0.4520
   28SAPC  C315 3796   0.919   3.868   7.504  0.2817  0.3048  0.5653
   28SAPC  H15X 3797   0.995   3.909   7.435  0.6495 -0.0285  0.7644
   28SAPC  H15Y 3798   0.937   3.758   7.505 -0.5469  0.1501 -0.2325
   28SAPC  C316 3799   0.936   3.942   7.640  0.0284  0.6216  0.2801
   28SAPC  H16X 3800   0.863   3.899   7.712  0.5809  2.3246  1.9195
   28SAPC  H16Y 3801   0.919   4.050   7.625  0.1906  0.4649 -1.1793
   28SAPC  C317 3802   1.079   3.930   7.692 -0.1369  0.4905  0.4951
   28SAPC  H17X 3803   1.104   3.824   7.668 -0.4951  0.2498  1.1632
   28SAPC  H17Y 3804   1.095   3.936   7.801 -0.6470 -0.0234  0.6023
   28SAPC  C318 3805   1.172   4.018   7.607 -0.1354 -0.5238  0.0343
   28SAPC  H18X 3806   1.153   4.003   7.498  4.1079 -0.8749 -0.8700
   28SAPC  H18Y 3807   1.283   4.009   7.605  0.0556  1.0859 -2.4074
   28SAPC  H18Z 3808   1.155   4.127   7.623 -0.3493 -0.1324 -2.3540
   29SAPC     N 3809   3.799   6.898   5.669 -0.0892  0.4888  0.1405
   29SAPC   C12 3810   3.883   7.023   5.680 -0.0220 -0.0363  0.8047
   29SAPC  H12A 3811   3.875   7.085   5.591 -0.5974  0.9357  1.5169
   29SAPC  H12B 3812   3.987   6.991   5.673 -0.6237 -1.7947 -1.7132
   29SAPC   C13 3813   3.657   6.934   5.638  0.1916  0.1481 -0.0555
   29SAPC  H13A 3814   3.663   7.003   5.555  1.1375 -1.2763 -1.2154
   29SAPC  H13B 3815   3.594   6.853   5.607 -0.7665  0.1108  1.8633
   29SAPC  H13C 3816   3.624   6.985   5.727  0.5195 -0.6331  0.5196
   29SAPC   C14 3817   3.851   6.813   5.554  0.4077 -0.2369 -0.2441
   29SAPC  H14A 3818   3.780   6.739   5.521 -1.0777  0.4189  1.3404
   29SAPC  H14B 3819   3.865   6.876   5.468 -1.8567  1.6132  0.6177
   29SAPC  H14C 3820   3.951   6.780   5.580  0.7902  0.4979 -0.7493
   29SAPC   C15 3821   3.807   6.826   5.799 -0.5966 -0.1509  0.8669
   29SAPC  H15A 3822   3.756   6.730   5.798 -0.0710 -0.4583 -0.8545
   29SAPC  H15B 3823   3.908   6.813   5.836  0.6961 -1.1511 -2.5863
   29SAPC  H15C 3824   3.759   6.884   5.876 -2.8466 -2.5225  1.4084
   29SAPC   C11 3825   3.869   7.119   5.807 -0.2179  0.5034  0.1386
   29SAPC  H11A 3826   3.952   7.192   5.791 -0.7200  0.8851 -0.7654
   29SAPC  H11B 3827   3.891   7.055   5.895  1.7433  0.5449 -0.2737
   29SAPC     P 3828   3.721   7.311   5.712 -0.1300  0.3357 -0.2952
   29SAPC   O13 3829   3.802   7.420   5.771 -0.7339  0.1025 -0.0898
   29SAPC   O14 3830   3.735   7.267   5.571  0.1716 -0.0187  0.2074
   29SAPC   O12 3831   3.745   7.181   5.809  0.8445 -0.1463 -0.5612
   29SAPC   O11 3832   3.571   7.343   5.739  0.0972  0.4669 -0.8788
   29SAPC    C1 3833   3.517   7.461   5.794 -0.2598 -0.1908  0.3229
   29SAPC    HA 3834   3.595   7.538   5.807 -1.1317  1.1958 -2.0600
   29SAPC    HB 3835   3.440   7.497   5.723  0.7387 -2.5917 -2.2052
   29SAPC    C2 3836   3.440   7.423   5.926  0.0468  0.4237  0.2946
   29SAPC    HS 3837   3.400   7.519   5.964 -0.8773 -0.8539  2.7462
   29SAPC   O21 3838   3.522   7.348   6.021 -0.5032 -0.3132  0.1165
   29SAPC   C21 3839   3.621   7.419   6.076 -0.7371 -0.2687  0.4762
   29SAPC   O22 3840   3.647   7.535   6.053 -0.3836  0.2704 -0.1750
   29SAPC   C22 3841   3.707   7.322   6.171  0.0019 -0.1220  0.0704
   29SAPC   H2R 3842   3.745   7.238   6.109  0.4158 -1.1748  1.7124
   29SAPC   H2S 3843   3.793   7.385   6.202 -0.8134  2.0941 -1.8132
   29SAPC    C3 3844   3.311   7.340   5.884 -0.1442 -0.0365 -0.6702
   29SAPC    HX 3845   3.342   7.246   5.835  1.1033 -0.9421  1.6742
   29SAPC    HY 3846   3.257   7.406   5.813  0.1203  0.3195 -0.5449
   29SAPC   O31 3847   3.218   7.323   5.993 -0.3969 -0.1542  0.0197
   29SAPC   C31 3848   3.239   7.208   6.069 -0.1747  0.3568  0.1979
   29SAPC   O32 3849   3.292   7.107   6.035 -0.1229  0.0380  0.5090
   29SAPC   C32 3850   3.168   7.228   6.198  0.7725  0.7545  0.4424
   29SAPC   H2X 3851   3.058   7.243   6.184  0.5576 -0.3777  0.8081
   29SAPC   H2Y 3852   3.217   7.321   6.232  1.5934  0.5288 -0.1057
   29SAPC   C23 3853   3.618   7.269   6.283  0.0866  0.6341  0.4339
   29SAPC   H3R 3854   3.680   7.195   6.338 -2.4184 -0.4426  1.9785
   29SAPC   H3S 3855   3.524   7.225   6.244  1.5248 -0.2132 -2.3073
   29SAPC   C24 3856   3.586   7.389   6.380 -0.0208 -0.4886  0.2399
   29SAPC   H4R 3857   3.559   7.482   6.326  0.4621  0.1651  1.0969
   29SAPC   H4S 3858   3.684   7.408   6.430 -0.3721  1.1428  0.3750
   29SAPC   C25 3859   3.476   7.353   6.477 -0.1100  0.0778 -0.0321
   29SAPC   H5R 3860   3.374   7.366   6.438 -0.0999  1.2505  0.3154
   29SAPC   C26 3861   3.489   7.315   6.605 -0.2175 -0.2621 -0.0387
   29SAPC   H6R 3862   3.402   7.299   6.670  0.0659 -2.3211 -0.1113
   29SAPC   C27 3863   3.617   7.282   6.678  0.3547 -0.0693 -0.1934
   29SAPC   H7R 3864   3.697   7.268   6.602  1.3214  1.4449  0.5063
   29SAPC   H7S 3865   3.607   7.188   6.737  0.8575 -0.1142 -0.1755
   29SAPC   C28 3866   3.674   7.377   6.777  0.1960  0.4570 -0.1979
   29SAPC   H8R 3867   3.771   7.422   6.749  1.2860 -1.8133 -0.3083
   29SAPC   C29 3868   3.616   7.439   6.883  0.6035  0.6617  0.1728
   29SAPC   H9R 3869   3.679   7.497   6.953 -1.2898  2.0049  0.8373
   29SAPC  C210 3870   3.475   7.403   6.931  1.0170  0.0696  0.2609
   29SAPC  H10R 3871   3.392   7.411   6.858  1.9112 -3.4558 -1.3790
   29SAPC  H10S 3872   3.450   7.485   7.002  2.5172  2.6285 -2.0158
   29SAPC  C211 3873   3.453   7.264   6.996 -0.4855  0.0538  0.4532
   29SAPC  H11R 3874   3.437   7.174   6.933  1.6046 -1.3498  1.8020
   29SAPC  C212 3875   3.465   7.241   7.130  0.1515 -0.3886 -0.4014
   29SAPC  H12R 3876   3.484   7.135   7.154 -2.0450 -0.8671 -0.6057
   29SAPC  C213 3877   3.494   7.338   7.244 -0.5741 -0.4106  0.1803
   29SAPC  H13R 3878   3.507   7.442   7.207 -2.9767 -0.1971 -0.2463
   29SAPC  H13S 3879   3.592   7.323   7.293 -0.1161  0.3685 -0.4777
   29SAPC  C214 3880   3.381   7.335   7.344 -0.8846  0.3927 -0.4152
   29SAPC  H14R 3881   3.305   7.256   7.331 -0.0414 -0.1490 -2.5010
   29SAPC  C215 3882   3.367   7.419   7.448 -0.5712 -0.0745 -0.1871
   29SAPC  H15R 3883   3.293   7.410   7.528  0.6525  1.4750  1.2024
   29SAPC  C216 3884   3.452   7.536   7.475 -0.1973 -0.2340 -0.1264
   29SAPC  H16R 3885   3.382   7.622   7.485 -1.4112 -1.2875  0.9436
   29SAPC  H16S 3886   3.522   7.560   7.393  1.3255 -1.4454  0.7457
   29SAPC  C217 3887   3.549   7.532   7.599  0.0074  0.3028 -0.1290
   29SAPC  H17R 3888   3.619   7.447   7.588 -0.5626 -0.2434  0.4148
   29SAPC  H17S 3889   3.493   7.507   7.692  0.8676 -1.7192 -0.1083
   29SAPC  C218 3890   3.615   7.663   7.599 -0.3530 -0.1973  0.2255
   29SAPC  H18R 3891   3.538   7.742   7.613  1.2982  1.8642 -1.5621
   29SAPC  H18S 3892   3.676   7.684   7.509 -0.6263 -0.2221  0.0320
   29SAPC  C219 3893   3.707   7.669   7.720 -0.6138  0.0563 -0.6050
   29SAPC  H19R 3894   3.792   7.598   7.716  0.0424  0.7481  0.5092
   29SAPC  H19S 3895   3.640   7.647   7.805 -1.5504 -1.4932 -1.6855
   29SAPC  C220 3896   3.772   7.813   7.737  0.3860 -0.3932  0.0483
   29SAPC  H20R 3897   3.691   7.889   7.746  0.7965  0.0093  0.3573
   29SAPC  H20S 3898   3.838   7.833   7.650 -0.2698  2.3291  0.1070
   29SAPC  H20T 3899   3.836   7.817   7.827 -0.3525  1.0661  0.5448
   29SAPC   C33 3900   3.188   7.121   6.305 -0.4727 -0.1001 -0.2766
   29SAPC   H3X 3901   3.299   7.114   6.310 -0.4759  0.3580  3.1432
   29SAPC   H3Y 3902   3.153   7.021   6.271  0.8993 -1.6826  2.6201
   29SAPC   C34 3903   3.138   7.157   6.445  0.9282  0.1751  0.9699
   29SAPC   H4X 3904   3.029   7.176   6.454  1.1219  1.8110  0.3072
   29SAPC   H4Y 3905   3.184   7.257   6.461  1.6683  0.1925 -0.9881
   29SAPC   C35 3906   3.182   7.064   6.554  0.2288 -0.1565  0.5855
   29SAPC   H5X 3907   3.293   7.067   6.566  0.3135 -0.0393 -0.1854
   29SAPC   H5Y 3908   3.162   6.958   6.527 -0.9106  0.1795  0.0516
   29SAPC   C36 3909   3.118   7.097   6.684  0.2751  0.0412 -0.1977
   29SAPC   H6X 3910   3.013   7.063   6.700  0.1874 -0.1890 -1.1820
   29SAPC   H6Y 3911   3.112   7.207   6.701  0.2606 -0.2249  1.7946
   29SAPC   C37 3912   3.191   7.024   6.801 -0.2082 -0.7133  0.2150
   29SAPC   H7X 3913   3.298   7.053   6.806 -0.0789 -1.0808 -0.2946
   29SAPC   H7Y 3914   3.193   6.915   6.783  0.2274 -1.0173  1.9725
   29SAPC   C38 3915   3.128   7.055   6.929 -0.0688  0.5615  0.7189
   29SAPC   H8X 3916   3.021   7.035   6.910 -0.5865  0.1518  3.5521
   29SAPC   H8Y 3917   3.147   7.161   6.959  1.1959  0.3961  0.5413
   29SAPC   C39 3918   3.168   6.966   7.047 -0.4731  0.2942 -0.4539
   29SAPC   H9X 3919   3.277   6.964   7.066 -0.0254  1.2339 -2.6656
   29SAPC   H9Y 3920   3.131   6.864   7.022  0.7758 -0.3675  0.2779
   29SAPC  C310 3921   3.104   7.014   7.176 -0.2270  0.0291  0.0022
   29SAPC  H10X 3922   2.999   7.039   7.150  0.5889  2.9690 -0.8339
   29SAPC  H10Y 3923   3.163   7.099   7.218 -0.2357  0.3174 -0.5623
   29SAPC  C311 3924   3.086   6.902   7.280 -0.2402  0.2984  0.0370
   29SAPC  H11X 3925   3.029   6.823   7.226 -0.7883 -0.2262  1.3449
   29SAPC  H11Y 3926   3.013   6.937   7.355 -1.1063 -0.4153 -0.4499
   29SAPC  C312 3927   3.204   6.827   7.343 -0.0082 -0.6601  0.2722
   29SAPC  H12X 3928   3.260   6.762   7.273  0.9003  1.5019 -1.1245
   29SAPC  H12Y 3929   3.158   6.758   7.417  0.8454 -2.6450 -0.9565
   29SAPC  C313 3930   3.300   6.909   7.414 -0.4302  0.3511  0.2549
   29SAPC  H13X 3931   3.250   7.006   7.434 -0.2388  1.0651 -2.3574
   29SAPC  H13Y 3932   3.385   6.927   7.344 -1.1905  1.0537 -0.5175
   29SAPC  C314 3933   3.358   6.850   7.540  0.4370 -0.1368  0.2138
   29SAPC  H14X 3934   3.424   6.765   7.511  0.3548 -0.0301 -0.2859
   29SAPC  H14Y 3935   3.282   6.792   7.596 -0.1469  0.6912  0.2955
   29SAPC  C315 3936   3.447   6.942   7.629  1.1984 -0.1170 -0.0986
   29SAPC  H15X 3937   3.527   6.977   7.561  1.1778 -0.0846 -0.1060
   29SAPC  H15Y 3938   3.488   6.878   7.710  0.7597  0.2615  0.4301
   29SAPC  C316 3939   3.378   7.067   7.676 -0.4973  0.9518  0.3836
   29SAPC  H16X 3940   3.291   7.030   7.734  0.7665 -1.8988  0.6178
   29SAPC  H16Y 3941   3.354   7.127   7.585 -0.3808  0.4533  0.0219
   29SAPC  C317 3942   3.460   7.156   7.764  0.2236 -0.1876  0.3454
   29SAPC  H17X 3943   3.545   7.196   7.704  0.7084  2.8542  2.7849
   29SAPC  H17Y 3944   3.497   7.103   7.855  0.3183  1.0536  1.0552
   29SAPC  C318 3945   3.370   7.269   7.811  0.4133 -0.1910  0.0266
   29SAPC  H18X 3946   3.287   7.232   7.875  1.1952  0.0116  1.2059
   29SAPC  H18Y 3947   3.321   7.316   7.724  0.4891  0.5074  0.3541
   29SAPC  H18Z 3948   3.427   7.345   7.869 -1.8616  1.1300  0.6317
   30SAPC     N 3949   5.461   6.595   5.293 -0.7949  0.1586 -0.7194
   30SAPC   C12 3950   5.363   6.495   5.362  0.1015 -0.1963  0.6065
   30SAPC  H12A 3951   5.425   6.420   5.409 -1.0774 -1.7582 -0.2366
   30SAPC  H12B 3952   5.310   6.440   5.286  1.7855  1.7321 -2.1133
   30SAPC   C13 3953   5.499   6.695   5.410 -0.4827 -0.2451  1.1985
   30SAPC  H13A 3954   5.408   6.741   5.445 -0.6653  2.0270 -1.8641
   30SAPC  H13B 3955   5.552   6.639   5.486  0.1618 -2.2090 -0.6096
   30SAPC  H13C 3956   5.569   6.764   5.366 -0.8480 -1.1292 -0.8982
   30SAPC   C14 3957   5.595   6.536   5.250  0.8518 -0.1631 -0.2786
   30SAPC  H14A 3958   5.641   6.485   5.332  0.4306  0.6742  0.4942
   30SAPC  H14B 3959   5.587   6.463   5.170 -1.2404 -0.2518 -0.0655
   30SAPC  H14C 3960   5.663   6.616   5.226  2.3470  0.3608  4.7069
   30SAPC   C15 3961   5.399   6.671   5.181 -0.3787  0.5052 -0.7668
   30SAPC  H15A 3962   5.387   6.616   5.089  1.7761 -1.9672  0.3252
   30SAPC  H15B 3963   5.298   6.702   5.206 -0.3456  0.7987 -0.9845
   30SAPC  H15C 3964   5.463   6.757   5.169  0.6524  0.0683  1.2762
   30SAPC   C11 3965   5.258   6.548   5.463  0.1242 -0.2115 -0.1422
   30SAPC  H11A 3966   5.301   6.582   5.560  1.8797 -3.3215  0.3048
   30SAPC  H11B 3967   5.190   6.461   5.475 -0.4692  0.4372  1.5582
   30SAPC     P 3968   5.151   6.801   5.439  0.5099  0.3467  0.3667
   30SAPC   O13 3969   5.267   6.864   5.503  0.1518 -0.0318  0.3300
   30SAPC   O14 3970   5.100   6.862   5.315  0.7567  0.4273  0.2427
   30SAPC   O12 3971   5.187   6.657   5.408 -0.1168  0.5463  0.0687
   30SAPC   O11 3972   5.039   6.788   5.545 -0.5616 -0.2762 -0.4460
   30SAPC    C1 3973   5.049   6.830   5.678 -0.1347  0.3710 -0.8863
   30SAPC    HA 3974   5.110   6.922   5.688 -0.7727  0.7040  0.1218
   30SAPC    HB 3975   4.948   6.843   5.723 -0.0726  1.1108 -0.9589
   30SAPC    C2 3976   5.114   6.715   5.765 -0.8518  0.2984 -0.2165
   30SAPC    HS 3977   5.222   6.714   5.738 -0.9933 -1.2536 -0.8208
   30SAPC   O21 3978   5.059   6.583   5.733  0.4993  0.0696 -0.3882
   30SAPC   C21 3979   5.136   6.482   5.769  0.6644 -0.2974  0.6134
   30SAPC   O22 3980   5.249   6.480   5.817 -0.5214 -0.2476 -0.2017
   30SAPC   C22 3981   5.058   6.359   5.730  0.0217  0.2194 -0.3976
   30SAPC   H2R 3982   4.961   6.359   5.784  0.7497  1.0054  0.9761
   30SAPC   H2S 3983   5.037   6.368   5.622  0.5455  1.4611 -0.4174
   30SAPC    C3 3984   5.092   6.752   5.910 -0.4241  1.1483 -0.0893
   30SAPC    HX 3985   5.147   6.680   5.974  0.0887  2.6898  1.2774
   30SAPC    HY 3986   4.983   6.739   5.927 -0.0978  0.6375  1.8299
   30SAPC   O31 3987   5.137   6.885   5.936 -0.7760  0.7429 -0.0062
   30SAPC   C31 3988   5.262   6.921   5.930  0.0581  0.8456 -0.1497
   30SAPC   O32 3989   5.357   6.842   5.925  0.0257 -0.2387  0.2366
   30SAPC   C32 3990   5.272   7.069   5.939 -0.1056  0.2299 -0.1681
   30SAPC   H2X 3991   5.245   7.111   5.840  1.3787 -0.6653 -0.9928
   30SAPC   H2Y 3992   5.381   7.090   5.936 -0.1342  0.3134 -2.1881
   30SAPC   C23 3993   5.137   6.227   5.759 -0.0706  0.1370 -0.4512
   30SAPC   H3R 3994   5.238   6.233   5.713 -0.5577  0.8419 -1.4532
   30SAPC   H3S 3995   5.096   6.147   5.693 -0.4611 -0.0039 -0.0491
   30SAPC   C24 3996   5.149   6.166   5.903 -0.2862  0.4759  0.0534
   30SAPC   H4R 3997   5.228   6.221   5.959  2.0740 -2.4600 -0.1340
   30SAPC   H4S 3998   5.197   6.066   5.900  3.0607  1.8462  1.8363
   30SAPC   C25 3999   5.019   6.151   5.972 -0.3150 -0.3254 -0.4769
   30SAPC   H5R 4000   4.988   6.046   5.958  0.8189 -0.6926 -0.3195
   30SAPC   C26 4001   4.956   6.235   6.055  0.1790  0.0070 -0.3160
   30SAPC   H6R 4002   4.858   6.212   6.101  0.0805 -0.3770 -0.7098
   30SAPC   C27 4003   5.004   6.365   6.107  0.3524 -0.3395 -0.5412
   30SAPC   H7R 4004   5.108   6.389   6.078  0.1320 -0.0919 -1.1413
   30SAPC   H7S 4005   5.019   6.347   6.216  1.1459 -0.6047 -0.6903
   30SAPC   C28 4006   4.927   6.487   6.080  0.1104 -0.1366 -0.3551
   30SAPC   H8R 4007   4.884   6.489   5.979  1.5743  0.2248 -0.9829
   30SAPC   C29 4008   4.914   6.597   6.160 -0.3526 -0.6407  0.2691
   30SAPC   H9R 4009   4.846   6.672   6.119 -0.8281 -2.2781 -2.0976
   30SAPC  C210 4010   5.007   6.621   6.279  0.2412  0.0077 -0.0284
   30SAPC  H10R 4011   5.032   6.730   6.274 -1.1510  0.2958 -1.6417
   30SAPC  H10S 4012   5.092   6.550   6.272 -0.5867 -0.8236 -3.4782
   30SAPC  C211 4013   4.939   6.587   6.408 -0.2482  0.1092  0.5883
   30SAPC  H11R 4014   4.847   6.527   6.406  0.4750 -0.9959 -0.7940
   30SAPC  C212 4015   4.986   6.639   6.527 -0.2057 -0.1034  0.0993
   30SAPC  H12R 4016   4.928   6.615   6.618  2.1038  0.2407  1.7710
   30SAPC  C213 4017   5.107   6.733   6.543 -0.5904 -0.0298  0.9358
   30SAPC  H13R 4018   5.156   6.744   6.444 -1.2122  0.2341  0.6500
   30SAPC  H13S 4019   5.182   6.695   6.616  0.6252  1.2577  0.3929
   30SAPC  C214 4020   5.066   6.872   6.577  0.4813  0.4471  0.2025
   30SAPC  H14R 4021   5.022   6.928   6.493 -1.1387  0.6141  1.1146
   30SAPC  C215 4022   5.086   6.933   6.691 -0.0753 -0.0795 -0.4707
   30SAPC  H15R 4023   5.071   7.041   6.700 -1.0314 -0.0180 -2.4107
   30SAPC  C216 4024   5.149   6.877   6.818 -0.2406  0.6761 -0.2225
   30SAPC  H16R 4025   5.197   6.964   6.869 -0.1229  3.4333 -4.5500
   30SAPC  H16S 4026   5.232   6.805   6.800 -0.8533 -0.0094 -0.3509
   30SAPC  C217 4027   5.054   6.803   6.920  0.2825  0.1646 -0.1300
   30SAPC  H17R 4028   5.012   6.715   6.867 -0.4430  0.2476  0.2959
   30SAPC  H17S 4029   4.971   6.873   6.943  0.1510  0.4931 -1.4885
   30SAPC  C218 4030   5.122   6.774   7.055 -0.7322 -0.1774 -0.2908
   30SAPC  H18R 4031   5.164   6.874   7.078 -0.3639 -0.1860 -0.9262
   30SAPC  H18S 4032   5.198   6.694   7.049 -1.0662 -0.7119  1.7895
   30SAPC  C219 4033   5.027   6.741   7.172  0.2602 -0.0106  0.2699
   30SAPC  H19R 4034   5.006   6.633   7.163 -0.3769  0.1903 -0.7536
   30SAPC  H19S 4035   4.930   6.789   7.150 -0.0495 -0.3635  0.8292
   30SAPC  C220 4036   5.074   6.766   7.313  0.1701  0.3040  0.0715
   30SAPC  H20R 4037   5.156   6.698   7.347 -1.9155 -2.1327  0.4884
   30SAPC  H20S 4038   4.994   6.743   7.386 -0.7035  1.5988 -0.4489
   30SAPC  H20T 4039   5.106   6.871   7.331 -1.4666  0.9483 -0.6244
   30SAPC   C33 4040   5.211   7.144   6.061  0.7660  0.2176  0.1865
   30SAPC   H3X 4041   5.102   7.129   6.071  0.4495  0.5910 -2.1053
   30SAPC   H3Y 4042   5.228   7.250   6.032  2.0631 -0.1105 -0.3047
   30SAPC   C34 4043   5.273   7.107   6.198 -0.1570  0.3234  0.7549
   30SAPC   H4X 4044   5.383   7.108   6.183  0.1599  1.4102  2.8288
   30SAPC   H4Y 4045   5.247   7.005   6.233  1.7871 -1.1881 -1.8151
   30SAPC   C35 4046   5.225   7.204   6.301  1.2230 -0.1882 -0.4155
   30SAPC   H5X 4047   5.121   7.178   6.331  0.7509  1.5566 -0.4108
   30SAPC   H5Y 4048   5.224   7.310   6.266 -0.6784 -0.7554 -2.3275
   30SAPC   C36 4049   5.317   7.198   6.427 -0.9481  0.1902 -0.4705
   30SAPC   H6X 4050   5.422   7.230   6.407 -0.3642 -1.3005  0.0519
   30SAPC   H6Y 4051   5.324   7.090   6.453  1.1490 -0.5002 -3.3833
   30SAPC   C37 4052   5.265   7.257   6.562  0.0492 -0.3189 -0.2321
   30SAPC   H7X 4053   5.175   7.207   6.604  0.9822 -2.0498 -0.1968
   30SAPC   H7Y 4054   5.223   7.356   6.535  0.2333  0.0071  0.6360
   30SAPC   C38 4055   5.369   7.281   6.667 -0.0574  0.1887 -0.2542
   30SAPC   H8X 4056   5.449   7.331   6.609 -0.2491  0.6588 -0.1230
   30SAPC   H8Y 4057   5.408   7.188   6.712  0.0661 -0.3840 -1.5129
   30SAPC   C39 4058   5.313   7.365   6.786 -0.2322 -0.1944 -0.4007
   30SAPC   H9X 4059   5.234   7.310   6.842  1.0256 -0.5860  1.0454
   30SAPC   H9Y 4060   5.287   7.462   6.740  0.9352 -1.4494 -4.0156
   30SAPC  C310 4061   5.422   7.390   6.892 -0.4257  0.1106 -0.6105
   30SAPC  H10X 4062   5.511   7.440   6.847  0.8220 -0.2091  1.3868
   30SAPC  H10Y 4063   5.462   7.294   6.933  0.3442  0.4368 -0.5744
   30SAPC  C311 4064   5.380   7.473   7.016 -0.5609  0.3076 -0.7571
   30SAPC  H11X 4065   5.309   7.412   7.076 -0.9750 -0.0508 -1.5970
   30SAPC  H11Y 4066   5.348   7.579   7.001  1.1031  1.2308  1.5869
   30SAPC  C312 4067   5.503   7.493   7.104  0.0830 -0.1718  0.6189
   30SAPC  H12X 4068   5.577   7.563   7.059 -0.7414  1.0862  1.1801
   30SAPC  H12Y 4069   5.547   7.393   7.122 -1.2431 -0.7593  0.6837
   30SAPC  C313 4070   5.453   7.548   7.240  0.4679 -0.5721  0.0555
   30SAPC  H13X 4071   5.375   7.476   7.277 -0.3537 -0.6679 -1.7775
   30SAPC  H13Y 4072   5.405   7.647   7.228 -1.1745 -1.3362  0.0181
   30SAPC  C314 4073   5.569   7.545   7.346 -0.1706  0.5833 -0.2908
   30SAPC  H14X 4074   5.633   7.634   7.327  0.9345 -0.4779 -1.7093
   30SAPC  H14Y 4075   5.624   7.450   7.335 -0.9515  0.3246 -2.4833
   30SAPC  C315 4076   5.515   7.535   7.484 -0.3953 -0.2616 -0.0128
   30SAPC  H15X 4077   5.604   7.528   7.550  0.2363  0.8551 -0.7048
   30SAPC  H15Y 4078   5.450   7.445   7.481  0.4229 -0.8529 -0.5884
   30SAPC  C316 4079   5.430   7.664   7.521 -0.0407  0.6153 -0.3040
   30SAPC  H16X 4080   5.346   7.681   7.450 -0.8449  0.6871  0.6360
   30SAPC  H16Y 4081   5.492   7.755   7.506  0.6820  0.2412  0.3465
   30SAPC  C317 4082   5.401   7.671   7.669  0.0456  0.5682  0.5747
   30SAPC  H17X 4083   5.360   7.773   7.686  0.6387  1.1214 -1.1377
   30SAPC  H17Y 4084   5.495   7.680   7.727  1.8014  0.3838 -2.0735
   30SAPC  C318 4085   5.302   7.576   7.729 -0.3713  0.4816 -0.9743
   30SAPC  H18X 4086   5.317   7.471   7.695  0.0070  0.6222 -1.2545
   30SAPC  H18Y 4087   5.195   7.605   7.726  0.0123  2.0827 -0.0578
   30SAPC  H18Z 4088   5.312   7.579   7.839 -2.6736  1.6100 -0.7496
   31SAPC     N 4089   6.812   1.393   5.098  0.3677 -0.2768  0.6310
   31SAPC   C12 4090   6.792   1.489   5.210 -0.2705  0.0211 -0.1801
   31SAPC  H12A 4091   6.699   1.467   5.260 -0.9897  1.4752 -0.8188
   31SAPC  H12B 4092   6.780   1.590   5.173  1.1312  0.9349  1.6469
   31SAPC   C13 4093   6.799   1.252   5.126 -0.1763  0.2395 -0.5923
   31SAPC  H13A 4094   6.710   1.221   5.178  0.4723  0.1555  0.4935
   31SAPC  H13B 4095   6.823   1.186   5.044  1.8278  0.7207 -0.4321
   31SAPC  H13C 4096   6.873   1.235   5.202 -0.4053 -0.3415 -0.4927
   31SAPC   C14 4097   6.695   1.418   5.006  0.2969  0.0619 -0.2521
   31SAPC  H14A 4098   6.704   1.515   4.959  0.2850 -1.2789 -3.2347
   31SAPC  H14B 4099   6.679   1.342   4.931 -0.5231  0.0736 -0.0898
   31SAPC  H14C 4100   6.609   1.412   5.070  0.7382  0.1208  0.3558
   31SAPC   C15 4101   6.930   1.433   5.016  0.2399  0.7847 -0.1304
   31SAPC  H15A 4102   7.013   1.390   5.069 -1.0841 -1.0390  0.5843
   31SAPC  H15B 4103   6.933   1.380   4.922  0.3751 -0.2190  0.4277
   31SAPC  H15C 4104   6.948   1.538   4.997  1.5485  0.3445 -1.5594
   31SAPC   C11 4105   6.902   1.488   5.317 -0.2763 -0.1892  0.6273
   31SAPC  H11A 4106   6.879   1.578   5.379  0.6368  1.3885 -1.1908
   31SAPC  H11B 4107   6.994   1.515   5.261 -1.6200  1.9106 -0.7332
   31SAPC     P 4108   6.810   1.314   5.488 -0.2697 -0.3028 -0.1670
   31SAPC   O13 4109   6.678   1.311   5.431 -0.3848  0.8354  0.3410
   31SAPC   O14 4110   6.865   1.185   5.545  0.7636 -0.0860 -0.0829
   31SAPC   O12 4111   6.923   1.362   5.382  0.1337  0.0722 -0.1349
   31SAPC   O11 4112   6.815   1.425   5.593  0.0705 -0.1951  0.1097
   31SAPC    C1 4113   6.731   1.440   5.705  0.2550  0.5987  0.0510
   31SAPC    HA 4114   6.672   1.533   5.694  0.5609  0.7939  0.0570
   31SAPC    HB 4115   6.663   1.353   5.702  0.6931  0.2697 -0.6898
   31SAPC    C2 4116   6.820   1.435   5.825  0.6555 -0.3583 -0.1305
   31SAPC    HS 4117   6.923   1.465   5.797  0.5236 -0.4560 -0.7210
   31SAPC   O21 4118   6.826   1.298   5.868 -0.1064  0.3662 -0.8836
   31SAPC   C21 4119   6.916   1.272   5.961  0.3215  0.3632  0.2445
   31SAPC   O22 4120   7.001   1.352   5.995 -0.8492 -0.4993  0.4522
   31SAPC   C22 4121   6.899   1.126   6.003 -0.1027  0.2713 -0.1546
   31SAPC   H2R 4122   6.790   1.106   5.995 -0.5746  2.4420  0.2617
   31SAPC   H2S 4123   6.944   1.054   5.932 -1.0611 -1.2098  0.6770
   31SAPC    C3 4124   6.770   1.530   5.938 -0.1083  0.0036 -0.1614
   31SAPC    HX 4125   6.748   1.629   5.892 -3.3090  0.4914  2.0725
   31SAPC    HY 4126   6.848   1.552   6.015 -2.0821 -1.1002  2.2958
   31SAPC   O31 4127   6.651   1.489   6.007  0.3799  0.3044 -0.2426
   31SAPC   C31 4128   6.594   1.582   6.088  0.4270 -0.1599  0.7864
   31SAPC   O32 4129   6.617   1.700   6.091 -0.2793  0.2469  0.4017
   31SAPC   C32 4130   6.484   1.521   6.176 -0.3888  0.6168 -0.1899
   31SAPC   H2X 4131   6.541   1.456   6.247  0.6197 -1.9768 -3.1043
   31SAPC   H2Y 4132   6.425   1.448   6.117  0.3411 -1.4219  1.4731
   31SAPC   C23 4133   6.943   1.089   6.142  0.1952  0.0129 -0.0192
   31SAPC   H3R 4134   7.033   1.141   6.180 -0.1683  0.7257 -0.1165
   31SAPC   H3S 4135   6.986   0.987   6.144 -0.5273 -0.2904  0.7858
   31SAPC   C24 4136   6.836   1.098   6.245 -0.1007  0.1368 -0.9070
   31SAPC   H4R 4137   6.863   1.059   6.345  0.3486 -1.3116 -1.5682
   31SAPC   H4S 4138   6.753   1.035   6.209  0.3410 -0.4695 -0.8780
   31SAPC   C25 4139   6.794   1.247   6.259 -0.0163  1.0913  0.5307
   31SAPC   H5R 4140   6.771   1.301   6.166  0.8903 -2.6508 -2.0938
   31SAPC   C26 4141   6.799   1.329   6.364  0.2007 -0.4963 -0.0183
   31SAPC   H6R 4142   6.759   1.428   6.338  0.4915 -0.5062 -0.5172
   31SAPC   C27 4143   6.826   1.298   6.510  0.1318 -0.1899  0.3027
   31SAPC   H7R 4144   6.780   1.204   6.548 -0.0610  0.6516  2.2476
   31SAPC   H7S 4145   6.796   1.386   6.571  1.2787  0.2456  0.2654
   31SAPC   C28 4146   6.976   1.292   6.506 -0.1647  0.2854 -0.3342
   31SAPC   H8R 4147   7.032   1.318   6.415 -0.5784 -0.9746 -0.9679
   31SAPC   C29 4148   7.044   1.300   6.621 -0.2074 -0.3390  0.2680
   31SAPC   H9R 4149   7.152   1.288   6.601 -0.5093  0.9826 -2.8457
   31SAPC  C210 4150   6.993   1.312   6.765  0.2475  0.2704  0.3152
   31SAPC  H10R 4151   6.893   1.359   6.780  0.6435  1.4659 -0.6413
   31SAPC  H10S 4152   7.066   1.375   6.821  0.4050  1.2363 -0.9449
   31SAPC  C211 4153   6.989   1.177   6.824 -0.4187  0.0948  0.1805
   31SAPC  H11R 4154   6.997   1.098   6.748  1.6908 -1.5129  1.9279
   31SAPC  C212 4155   6.972   1.145   6.959  0.7323 -0.1020  0.2603
   31SAPC  H12R 4156   6.970   1.043   7.000 -1.4548  0.7746  2.5321
   31SAPC  C213 4157   6.957   1.240   7.070 -0.3692  0.6558  0.8016
   31SAPC  H13R 4158   6.878   1.194   7.134 -1.7472 -0.3821 -1.5208
   31SAPC  H13S 4159   6.915   1.337   7.035  0.5866  0.4249 -1.0895
   31SAPC  C214 4160   7.095   1.264   7.131 -0.0312  0.6275  0.1184
   31SAPC  H14R 4161   7.164   1.297   7.051 -1.5778  1.7181 -0.8366
   31SAPC  C215 4162   7.126   1.256   7.266  0.6382 -0.0470  0.2242
   31SAPC  H15R 4163   7.224   1.290   7.305 -0.0851  0.0487  2.0799
   31SAPC  C216 4164   7.028   1.239   7.377 -0.0026 -0.1470 -0.5369
   31SAPC  H16R 4165   7.064   1.143   7.420  1.2684  1.9079  3.4117
   31SAPC  H16S 4166   6.923   1.229   7.342  0.5925  0.5622 -2.7153
   31SAPC  C217 4167   7.043   1.353   7.487  0.2085  0.4643  1.0637
   31SAPC  H17R 4168   7.020   1.453   7.443  0.4804  0.1070  0.0815
   31SAPC  H17S 4169   7.151   1.351   7.515  0.2657 -1.6915  0.8137
   31SAPC  C218 4170   6.949   1.318   7.603  0.2254 -0.2000  0.1369
   31SAPC  H18R 4171   6.844   1.304   7.568 -0.3825 -0.2189  1.8874
   31SAPC  H18S 4172   6.943   1.409   7.667  0.7450  3.6615 -4.7219
   31SAPC  C219 4173   6.986   1.195   7.681 -0.2062 -0.3472  0.1208
   31SAPC  H19R 4174   7.076   1.157   7.628  0.0769  2.3361 -1.5356
   31SAPC  H19S 4175   6.903   1.122   7.673 -1.7060  1.4486 -2.0667
   31SAPC  C220 4176   6.999   1.235   7.828  0.5027 -0.1344  0.6526
   31SAPC  H20R 4177   6.922   1.309   7.859  0.8575  0.4599  0.1586
   31SAPC  H20S 4178   7.103   1.269   7.849  0.7181 -0.4107  0.0519
   31SAPC  H20T 4179   6.995   1.146   7.894 -1.0763  0.8833  1.9942
   31SAPC   C33 4180   6.390   1.631   6.232 -0.0465 -0.0440 -0.3772
   31SAPC   H3X 4181   6.297   1.574   6.251 -0.1214 -0.5027 -1.9389
   31SAPC   H3Y 4182   6.366   1.706   6.154 -0.3449 -0.7394 -0.9685
   31SAPC   C34 4183   6.448   1.709   6.348 -0.1643 -0.0693  0.1006
   31SAPC   H4X 4184   6.376   1.787   6.380 -0.8164 -0.1080 -1.2177
   31SAPC   H4Y 4185   6.541   1.761   6.314  0.5692  0.0776  2.2125
   31SAPC   C35 4186   6.469   1.621   6.470  0.0174 -0.4803  0.0350
   31SAPC   H5X 4187   6.553   1.552   6.446 -0.2850 -0.2727 -1.7648
   31SAPC   H5Y 4188   6.377   1.559   6.484  0.2274 -0.7522  0.2183
   31SAPC   C36 4189   6.489   1.697   6.600 -0.6492 -0.3346 -0.9789
   31SAPC   H6X 4190   6.393   1.750   6.620 -0.5954 -0.2349 -0.9872
   31SAPC   H6Y 4191   6.561   1.781   6.592 -0.4422 -0.1610  1.8878
   31SAPC   C37 4192   6.521   1.603   6.720  0.2203  0.3179  0.4257
   31SAPC   H7X 4193   6.620   1.555   6.709  0.4420  0.8453  0.0589
   31SAPC   H7Y 4194   6.454   1.515   6.729  0.6834  0.0300  1.1596
   31SAPC   C38 4195   6.506   1.677   6.851 -0.2886 -0.2154 -0.0789
   31SAPC   H8X 4196   6.410   1.734   6.852  1.0424  2.4336 -3.6685
   31SAPC   H8Y 4197   6.589   1.751   6.856  0.6577 -1.2451 -0.2249
   31SAPC   C39 4198   6.516   1.587   6.971  1.1923 -0.4797 -0.0520
   31SAPC   H9X 4199   6.596   1.512   6.951  2.5692  1.1308 -0.7699
   31SAPC   H9Y 4200   6.422   1.533   6.995  0.2062  0.7413 -1.0673
   31SAPC  C310 4201   6.554   1.667   7.096 -0.0853 -0.6470 -0.4709
   31SAPC  H10X 4202   6.472   1.735   7.127 -1.0281 -1.7246 -0.5339
   31SAPC  H10Y 4203   6.638   1.739   7.084 -0.1280 -0.3605  0.7741
   31SAPC  C311 4204   6.583   1.565   7.209 -0.1639  0.3790  0.3529
   31SAPC  H11X 4205   6.689   1.532   7.209 -0.0925  0.5432  1.5342
   31SAPC  H11Y 4206   6.529   1.468   7.197 -1.4652  0.6194  3.2564
   31SAPC  C312 4207   6.558   1.621   7.350 -0.3341 -0.7598 -0.7681
   31SAPC  H12X 4208   6.465   1.577   7.392  0.3256 -0.1459  1.4824
   31SAPC  H12Y 4209   6.535   1.730   7.351 -1.0060 -0.8906 -1.2041
   31SAPC  C313 4210   6.681   1.604   7.442  0.9349  0.4146  0.0296
   31SAPC  H13X 4211   6.764   1.669   7.406  1.5083  0.6833  1.7462
   31SAPC  H13Y 4212   6.706   1.496   7.439  1.2772  0.4420  1.2840
   31SAPC  C314 4213   6.648   1.632   7.593  0.6281 -0.2653  0.5692
   31SAPC  H14X 4214   6.746   1.611   7.642  0.4931 -0.5474  0.7170
   31SAPC  H14Y 4215   6.567   1.569   7.634  0.3117  0.9620  1.9520
   31SAPC  C315 4216   6.621   1.774   7.643  0.7919 -0.4446  0.2808
   31SAPC  H15X 4217   6.692   1.837   7.586  1.4449 -0.6079  0.8849
   31SAPC  H15Y 4218   6.649   1.785   7.750  1.1126 -1.2546  0.2907
   31SAPC  C316 4219   6.475   1.822   7.621  0.2115 -0.2518  0.0536
   31SAPC  H16X 4220   6.448   1.827   7.514  0.1443 -1.9459 -0.0394
   31SAPC  H16Y 4221   6.468   1.922   7.667 -0.9463 -0.8041  1.1440
   31SAPC  C317 4222   6.365   1.742   7.689  0.5021 -0.2188  0.1301
   31SAPC  H17X 4223   6.394   1.709   7.791  2.9177 -1.3021 -0.8471
   31SAPC  H17Y 4224   6.347   1.652   7.626  1.1075  0.6754 -1.3771
   31SAPC  C318 4225   6.231   1.829   7.710 -0.8720  0.4964 -0.7643
   31SAPC  H18X 4226   6.251   1.932   7.745 -1.3659  0.1228  0.6602
   31SAPC  H18Y 4227   6.173   1.777   7.789  2.5276 -0.1340  1.5182
   31SAPC  H18Z 4228   6.178   1.831   7.612 -2.3850  0.1360  0.0108
   32SAPC     N 4229   0.075   1.302   5.524  0.2605  0.2564  0.1928
   32SAPC   C12 4230  -0.003   1.176   5.572 -0.2092 -0.2570 -0.3698
   32SAPC  H12A 4231   0.045   1.091   5.525 -0.2972 -1.8485  2.2014
   32SAPC  H12B 4232  -0.105   1.180   5.536 -0.2196 -2.9485 -0.8545
   32SAPC   C13 4233   0.010   1.426   5.579 -0.1937 -0.0011  0.3773
   32SAPC  H13A 4234   0.014   1.427   5.687  2.6109  1.5415  0.3694
   32SAPC  H13B 4235   0.048   1.522   5.547 -0.7403 -0.4182 -1.6510
   32SAPC  H13C 4236  -0.093   1.436   5.550 -0.8307  0.2508  2.5675
   32SAPC   C14 4237   0.217   1.302   5.563  0.3393 -0.3967  0.3628
   32SAPC  H14A 4238   0.260   1.398   5.541  1.2096 -0.5758  1.1919
   32SAPC  H14B 4239   0.226   1.286   5.669  0.3726 -1.5235  0.2106
   32SAPC  H14C 4240   0.267   1.220   5.512 -0.1278 -0.6346  0.2821
   32SAPC   C15 4241   0.068   1.306   5.375 -0.6320 -0.0054  0.1242
   32SAPC  H15A 4242  -0.033   1.278   5.347 -0.0664 -2.0406 -0.0541
   32SAPC  H15B 4243   0.098   1.400   5.332 -3.4041  1.9622  2.1569
   32SAPC  H15C 4244   0.134   1.230   5.334 -0.9808  0.6011 -1.6332
   32SAPC   C11 4245  -0.004   1.137   5.723 -0.3668 -0.2088 -0.3246
   32SAPC  H11A 4246  -0.056   1.040   5.743  1.0428 -0.9756 -0.2952
   32SAPC  H11B 4247  -0.060   1.216   5.777 -0.2337  0.5865 -1.3173
   32SAPC     P 4248   0.227   1.007   5.767  0.0881 -0.4274 -0.3385
   32SAPC   O13 4249   0.249   0.985   5.622  0.4265 -0.4626 -0.0608
   32SAPC   O14 4250   0.352   1.030   5.842  0.2964 -0.0854 -0.3099
   32SAPC   O12 4251   0.124   1.126   5.784  0.0094 -0.1328 -0.7111
   32SAPC   O11 4252   0.160   0.881   5.830  0.0847 -0.2141  0.0192
   32SAPC    C1 4253   0.060   0.894   5.935 -0.6540  0.2496  0.3069
   32SAPC    HA 4254   0.039   1.002   5.954  1.2092  1.2203 -2.4321
   32SAPC    HB 4255  -0.037   0.863   5.890 -1.3124 -0.5685  2.2214
   32SAPC    C2 4256   0.102   0.803   6.060 -0.3437 -0.6341  0.5849
   32SAPC    HS 4257   0.109   0.698   6.025 -1.4021 -1.6189  3.0318
   32SAPC   O21 4258  -0.005   0.816   6.158  0.2786  0.0566  0.4544
   32SAPC   C21 4259  -0.006   0.714   6.236 -0.2688 -0.9506 -0.4142
   32SAPC   O22 4260   0.083   0.626   6.241  0.0745 -0.5751  0.7399
   32SAPC   C22 4261  -0.133   0.726   6.312  0.9017  0.9158 -0.3780
   32SAPC   H2R 4262  -0.110   0.677   6.409  2.6479  0.5998 -0.9268
   32SAPC   H2S 4263  -0.156   0.828   6.349  0.3925 -0.5673  4.0262
   32SAPC    C3 4264   0.236   0.862   6.117  0.4002  0.1201  0.1943
   32SAPC    HX 4265   0.307   0.856   6.031  0.7899 -1.1903  0.5761
   32SAPC    HY 4266   0.287   0.794   6.189 -0.8661 -0.0557  0.9551
   32SAPC   O31 4267   0.209   0.995   6.166  0.0038 -0.3369 -0.1880
   32SAPC   C31 4268   0.312   1.068   6.189 -0.0120 -0.3459  0.5666
   32SAPC   O32 4269   0.429   1.039   6.178 -0.0919 -0.6322 -0.2276
   32SAPC   C32 4270   0.265   1.203   6.228 -0.6256 -0.5294  0.8968
   32SAPC   H2X 4271   0.186   1.233   6.156 -0.0343  1.3327  0.9656
   32SAPC   H2Y 4272   0.349   1.275   6.236 -1.5828  0.9727 -1.5994
   32SAPC   C23 4273  -0.251   0.659   6.236  0.5999 -0.4393 -0.0477
   32SAPC   H3R 4274  -0.215   0.564   6.190  1.8915  0.8401 -1.8091
   32SAPC   H3S 4275  -0.285   0.722   6.152  1.9697  1.9446  1.0856
   32SAPC   C24 4276  -0.376   0.629   6.326 -0.3946  0.2150  0.9026
   32SAPC   H4R 4277  -0.361   0.548   6.400 -1.6092  0.7064  1.7313
   32SAPC   H4S 4278  -0.452   0.586   6.258  0.0247  0.0423  0.5394
   32SAPC   C25 4279  -0.447   0.745   6.389  0.4413 -0.3792  0.5832
   32SAPC   H5R 4280  -0.403   0.845   6.369 -0.9339 -0.3605 -3.1808
   32SAPC   C26 4281  -0.571   0.740   6.430  0.4301  0.9352  0.2540
   32SAPC   H6R 4282  -0.622   0.822   6.483  0.7356 -0.8416  3.5312
   32SAPC   C27 4283  -0.655   0.615   6.422 -0.6617  0.4631  0.3359
   32SAPC   H7R 4284  -0.591   0.527   6.445 -0.7531  0.4118  0.3958
   32SAPC   H7S 4285  -0.685   0.612   6.315  0.5578  1.0815 -0.0458
   32SAPC   C28 4286  -0.780   0.604   6.506 -0.1160 -0.4852  0.1126
   32SAPC   H8R 4287  -0.875   0.616   6.451 -0.0223  0.7413  0.1892
   32SAPC   C29 4288  -0.795   0.576   6.638 -0.4409  0.2171  0.0077
   32SAPC   H9R 4289  -0.895   0.578   6.684  0.0792  1.4042  1.1729
   32SAPC  C210 4290  -0.684   0.536   6.729 -1.0686 -1.0259 -0.6692
   32SAPC  H10R 4291  -0.581   0.535   6.687 -1.3295 -0.9470 -1.3154
   32SAPC  H10S 4292  -0.688   0.434   6.772  0.7393 -1.3690 -1.2065
   32SAPC  C211 4293  -0.684   0.622   6.854  0.2156 -0.3601  0.5865
   32SAPC  H11R 4294  -0.781   0.648   6.899 -0.4585  3.0670 -2.3338
   32SAPC  C212 4295  -0.572   0.670   6.913  0.3023 -0.1039 -0.1224
   32SAPC  H12R 4296  -0.587   0.734   7.002 -0.0737 -2.3363  1.5259
   32SAPC  C213 4297  -0.422   0.663   6.880  0.6353  0.6207 -0.5051
   32SAPC  H13R 4298  -0.394   0.564   6.836 -0.9150 -0.2373  0.3214
   32SAPC  H13S 4299  -0.365   0.680   6.974  0.7253 -0.5138 -0.3339
   32SAPC  C214 4300  -0.388   0.760   6.773  0.3354  0.4337  0.5043
   32SAPC  H14R 4301  -0.471   0.802   6.715 -0.8947 -1.1891  1.0397
   32SAPC  C215 4302  -0.269   0.806   6.753  0.3607  0.2325  0.1600
   32SAPC  H15R 4303  -0.247   0.880   6.675 -4.1215  0.8273 -0.8055
   32SAPC  C216 4304  -0.150   0.765   6.832  0.1310  0.3465 -0.3319
   32SAPC  H16R 4305  -0.164   0.667   6.882  2.5203 -0.6656 -1.4375
   32SAPC  H16S 4306  -0.127   0.846   6.905 -1.6090 -0.4732  1.2014
   32SAPC  C217 4307  -0.024   0.731   6.736 -0.2847  1.1607 -0.4353
   32SAPC  H17R 4308   0.067   0.715   6.798 -0.4707 -0.5858 -0.5732
   32SAPC  H17S 4309  -0.006   0.808   6.658 -0.5757 -0.6663 -2.3840
   32SAPC  C218 4310  -0.047   0.602   6.661 -0.0381 -0.0884  0.4574
   32SAPC  H18R 4311  -0.129   0.619   6.588 -1.2966  0.8162  2.0210
   32SAPC  H18S 4312  -0.071   0.515   6.726  0.1808 -0.4696  0.0351
   32SAPC  C219 4313   0.078   0.558   6.586 -0.2255 -0.0848 -0.0769
   32SAPC  H19R 4314   0.171   0.536   6.644  0.0659  1.6766  0.1669
   32SAPC  H19S 4315   0.106   0.638   6.515  1.3093 -0.1152  0.4545
   32SAPC  C220 4316   0.050   0.443   6.489  0.1957 -0.3426  0.0366
   32SAPC  H20R 4317  -0.036   0.447   6.420 -0.7071 -1.8007  1.0131
   32SAPC  H20S 4318   0.030   0.349   6.545 -1.3538 -0.5211 -0.7848
   32SAPC  H20T 4319   0.141   0.433   6.427  1.4715  5.1496  0.5186
   32SAPC   C33 4320   0.202   1.196   6.368 -1.0015 -0.2485 -0.7620
   32SAPC   H3X 4321   0.116   1.126   6.368 -1.6166  0.4877 -1.6003
   32SAPC   H3Y 4322   0.150   1.289   6.400 -0.9790 -0.4989  0.0276
   32SAPC   C34 4323   0.305   1.176   6.481  0.1127 -0.2178 -0.1459
   32SAPC   H4X 4324   0.389   1.247   6.471  0.2143 -0.6138 -2.5291
   32SAPC   H4Y 4325   0.352   1.077   6.463 -0.5215 -0.9576  1.8933
   32SAPC   C35 4326   0.236   1.177   6.618 -0.3365  0.1118 -0.2243
   32SAPC   H5X 4327   0.143   1.118   6.631 -0.1224  0.1564  1.7977
   32SAPC   H5Y 4328   0.205   1.282   6.636 -1.0172 -0.2503  0.8292
   32SAPC   C36 4329   0.331   1.145   6.736 -0.1056 -1.0993 -0.2230
   32SAPC   H6X 4330   0.412   1.219   6.754 -2.0761  0.7255  1.6475
   32SAPC   H6Y 4331   0.384   1.051   6.709  0.8478 -0.0577 -2.1886
   32SAPC   C37 4332   0.252   1.115   6.863 -0.3764  0.4547 -0.4638
   32SAPC   H7X 4333   0.203   1.016   6.854 -0.2777  0.2858  0.7447
   32SAPC   H7Y 4334   0.166   1.184   6.878  0.9251  2.2076 -0.6755
   32SAPC   C38 4335   0.345   1.111   6.981 -0.5006  0.3037 -0.0953
   32SAPC   H8X 4336   0.390   1.211   6.997 -1.0737  1.0230 -2.6210
   32SAPC   H8Y 4337   0.423   1.042   6.940  0.4460  1.1700  0.2113
   32SAPC   C39 4338   0.285   1.057   7.111  0.2338  0.1576 -0.3265
   32SAPC   H9X 4339   0.251   0.952   7.095 -1.6676  1.0296 -2.6954
   32SAPC   H9Y 4340   0.201   1.127   7.129 -0.0859 -0.9059  2.9315
   32SAPC  C310 4341   0.374   1.071   7.244 -1.1927 -1.0339  0.6527
   32SAPC  H10X 4342   0.412   1.175   7.255 -0.3852 -1.1207 -0.9103
   32SAPC  H10Y 4343   0.462   1.005   7.230 -0.0292 -0.5481  4.6238
   32SAPC  C311 4344   0.304   1.040   7.371  0.4584  0.0520 -0.4184
   32SAPC  H11X 4345   0.217   1.108   7.371 -0.3369 -0.9365 -0.1754
   32SAPC  H11Y 4346   0.355   1.053   7.469  1.1475 -0.2773 -0.7256
   32SAPC  C312 4347   0.241   0.896   7.367 -0.5377  0.2228  1.1337
   32SAPC  H12X 4348   0.324   0.827   7.343 -0.9418 -0.4491  1.6415
   32SAPC  H12Y 4349   0.164   0.889   7.287 -0.5682  3.2719  0.7549
   32SAPC  C313 4350   0.177   0.839   7.497 -0.7685  0.0292  0.1929
   32SAPC  H13X 4351   0.245   0.875   7.577  0.6497 -2.2832  0.1143
   32SAPC  H13Y 4352   0.178   0.728   7.496 -0.0712  0.0200 -1.5619
   32SAPC  C314 4353   0.026   0.883   7.514 -0.6402  0.1105  0.6487
   32SAPC  H14X 4354   0.022   0.983   7.466 -2.2787 -1.6382 -3.4007
   32SAPC  H14Y 4355  -0.006   0.885   7.620  0.1515 -0.5781  0.9042
   32SAPC  C315 4356  -0.069   0.793   7.435 -0.4349  0.0484 -0.3038
   32SAPC  H15X 4357  -0.045   0.690   7.467  1.1190  0.8193  1.1819
   32SAPC  H15Y 4358  -0.052   0.813   7.327 -0.7225  0.5589 -0.2580
   32SAPC  C316 4359  -0.216   0.831   7.466  0.4320 -0.0549  0.2085
   32SAPC  H16X 4360  -0.227   0.937   7.434  0.4719 -0.4189 -1.0684
   32SAPC  H16Y 4361  -0.251   0.812   7.570 -2.0367 -0.3491 -0.6162
   32SAPC  C317 4362  -0.319   0.750   7.389  0.3724 -0.2091  0.4780
   32SAPC  H17X 4363  -0.420   0.778   7.427 -0.0678 -1.4471  0.2446
   32SAPC  H17Y 4364  -0.302   0.641   7.394  3.1339  0.1737  1.1304
   32SAPC  C318 4365  -0.326   0.781   7.239 -0.8315  0.4302 -0.5471
   32SAPC  H18X 4366  -0.376   0.880   7.227 -2.9517 -0.7950 -2.7158
   32SAPC  H18Y 4367  -0.381   0.698   7.190  0.7282 -0.8661 -0.1806
   32SAPC  H18Z 4368  -0.221   0.782   7.203 -0.0355 -0.7730  1.5668
   33POPC     N 4369   3.770   2.833   9.910  0.2974  0.1179 -0.3766
   33POPC   C12 4370   3.733   2.930   9.798  0.9030  0.3325  0.5720
   33POPC  H12A 4371   3.684   3.013   9.847  0.8790  0.1484  0.8573
   33POPC  H12B 4372   3.661   2.887   9.730  1.4799  1.2049 -0.6363
   33POPC   C13 4373   3.844   2.716   9.855  0.3860  0.3482 -0.3422
   33POPC  H13A 4374   3.930   2.754   9.801  0.7619 -1.2241 -0.9062
   33POPC  H13B 4375   3.873   2.642   9.928 -3.4030 -0.6056  0.4358
   33POPC  H13C 4376   3.779   2.659   9.790 -0.1135  2.6756 -2.0040
   33POPC   C14 4377   3.860   2.896  10.009  0.6471  0.6872  0.1905
   33POPC  H14A 4378   3.808   2.975  10.062  2.8769  1.5766  1.2024
   33POPC  H14B 4379   3.915   2.822  10.064 -0.0091 -0.3731 -0.5504
   33POPC  H14C 4380   3.937   2.941   9.948  0.3588 -1.2868 -1.7375
   33POPC   C15 4381   3.649   2.783   9.988 -0.4905 -0.4821 -0.1069
   33POPC  H15A 4382   3.588   2.719   9.925 -3.4885  0.8823  1.1881
   33POPC  H15B 4383   3.580   2.861  10.016  0.2123 -0.6142  2.1873
   33POPC  H15C 4384   3.681   2.729  10.076 -0.9800 -0.1431  0.2862
   33POPC   C11 4385   3.849   3.004   9.718  0.4377  0.2925 -0.2382
   33POPC  H11A 4386   3.799   3.061   9.637 -0.5011  2.1939  1.5967
   33POPC  H11B 4387   3.906   2.919   9.675  1.0746  0.4240  0.3402
   33POPC     P 4388   3.887   3.232   9.838 -0.1097 -0.1183 -0.1780
   33POPC   O13 4389   4.001   3.292   9.915 -0.1580 -0.0631  0.6515
   33POPC   O14 4390   3.757   3.226   9.910  0.4057 -0.3215 -0.7700
   33POPC   O12 4391   3.929   3.087   9.800  1.2096  0.3749  0.2654
   33POPC   O11 4392   3.875   3.301   9.695  0.5952 -0.6017 -0.3397
   33POPC    C1 4393   3.970   3.385   9.624 -0.7297  0.4591 -0.2874
   33POPC    HA 4394   3.917   3.472   9.579 -0.2593  0.0600 -1.6598
   33POPC    HB 4395   4.050   3.422   9.691  1.1724 -1.9757 -1.0858
   33POPC    C2 4396   4.041   3.306   9.508 -0.9627  0.0746  0.8765
   33POPC    HS 4397   4.112   3.368   9.449  2.7891 -1.3591  3.4935
   33POPC   O21 4398   3.952   3.233   9.419 -0.3155  0.7330  0.5636
   33POPC   C21 4399   3.884   3.303   9.332 -0.1510  0.5860  0.1268
   33POPC   O22 4400   3.888   3.420   9.313  0.0416 -0.6114  0.4573
   33POPC   C22 4401   3.789   3.215   9.242 -0.1037  0.4000 -0.3219
   33POPC   H2R 4402   3.699   3.196   9.305  1.1385  1.0469  1.7425
   33POPC   H2S 4403   3.846   3.122   9.220  3.6854  2.5469 -0.2433
   33POPC    C3 4404   4.139   3.202   9.572  0.6181 -0.2066 -0.5041
   33POPC    HX 4405   4.079   3.123   9.622  0.0542 -0.2088 -1.1646
   33POPC    HY 4406   4.193   3.254   9.654 -1.2578 -0.0516  0.7067
   33POPC   O31 4407   4.224   3.140   9.469  0.2478 -0.5604 -0.3975
   33POPC   C31 4408   4.341   3.204   9.461  1.0392  0.3394  0.0200
   33POPC   O32 4409   4.368   3.309   9.517 -0.0125  0.0932 -0.3594
   33POPC   C32 4410   4.439   3.122   9.367  0.5436  0.4049  0.0661
   33POPC   H2X 4411   4.523   3.192   9.348  1.3288 -0.9970 -2.0161
   33POPC   H2Y 4412   4.396   3.110   9.266  0.4799  0.1643  0.1214
   33POPC   C23 4413   3.740   3.283   9.112  0.5375 -0.6230 -0.2767
   33POPC   H3R 4414   3.826   3.295   9.043  2.9699 -1.9177  2.2849
   33POPC   H3S 4415   3.704   3.385   9.137 -1.4123 -1.0866 -1.0598
   33POPC   C24 4416   3.628   3.218   9.040 -0.0651  0.1017 -0.3314
   33POPC   H4R 4417   3.536   3.279   9.051 -1.5442 -2.1206  0.3813
   33POPC   H4S 4418   3.612   3.121   9.092 -0.0589  0.6328  0.6726
   33POPC   C25 4419   3.662   3.209   8.885  0.3999 -0.5889 -0.2386
   33POPC   H5R 4420   3.762   3.162   8.877  0.0037 -1.4249 -0.4219
   33POPC   H5S 4421   3.673   3.305   8.832  0.2507 -0.9331 -0.9053
   33POPC   C26 4422   3.551   3.134   8.813 -0.1306 -0.3747  0.5279
   33POPC   H6R 4423   3.465   3.204   8.818  0.1011 -0.1169  1.0095
   33POPC   H6S 4424   3.525   3.043   8.872 -1.2135 -0.0257  0.6156
   33POPC   C27 4425   3.602   3.109   8.671  0.0060  0.7472  0.3760
   33POPC   H7R 4426   3.700   3.058   8.669 -0.4578 -0.1487 -1.2492
   33POPC   H7S 4427   3.618   3.209   8.625  0.4266 -0.6930 -2.9166
   33POPC   C28 4428   3.508   3.027   8.575 -0.0586 -0.1861  0.6034
   33POPC   H8R 4429   3.406   3.063   8.599  0.4713 -0.2127  3.1043
   33POPC   H8S 4430   3.514   2.920   8.605  0.9210 -0.2728  0.1575
   33POPC   C29 4431   3.553   3.042   8.430  0.3646  0.6316 -0.5867
   33POPC   H91 4432   3.569   3.144   8.392  0.6720  0.8417  0.0860
   33POPC  C210 4433   3.566   2.946   8.334  0.0558  0.2529  0.3617
   33POPC  H101 4434   3.600   2.972   8.233  0.2858  0.2867  0.4446
   33POPC  C211 4435   3.531   2.798   8.359  0.4458 -0.1188 -0.2760
   33POPC  H11R 4436   3.429   2.772   8.324  0.4658 -0.1348 -0.3223
   33POPC  H11S 4437   3.541   2.770   8.466 -0.3039  0.8689  0.0620
   33POPC  C212 4438   3.634   2.712   8.283 -0.7389  0.1705  0.3198
   33POPC  H12R 4439   3.631   2.616   8.340 -2.0598 -0.4671 -0.7577
   33POPC  H12S 4440   3.730   2.767   8.284 -0.9219  0.5236 -0.8301
   33POPC  C213 4441   3.601   2.684   8.132 -0.1618  0.2757 -0.6220
   33POPC  H13R 4442   3.561   2.781   8.094 -0.3593  1.3065  2.0262
   33POPC  H13S 4443   3.513   2.617   8.128 -0.0888 -0.1254  2.2908
   33POPC  C214 4444   3.715   2.622   8.045  0.4136 -0.3372  0.0359
   33POPC  H14R 4445   3.747   2.525   8.089  0.2678  0.0408  1.0036
   33POPC  H14S 4446   3.805   2.686   8.060 -0.5625  0.7479  1.4490
   33POPC  C215 4447   3.682   2.604   7.898  0.0178  0.4522 -0.3916
   33POPC  H15R 4448   3.583   2.561   7.875  0.4542  0.0805 -1.6679
   33POPC  H15S 4449   3.764   2.543   7.854 -0.5763  0.4165 -1.4689
   33POPC  C216 4450   3.669   2.747   7.833 -0.2629  0.3816  0.6119
   33POPC  H16R 4451   3.767   2.787   7.866 -0.2265  1.8510 -1.1344
   33POPC  H16S 4452   3.592   2.814   7.877 -0.9061  0.3124 -0.3671
   33POPC  C217 4453   3.675   2.759   7.678 -0.0495  0.0897 -0.4407
   33POPC  H17R 4454   3.778   2.733   7.645  0.5496  3.1963 -1.3252
   33POPC  H17S 4455   3.651   2.865   7.657  0.9789  0.7147  1.3728
   33POPC  C218 4456   3.574   2.668   7.606 -0.4881  0.1362 -0.0612
   33POPC  H18R 4457   3.468   2.682   7.639  0.2086 -0.4161  2.7080
   33POPC  H18S 4458   3.603   2.562   7.620  1.6301  0.9272  2.2371
   33POPC  H18T 4459   3.589   2.694   7.499  0.5298 -0.3026 -0.0258
   33POPC   C33 4460   4.476   2.986   9.420 -0.4473  0.3316 -0.7051
   33POPC   H3X 4461   4.387   2.923   9.440  0.0221  0.1389  0.9223
   33POPC   H3Y 4462   4.546   2.989   9.506  1.1137  1.8179 -1.9397
   33POPC   C34 4463   4.554   2.903   9.316  0.0203 -0.2854 -0.7436
   33POPC   H4X 4464   4.488   2.889   9.228  0.6809 -0.1020 -1.2728
   33POPC   H4Y 4465   4.577   2.799   9.349  0.1337 -0.8822 -2.6210
   33POPC   C35 4466   4.681   2.977   9.266 -0.4048  0.0007 -0.8687
   33POPC   H5X 4467   4.662   3.084   9.246  0.9794  0.3343 -0.5471
   33POPC   H5Y 4468   4.704   2.934   9.166 -3.1497  1.9207 -2.4521
   33POPC   C36 4469   4.798   2.958   9.359 -0.5322 -0.5773  0.2402
   33POPC   H6X 4470   4.798   2.849   9.379 -5.1825 -0.9475 -0.5648
   33POPC   H6Y 4471   4.792   3.009   9.457 -0.4143  0.0498 -0.0747
   33POPC   C37 4472   4.923   3.017   9.300  0.1958 -0.0934  0.2102
   33POPC   H7X 4473   4.954   2.964   9.207  1.2498 -0.4266  0.7266
   33POPC   H7Y 4474   5.012   2.991   9.362  1.0104  0.0223 -0.8866
   33POPC   C38 4475   4.922   3.173   9.272 -0.6469  0.4106 -0.3602
   33POPC   H8X 4476   5.023   3.201   9.307 -0.5745 -1.5509  1.1874
   33POPC   H8Y 4477   4.841   3.217   9.335 -2.4707 -1.1107 -1.5296
   33POPC   C39 4478   4.917   3.226   9.127  0.6296  0.7566 -0.2952
   33POPC   H9X 4479   4.883   3.331   9.137  0.1319  0.4926  0.8437
   33POPC   H9Y 4480   4.849   3.166   9.063  0.8417  0.4511 -0.2386
   33POPC  C310 4481   5.053   3.226   9.055  0.6436  0.7871  0.0515
   33POPC  H10X 4482   5.106   3.129   9.045  0.9250  0.9479 -0.0454
   33POPC  H10Y 4483   5.116   3.297   9.114  0.7489  2.2671 -1.7391
   33POPC  C311 4484   5.051   3.292   8.921  0.1830  0.8290 -0.2463
   33POPC  H11X 4485   5.004   3.392   8.930 -0.0230  0.6444  0.9420
   33POPC  H11Y 4486   4.979   3.240   8.854 -0.4347  0.4928  0.6554
   33POPC  C312 4487   5.185   3.294   8.862 -0.5261  0.1401  0.4101
   33POPC  H12X 4488   5.200   3.188   8.833  0.2491  1.1487 -3.4530
   33POPC  H12Y 4489   5.258   3.325   8.941 -0.2124  0.3579  0.0369
   33POPC  C313 4490   5.220   3.374   8.736  0.0542 -0.4529  0.4155
   33POPC  H13X 4491   5.329   3.393   8.739  0.1869 -1.3116  2.0936
   33POPC  H13Y 4492   5.166   3.471   8.747  0.7548  0.3008 -2.1650
   33POPC  C314 4493   5.155   3.326   8.613  0.2306  0.3492 -0.0271
   33POPC  H14X 4494   5.048   3.348   8.595  0.6153  0.6019 -2.4041
   33POPC  H14Y 4495   5.170   3.216   8.618  0.0780  0.3807  2.7238
   33POPC  C315 4496   5.225   3.385   8.481  0.8661 -0.0417 -0.0369
   33POPC  H15X 4497   5.184   3.319   8.402  2.2400  1.0711 -1.7653
   33POPC  H15Y 4498   5.333   3.361   8.476  0.7805 -0.6899  0.8883
   33POPC  C316 4499   5.191   3.530   8.459  0.3953 -0.2160 -0.2459
   33POPC  H16X 4500   5.086   3.545   8.427  0.4115 -0.7992 -0.5890
   33POPC  H16Y 4501   5.258   3.584   8.388  2.0318 -0.2543  1.2034
   33POPC  H16Z 4502   5.203   3.588   8.553  0.0218  1.1019 -0.9799
   34POPC     N 4503   3.588   4.476  10.388 -0.3234  0.7126  0.9032
   34POPC   C12 4504   3.533   4.529  10.259  0.0299  0.4268  0.2148
   34POPC  H12A 4505   3.521   4.635  10.277  1.9806  0.8039 -0.4445
   34POPC  H12B 4506   3.434   4.493  10.237  0.4057 -0.1833 -0.5000
   34POPC   C13 4507   3.512   4.532  10.503 -0.6591  0.2669 -0.0139
   34POPC  H13A 4508   3.561   4.483  10.585  1.9201 -0.4979 -1.8595
   34POPC  H13B 4509   3.521   4.640  10.505  1.6847  0.1266  0.6908
   34POPC  H13C 4510   3.407   4.509  10.503 -0.6367  0.1644 -0.1494
   34POPC   C14 4511   3.567   4.320  10.383  0.3761 -0.0344  0.2677
   34POPC  H14A 4512   3.626   4.280  10.302 -1.9760 -1.3299 -0.9265
   34POPC  H14B 4513   3.597   4.277  10.478  1.6321 -1.0532 -0.5563
   34POPC  H14C 4514   3.466   4.287  10.360  0.6715  0.0858 -1.2826
   34POPC   C15 4515   3.733   4.497  10.401  0.1793  0.2479  0.2915
   34POPC  H15A 4516   3.767   4.592  10.439 -1.6454  0.7952  0.6557
   34POPC  H15B 4517   3.786   4.473  10.310  3.0999 -2.1913  2.4433
   34POPC  H15C 4518   3.777   4.423  10.466  2.8635  1.3203 -0.2091
   34POPC   C11 4519   3.613   4.513  10.132 -0.5749 -0.1640 -0.0984
   34POPC  H11A 4520   3.712   4.557  10.154 -0.4719 -0.3806 -0.1355
   34POPC  H11B 4521   3.566   4.565  10.045  3.6980  0.9044 -1.9990
   34POPC     P 4522   3.750   4.323  10.013  0.6101  0.2488 -0.0498
   34POPC   O13 4523   3.710   4.198   9.951  0.2234  0.3536  0.1906
   34POPC   O14 4524   3.860   4.313  10.112 -0.5979 -0.5131  0.2639
   34POPC   O12 4525   3.623   4.379  10.091 -0.6447  0.3609 -0.0347
   34POPC   O11 4526   3.774   4.436   9.911  0.1812 -0.0458  0.1108
   34POPC    C1 4527   3.694   4.459   9.795 -0.4837  0.3787  0.2875
   34POPC    HA 4528   3.704   4.559   9.748 -0.5949  0.7783  1.1061
   34POPC    HB 4529   3.586   4.454   9.819 -0.4740  0.6193  0.3750
   34POPC    C2 4530   3.744   4.364   9.683 -0.4268 -0.6987  0.8273
   34POPC    HS 4531   3.807   4.282   9.725  1.6941  2.1995  3.9074
   34POPC   O21 4532   3.815   4.435   9.581 -0.5464  0.3039 -0.2827
   34POPC   C21 4533   3.938   4.477   9.609 -0.7403 -0.6193 -0.2808
   34POPC   O22 4534   4.018   4.429   9.682 -0.4396  0.0918  0.1034
   34POPC   C22 4535   3.964   4.609   9.535  0.8382 -0.1176 -0.2556
   34POPC   H2R 4536   4.026   4.596   9.444  1.0528 -0.6506 -0.0389
   34POPC   H2S 4537   4.031   4.663   9.605  2.2998  1.3575 -2.6517
   34POPC    C3 4538   3.623   4.306   9.607  0.2473 -0.3259 -0.6241
   34POPC    HX 4539   3.570   4.256   9.691 -1.2043  0.8564 -0.7984
   34POPC    HY 4540   3.652   4.221   9.543  1.6008  0.0959 -0.6015
   34POPC   O31 4541   3.535   4.402   9.551 -0.3344 -0.7718  0.6697
   34POPC   C31 4542   3.414   4.365   9.539  0.8012 -0.2346 -0.3803
   34POPC   O32 4543   3.368   4.251   9.556  0.3534 -0.1852  0.2745
   34POPC   C32 4544   3.330   4.490   9.501 -0.2173 -0.4682  0.6643
   34POPC   H2X 4545   3.395   4.578   9.519 -2.0846  1.0122  0.4969
   34POPC   H2Y 4546   3.254   4.502   9.581  0.5954  0.3025  1.3404
   34POPC   C23 4547   3.845   4.688   9.478  0.3565 -0.1067  0.1188
   34POPC   H3R 4548   3.765   4.714   9.550  0.6557  1.2026 -0.0009
   34POPC   H3S 4549   3.794   4.633   9.396  1.4567  3.5378 -3.3204
   34POPC   C24 4550   3.883   4.813   9.401 -0.2016 -0.3416 -0.3097
   34POPC   H4R 4551   3.953   4.778   9.323  1.3157 -0.3430  1.0149
   34POPC   H4S 4552   3.939   4.886   9.463  1.2477 -0.6843 -1.1665
   34POPC   C25 4553   3.761   4.886   9.340  0.1631  0.3654 -0.7611
   34POPC   H5R 4554   3.808   4.980   9.304 -0.5163  1.7672  1.7656
   34POPC   H5S 4555   3.692   4.909   9.424  2.3314  2.2009  0.6658
   34POPC   C26 4556   3.694   4.800   9.224 -0.3427 -0.9344 -0.8466
   34POPC   H6R 4557   3.596   4.845   9.200 -0.4158 -1.3745 -1.3911
   34POPC   H6S 4558   3.659   4.695   9.239 -0.4475 -0.5439  2.5907
   34POPC   C27 4559   3.789   4.792   9.101  0.2086  0.3760 -0.6482
   34POPC   H7R 4560   3.880   4.736   9.129  0.4480  0.7052 -0.7582
   34POPC   H7S 4561   3.821   4.889   9.057 -2.0674  0.6793 -1.7591
   34POPC   C28 4562   3.712   4.737   8.977  0.0059  0.5035  0.5373
   34POPC   H8R 4563   3.680   4.633   8.998 -1.6961  0.9918  0.4904
   34POPC   H8S 4564   3.790   4.730   8.898  1.1167  0.8206  1.5618
   34POPC   C29 4565   3.597   4.824   8.928  0.2218  0.6999  0.0336
   34POPC   H91 4566   3.494   4.806   8.964  0.4137  1.1514  0.8269
   34POPC  C210 4567   3.610   4.914   8.828 -0.7607  0.3092  0.5735
   34POPC  H101 4568   3.515   4.957   8.793 -1.5182 -1.0883  0.8283
   34POPC  C211 4569   3.736   4.951   8.754 -0.4145  0.2311  0.1846
   34POPC  H11R 4570   3.827   4.912   8.804 -0.1991  0.6285  0.1086
   34POPC  H11S 4571   3.741   5.061   8.764 -0.7067  0.4320 -1.5973
   34POPC  C212 4572   3.760   4.920   8.605  0.1464 -0.2098 -0.0434
   34POPC  H12R 4573   3.745   4.812   8.585 -0.8447  0.0360 -0.6970
   34POPC  H12S 4574   3.866   4.949   8.585  0.2860 -1.8358 -2.0266
   34POPC  C213 4575   3.662   5.006   8.532  0.2151 -0.4251  0.4910
   34POPC  H13R 4576   3.663   5.112   8.566  0.6274  0.3478 -1.7768
   34POPC  H13S 4577   3.555   4.980   8.547 -0.1026  1.2314  1.4447
   34POPC  C214 4578   3.683   5.014   8.377 -0.6812  0.9724  0.0993
   34POPC  H14R 4579   3.621   4.931   8.337 -0.5566  1.3724 -0.9648
   34POPC  H14S 4580   3.788   5.005   8.341 -1.5892 -0.2607 -2.4511
   34POPC  C215 4581   3.632   5.147   8.315  0.3255  0.0315 -0.1938
   34POPC  H15R 4582   3.697   5.228   8.353 -0.7512 -0.4554  3.0219
   34POPC  H15S 4583   3.528   5.158   8.355  1.0328 -0.6071  1.9511
   34POPC  C216 4584   3.634   5.142   8.163  0.7017  0.2320  0.5111
   34POPC  H16R 4585   3.587   5.045   8.135  0.2148  0.6738 -0.2608
   34POPC  H16S 4586   3.739   5.130   8.127  0.3588  0.7557 -0.7239
   34POPC  C217 4587   3.568   5.257   8.088  0.3337 -0.0496  0.4419
   34POPC  H17R 4588   3.594   5.250   7.980 -3.3092 -1.5656 -0.4651
   34POPC  H17S 4589   3.606   5.346   8.144 -0.0427 -0.1807  0.9099
   34POPC  C218 4590   3.414   5.268   8.090 -0.8503  0.4605  0.2360
   34POPC  H18R 4591   3.375   5.371   8.073 -0.1678  0.8128  0.7493
   34POPC  H18S 4592   3.379   5.240   8.192  2.0888 -0.3580  1.1248
   34POPC  H18T 4593   3.373   5.195   8.018  1.4933 -0.1623 -0.5435
   34POPC   C33 4594   3.276   4.491   9.353 -0.8077 -0.2659  0.4631
   34POPC   H3X 4595   3.211   4.580   9.334  0.5821  1.0285  1.5533
   34POPC   H3Y 4596   3.208   4.404   9.347  0.1112 -0.9845  0.2930
   34POPC   C34 4597   3.384   4.480   9.240 -0.3049  0.9206  0.6939
   34POPC   H4X 4598   3.462   4.407   9.268 -0.6284  0.6096  0.7944
   34POPC   H4Y 4599   3.437   4.578   9.234  1.4399 -0.0468 -0.3374
   34POPC   C35 4600   3.342   4.432   9.105  0.3847 -0.1050 -0.5549
   34POPC   H5X 4601   3.247   4.484   9.079 -0.0169 -1.2206 -1.3689
   34POPC   H5Y 4602   3.319   4.324   9.092 -2.1859  0.2699  0.2678
   34POPC   C36 4603   3.460   4.453   8.998  0.0754 -0.8709  0.0177
   34POPC   H6X 4604   3.546   4.386   9.021 -0.0447 -0.5371  1.5498
   34POPC   H6Y 4605   3.484   4.562   9.009 -0.3109 -0.8344  0.5220
   34POPC   C37 4606   3.404   4.449   8.860  0.0665 -0.7906 -0.4905
   34POPC   H7X 4607   3.331   4.529   8.831 -1.8681 -2.4851 -0.5318
   34POPC   H7Y 4608   3.359   4.349   8.842  0.9510 -1.4886  1.0159
   34POPC   C38 4609   3.512   4.456   8.748  0.0738  0.1981  0.3968
   34POPC   H8X 4610   3.583   4.375   8.775  0.1183 -0.7226 -2.2128
   34POPC   H8Y 4611   3.579   4.545   8.752  0.0476  0.2495 -0.1739
   34POPC   C39 4612   3.446   4.417   8.609  0.0440 -0.0956  0.1143
   34POPC   H9X 4613   3.370   4.492   8.579  2.1445  1.4769 -1.6013
   34POPC   H9Y 4614   3.404   4.314   8.610 -1.8502  0.5373  3.6201
   34POPC  C310 4615   3.551   4.436   8.489  0.1331  0.0417 -0.2420
   34POPC  H10X 4616   3.645   4.389   8.524  0.5220  1.2375  0.3841
   34POPC  H10Y 4617   3.584   4.543   8.485  2.9625 -0.6609  1.5621
   34POPC  C311 4618   3.506   4.367   8.360 -0.9188  0.2057  0.4164
   34POPC  H11X 4619   3.412   4.408   8.320 -1.5892 -2.5938 -1.1253
   34POPC  H11Y 4620   3.491   4.261   8.392  2.9104 -0.4883  0.3875
   34POPC  C312 4621   3.614   4.364   8.256  0.1200 -0.0692  0.6276
   34POPC  H12X 4622   3.645   4.468   8.229 -1.5044  1.1137  2.9563
   34POPC  H12Y 4623   3.558   4.324   8.169 -0.8222 -2.7843  2.3666
   34POPC  C313 4624   3.730   4.264   8.264  0.5926 -0.5635 -0.7557
   34POPC  H13X 4625   3.684   4.163   8.262 -0.3601 -0.2004  0.9213
   34POPC  H13Y 4626   3.784   4.278   8.360 -1.2142  0.4790  0.1543
   34POPC  C314 4627   3.843   4.285   8.161  0.0953 -0.0609 -0.6038
   34POPC  H14X 4628   3.906   4.194   8.176  0.5577  0.4896  0.9988
   34POPC  H14Y 4629   3.899   4.376   8.190  0.4880 -0.5550  0.2509
   34POPC  C315 4630   3.802   4.294   8.013  0.0809  0.2614  0.0450
   34POPC  H15X 4631   3.712   4.358   8.001  0.2642  1.0028  2.2062
   34POPC  H15Y 4632   3.761   4.195   7.983 -0.1609  0.1347  0.7603
   34POPC  C316 4633   3.916   4.336   7.923 -0.3616 -0.1482 -1.0706
   34POPC  H16X 4634   3.937   4.441   7.955 -1.8923  0.4943 -2.0562
   34POPC  H16Y 4635   3.882   4.336   7.818 -2.3165 -1.0926 -0.4927
   34POPC  H16Z 4636   4.001   4.267   7.939 -0.8214 -0.3197  0.9378
   35POPC     N 4637   1.335   1.729   9.819  0.4830  0.2651 -0.2848
   35POPC   C12 4638   1.356   1.882   9.809 -0.5920  0.2117 -0.1611
   35POPC  H12A 4639   1.333   1.935   9.900  1.5761  2.8530 -1.0272
   35POPC  H12B 4640   1.306   1.921   9.722 -1.0047 -0.3310 -0.1736
   35POPC   C13 4641   1.190   1.691   9.842 -0.2848 -0.6318  0.4353
   35POPC  H13A 4642   1.168   1.585   9.845 -2.3380 -0.3905 -2.0322
   35POPC  H13B 4643   1.159   1.734   9.936  1.3040  0.5788  0.4244
   35POPC  H13C 4644   1.144   1.725   9.750 -1.3913 -2.9137  0.0466
   35POPC   C14 4645   1.372   1.663   9.689  0.2490 -0.3489  0.1384
   35POPC  H14A 4646   1.292   1.684   9.620 -1.4723  0.2320  2.1728
   35POPC  H14B 4647   1.460   1.714   9.654  1.1072 -1.7589  0.1878
   35POPC  H14C 4648   1.385   1.556   9.688  0.2209 -0.3511 -0.8541
   35POPC   C15 4649   1.415   1.669   9.929 -1.0524  0.3674 -0.2417
   35POPC  H15A 4650   1.378   1.674  10.030  1.1700 -0.9502  0.7266
   35POPC  H15B 4651   1.516   1.707   9.926 -1.2657  1.2588  1.8583
   35POPC  H15C 4652   1.422   1.562   9.910  0.3947  0.1116  1.4631
   35POPC   C11 4653   1.510   1.925   9.801 -0.2955  0.4048 -0.3132
   35POPC  H11A 4654   1.565   1.902   9.895 -0.9710 -1.3053 -0.3018
   35POPC  H11B 4655   1.514   2.036   9.789 -1.2259  0.3650 -1.1639
   35POPC     P 4656   1.732   1.841   9.692 -0.7119 -0.0135  0.0375
   35POPC   O13 4657   1.752   1.724   9.780 -0.2846 -0.2458 -0.2561
   35POPC   O14 4658   1.796   1.961   9.746  0.0959 -0.8347 -0.0157
   35POPC   O12 4659   1.577   1.862   9.689  0.2510 -0.0246 -0.0639
   35POPC   O11 4660   1.782   1.807   9.550  0.3078 -0.3661  0.7090
   35POPC    C1 4661   1.752   1.692   9.483  0.1540  0.2179  0.1431
   35POPC    HA 4662   1.744   1.703   9.373 -0.4254  0.0615  0.1640
   35POPC    HB 4663   1.653   1.645   9.503  0.3510 -0.6241 -0.7546
   35POPC    C2 4664   1.853   1.574   9.513 -0.6817 -0.3816 -0.2931
   35POPC    HS 4665   1.873   1.567   9.622  2.6824 -0.3162 -0.8183
   35POPC   O21 4666   1.978   1.615   9.453 -0.1484  0.0089  0.2349
   35POPC   C21 4667   2.074   1.526   9.468  0.2937 -0.4165 -0.0309
   35POPC   O22 4668   2.073   1.430   9.544 -0.5670  0.9351  0.2626
   35POPC   C22 4669   2.193   1.573   9.390  0.2299 -0.4925 -0.0797
   35POPC   H2R 4670   2.277   1.580   9.462 -0.5669  0.6964  0.7782
   35POPC   H2S 4671   2.169   1.672   9.346  1.3310  0.6596  1.7762
   35POPC    C3 4672   1.789   1.442   9.463 -0.1923 -0.1955  0.2240
   35POPC    HX 4673   1.704   1.425   9.532 -0.3489  1.3483  0.4443
   35POPC    HY 4674   1.859   1.358   9.483  1.9154  1.4629  0.0368
   35POPC   O31 4675   1.733   1.449   9.327 -0.4001  0.3892  0.1093
   35POPC   C31 4676   1.813   1.410   9.225  0.2965  0.3892  0.6593
   35POPC   O32 4677   1.928   1.366   9.237  0.2208  0.3903  0.1224
   35POPC   C32 4678   1.735   1.446   9.099  0.4199 -0.0872  0.3228
   35POPC   H2X 4679   1.698   1.549   9.120 -0.6460 -0.7581  1.9159
   35POPC   H2Y 4680   1.648   1.378   9.099  0.3417 -0.1115 -2.5792
   35POPC   C23 4681   2.253   1.478   9.286  0.1613 -0.0292 -0.2163
   35POPC   H3R 4682   2.179   1.463   9.205  0.1839  0.2490 -0.2892
   35POPC   H3S 4683   2.276   1.379   9.330  1.5577  0.6708  0.7141
   35POPC   C24 4684   2.376   1.534   9.214  0.1884 -0.0475 -0.4931
   35POPC   H4R 4685   2.427   1.451   9.160 -0.8358 -1.1579  0.2011
   35POPC   H4S 4686   2.437   1.585   9.291  1.7497 -1.9902 -0.3444
   35POPC   C25 4687   2.329   1.636   9.108 -1.2559 -0.1034  0.1429
   35POPC   H5R 4688   2.408   1.712   9.090 -0.1125 -1.1281  0.6340
   35POPC   H5S 4689   2.237   1.690   9.139 -0.9058  0.9804 -0.6352
   35POPC   C26 4690   2.310   1.575   8.970  0.0182 -0.3973  1.0668
   35POPC   H6R 4691   2.223   1.508   8.985 -1.5076  0.8437 -1.5027
   35POPC   H6S 4692   2.394   1.511   8.933 -1.1688 -0.1981 -2.2854
   35POPC   C27 4693   2.276   1.674   8.857 -0.1049  0.0872 -0.0278
   35POPC   H7R 4694   2.258   1.610   8.768 -1.5273  2.3302 -1.4333
   35POPC   H7S 4695   2.349   1.755   8.837 -0.6357  0.4424 -0.5413
   35POPC   C28 4696   2.136   1.748   8.889 -0.4462  0.1679  0.9207
   35POPC   H8R 4697   2.077   1.676   8.949 -2.8639  0.0180 -1.4399
   35POPC   H8S 4698   2.090   1.746   8.788  0.2526 -1.5819  0.6007
   35POPC   C29 4699   2.140   1.875   8.966  0.4671  0.2745 -0.0999
   35POPC   H91 4700   2.203   1.950   8.917  0.4739  0.7863  0.6690
   35POPC  C210 4701   2.068   1.900   9.078  1.1364  0.0538  0.2806
   35POPC  H101 4702   2.082   2.001   9.119  0.8992  1.0978 -2.0431
   35POPC  C211 4703   1.977   1.814   9.152  0.4441 -0.2130  0.4810
   35POPC  H11R 4704   2.016   1.808   9.256  2.5764  0.2491 -0.2384
   35POPC  H11S 4705   1.986   1.709   9.118 -0.5423  0.4145 -1.8910
   35POPC  C212 4706   1.826   1.849   9.147  0.1048  0.0580 -0.0726
   35POPC  H12R 4707   1.812   1.941   9.208  1.5653  0.2296  0.0395
   35POPC  H12S 4708   1.767   1.762   9.182  0.5181 -0.4315 -0.5737
   35POPC  C213 4709   1.774   1.873   9.004 -0.2549  0.0978  0.1655
   35POPC  H13R 4710   1.797   1.784   8.942 -1.2430  0.1861 -0.3428
   35POPC  H13S 4711   1.818   1.960   8.951 -2.4148  0.0916 -1.8306
   35POPC  C214 4712   1.625   1.893   8.996  0.1190 -0.0474  0.1741
   35POPC  H14R 4713   1.578   1.801   9.037  0.8063 -0.3521  0.2970
   35POPC  H14S 4714   1.592   1.899   8.890  0.4189  0.6191  0.1099
   35POPC  C215 4715   1.568   2.023   9.050 -0.0977 -0.3091 -0.1229
   35POPC  H15R 4716   1.610   2.122   9.020 -1.2298  0.0015 -0.7082
   35POPC  H15S 4717   1.578   2.030   9.161  1.1254 -0.0102 -0.2280
   35POPC  C216 4718   1.417   2.029   9.017 -0.5203 -0.1340 -0.6869
   35POPC  H16R 4719   1.402   2.015   8.907  0.4863  2.2169 -1.1791
   35POPC  H16S 4720   1.384   2.133   9.036  0.3742 -0.3779  2.9178
   35POPC  C217 4721   1.339   1.932   9.091  1.6087  0.5088  0.1616
   35POPC  H17R 4722   1.336   1.957   9.199 -2.0908  3.1529 -0.3678
   35POPC  H17S 4723   1.365   1.828   9.062  0.3666  0.2699 -0.1745
   35POPC  C218 4724   1.189   1.950   9.050  0.1161  0.6490 -0.0088
   35POPC  H18R 4725   1.128   1.880   9.111 -1.8184  2.9690  0.8882
   35POPC  H18S 4726   1.172   1.922   8.944 -0.8255  3.2089 -0.6219
   35POPC  H18T 4727   1.151   2.052   9.075  1.7249  0.9294  1.5120
   35POPC   C33 4728   1.804   1.444   8.962  0.5641 -0.6115  0.3499
   35POPC   H3X 4729   1.836   1.340   8.942  0.3319 -0.1097 -3.5133
   35POPC   H3Y 4730   1.894   1.508   8.942 -0.0279  0.1036 -0.0954
   35POPC   C34 4731   1.706   1.485   8.848  0.4171 -0.0547  1.0224
   35POPC   H4X 4732   1.693   1.596   8.847  2.5220  0.2312  0.8668
   35POPC   H4Y 4733   1.616   1.435   8.889  1.3316 -0.9665  1.9728
   35POPC   C35 4734   1.742   1.415   8.719  0.1276 -0.4572 -0.2674
   35POPC   H5X 4735   1.644   1.397   8.669  0.7570 -0.4323 -1.5511
   35POPC   H5Y 4736   1.798   1.322   8.738 -0.2539 -0.5091  0.6213
   35POPC   C36 4737   1.834   1.482   8.612  0.4266 -0.4032  0.2565
   35POPC   H6X 4738   1.800   1.583   8.579  0.0208 -0.7312 -0.3516
   35POPC   H6Y 4739   1.832   1.418   8.522  0.0829  0.8008 -0.6269
   35POPC   C37 4740   1.987   1.485   8.636 -0.4500 -0.4191 -0.1157
   35POPC   H7X 4741   2.030   1.383   8.649  1.1884  0.3412  0.6237
   35POPC   H7Y 4742   2.019   1.541   8.726  0.3256  0.5803 -0.9892
   35POPC   C38 4743   2.065   1.536   8.503  0.1804  0.5396  0.4642
   35POPC   H8X 4744   2.016   1.477   8.422  0.4444  1.5362 -0.4352
   35POPC   H8Y 4745   2.174   1.516   8.497  0.2486  0.8466  0.6680
   35POPC   C39 4746   2.044   1.688   8.484 -0.4136 -0.2947 -0.0202
   35POPC   H9X 4747   2.073   1.733   8.581  2.0775  1.0861 -1.2992
   35POPC   H9Y 4748   1.941   1.723   8.465 -0.8283 -0.7648  1.2366
   35POPC  C310 4749   2.133   1.763   8.376 -0.2460  0.7151  0.7262
   35POPC  H10X 4750   2.235   1.719   8.386  0.2166  1.4437 -0.5883
   35POPC  H10Y 4751   2.145   1.870   8.403  0.7343  0.3258  1.9154
   35POPC  C311 4752   2.088   1.737   8.234  0.0470 -0.5260  0.3193
   35POPC  H11X 4753   1.981   1.763   8.224  0.6266  1.5927 -1.1734
   35POPC  H11Y 4754   2.102   1.632   8.201 -3.2649  0.0188 -3.6908
   35POPC  C312 4755   2.178   1.818   8.133 -0.4112  0.4322  0.2315
   35POPC  H12X 4756   2.281   1.776   8.131 -1.2590 -1.8271  1.0131
   35POPC  H12Y 4757   2.190   1.927   8.151  0.2562  0.2179  1.1944
   35POPC  C313 4758   2.115   1.814   7.993 -0.4338  0.1550  0.2699
   35POPC  H13X 4759   2.104   1.711   7.953  0.2715  0.3470 -0.4547
   35POPC  H13Y 4760   2.190   1.858   7.924  1.0822 -2.3210  0.1892
   35POPC  C314 4761   1.989   1.895   7.977 -0.7522  0.2275 -0.8935
   35POPC  H14X 4762   1.995   1.981   8.046  0.8606 -1.4554  1.2166
   35POPC  H14Y 4763   1.903   1.831   8.006 -0.5508  1.0611  1.7926
   35POPC  C315 4764   1.958   1.936   7.835 -0.9765  0.7518  0.1963
   35POPC  H15X 4765   1.961   1.851   7.764 -1.2170  2.0695 -1.4614
   35POPC  H15Y 4766   2.033   2.012   7.804 -0.3410 -0.0925 -0.3620
   35POPC  C316 4767   1.815   1.990   7.818  0.8321  0.2470  0.1425
   35POPC  H16X 4768   1.792   2.073   7.889 -1.9489 -1.2141  1.0877
   35POPC  H16Y 4769   1.736   1.914   7.831  0.1540  0.5509 -1.8558
   35POPC  H16Z 4770   1.815   2.029   7.714  1.0631  0.7109  0.3108
   36POPC     N 4771   1.061   6.211   9.571 -0.3665 -0.0591 -0.9371
   36POPC   C12 4772   0.963   6.323   9.532  0.2611 -0.1218  0.1210
   36POPC  H12A 4773   0.908   6.347   9.622  0.1503 -0.6518  0.1950
   36POPC  H12B 4774   0.893   6.294   9.455 -0.7621  0.5901  0.7559
   36POPC   C13 4775   1.172   6.197   9.466  0.3953  0.2096  0.1043
   36POPC  H13A 4776   1.206   6.297   9.443 -0.4160  1.3828  3.5108
   36POPC  H13B 4777   1.263   6.145   9.489  0.6126  0.8016  0.6069
   36POPC  H13C 4778   1.135   6.153   9.374 -0.2138  0.1802  0.3542
   36POPC   C14 4779   1.131   6.245   9.703  0.2773 -0.4094 -0.5922
   36POPC  H14A 4780   1.169   6.346   9.700 -0.7899  0.0845  1.3020
   36POPC  H14B 4781   1.050   6.241   9.774  1.6198  0.7658  1.0827
   36POPC  H14C 4782   1.197   6.167   9.736  0.4726  0.4242  1.0568
   36POPC   C15 4783   0.975   6.085   9.569 -0.3398 -0.0620  0.4148
   36POPC  H15A 4784   0.893   6.096   9.639 -0.6821  0.7867 -0.1090
   36POPC  H15B 4785   1.037   6.001   9.597  0.7316  0.3706 -0.6106
   36POPC  H15C 4786   0.937   6.077   9.468  1.3849 -3.4327 -0.1215
   36POPC   C11 4787   1.038   6.455   9.481  0.5534 -0.4751  0.0217
   36POPC  H11A 4788   0.965   6.538   9.467  0.3844 -0.7770 -0.9777
   36POPC  H11B 4789   1.077   6.422   9.382  1.5623 -2.9177  1.1301
   36POPC     P 4790   1.145   6.625   9.649  0.0992 -0.1042  0.1451
   36POPC   O13 4791   1.240   6.603   9.762  0.5140 -0.0362  0.0217
   36POPC   O14 4792   1.006   6.650   9.687 -0.3900 -0.0645 -0.5132
   36POPC   O12 4793   1.151   6.493   9.560  0.4271 -0.1358  0.4628
   36POPC   O11 4794   1.196   6.733   9.545 -0.1587  0.0687 -0.6395
   36POPC    C1 4795   1.324   6.719   9.489  0.2564 -0.3863 -0.7389
   36POPC    HA 4796   1.315   6.688   9.382  3.0015  2.0973 -1.8280
   36POPC    HB 4797   1.389   6.651   9.547  4.6580  1.2736 -3.2633
   36POPC    C2 4798   1.392   6.856   9.488  0.3200 -0.2605 -0.3381
   36POPC    HS 4799   1.413   6.874   9.596 -1.3515 -1.0075  0.1376
   36POPC   O21 4800   1.317   6.972   9.448  0.1584 -0.1299  1.1872
   36POPC   C21 4801   1.343   7.093   9.470 -0.6993 -0.2493 -0.2263
   36POPC   O22 4802   1.443   7.140   9.529 -0.0232  0.4421 -0.4217
   36POPC   C22 4803   1.229   7.179   9.420 -1.1895 -0.0143 -0.3750
   36POPC   H2R 4804   1.143   7.156   9.486 -0.9590 -1.2039 -0.4757
   36POPC   H2S 4805   1.205   7.149   9.316 -0.1750 -0.8534 -0.3899
   36POPC    C3 4806   1.532   6.851   9.416 -0.3240  0.2239  0.1839
   36POPC    HX 4807   1.595   6.789   9.483 -1.8120 -1.2388  0.2952
   36POPC    HY 4808   1.576   6.953   9.426 -0.2035  0.0526  1.5085
   36POPC   O31 4809   1.536   6.805   9.278  0.0904 -0.0842  0.5147
   36POPC   C31 4810   1.530   6.902   9.191 -0.0672 -0.2257 -0.0488
   36POPC   O32 4811   1.535   7.023   9.209 -0.4796  0.3024 -0.0257
   36POPC   C32 4812   1.505   6.838   9.055 -0.2079 -0.8497  0.4931
   36POPC   H2X 4813   1.408   6.783   9.055 -1.0801  0.5177 -2.0512
   36POPC   H2Y 4814   1.583   6.761   9.044 -0.6003 -1.0349 -1.1392
   36POPC   C23 4815   1.259   7.330   9.421  0.4529  0.5138  0.6166
   36POPC   H3R 4816   1.285   7.366   9.523 -0.9531  0.8603  0.8705
   36POPC   H3S 4817   1.160   7.374   9.394 -0.6896 -2.6013 -0.6677
   36POPC   C24 4818   1.359   7.375   9.317  0.0428 -0.1478 -0.6216
   36POPC   H4R 4819   1.457   7.324   9.327 -0.3872 -0.7976  0.4083
   36POPC   H4S 4820   1.362   7.485   9.330 -1.5165  0.0354 -1.5404
   36POPC   C25 4821   1.315   7.343   9.171 -0.2064  0.3428  1.1059
   36POPC   H5R 4822   1.213   7.381   9.151 -0.7408 -1.3357  0.4684
   36POPC   H5S 4823   1.327   7.235   9.145 -1.0286  0.2242  1.1884
   36POPC   C26 4824   1.400   7.420   9.060 -0.1137 -0.0054 -0.1818
   36POPC   H6R 4825   1.504   7.419   9.098 -0.3124 -1.5580  0.4077
   36POPC   H6S 4826   1.361   7.524   9.052 -1.1071 -0.2148  1.4398
   36POPC   C27 4827   1.401   7.355   8.919  1.1589  0.4452 -0.0661
   36POPC   H7R 4828   1.423   7.246   8.917 -1.9330 -0.3042  0.5356
   36POPC   H7S 4829   1.479   7.394   8.851 -0.0527 -0.9178 -2.3535
   36POPC   C28 4830   1.264   7.379   8.842  0.0400 -0.7054  0.0952
   36POPC   H8R 4831   1.251   7.486   8.865  0.1953 -0.4123 -1.0936
   36POPC   H8S 4832   1.175   7.331   8.888 -1.1774  1.3845  0.0031
   36POPC   C29 4833   1.273   7.354   8.694 -0.3262  0.5723 -0.0190
   36POPC   H91 4834   1.273   7.249   8.662  0.6817  0.4654  0.2885
   36POPC  C210 4835   1.257   7.449   8.594 -0.2984  0.0438 -0.0471
   36POPC  H101 4836   1.272   7.428   8.487  1.7580 -2.0592  0.5705
   36POPC  C211 4837   1.233   7.594   8.637 -0.3717  0.3444  0.1287
   36POPC  H11R 4838   1.305   7.617   8.718  0.5506  0.6908 -0.7553
   36POPC  H11S 4839   1.134   7.601   8.686 -1.4757  0.4228 -2.0072
   36POPC  C212 4840   1.257   7.705   8.532  0.5947  0.1277  0.6713
   36POPC  H12R 4841   1.358   7.698   8.486  0.5686 -2.2155  0.8430
   36POPC  H12S 4842   1.246   7.801   8.587 -1.1960 -1.0367  2.4740
   36POPC  C213 4843   1.170   7.707   8.403  0.2495  0.0790 -0.0886
   36POPC  H13R 4844   1.060   7.719   8.419  0.1843 -0.9967  0.3617
   36POPC  H13S 4845   1.178   7.606   8.357  1.0995 -1.3638  2.9912
   36POPC  C214 4846   1.196   7.814   8.301  0.6001 -0.1594  0.3633
   36POPC  H14R 4847   1.304   7.812   8.273  0.8436  2.7947  0.7818
   36POPC  H14S 4848   1.177   7.905   8.362  0.3713  0.7221 -0.9706
   36POPC  C215 4849   1.106   7.815   8.180  0.9663  0.0902  0.1446
   36POPC  H15R 4850   1.002   7.807   8.217  0.7911  0.1051 -0.3380
   36POPC  H15S 4851   1.123   7.726   8.116 -0.6747  0.5129 -0.9367
   36POPC  C216 4852   1.122   7.941   8.096  0.4911  0.1742 -0.2684
   36POPC  H16R 4853   1.108   8.026   8.166  0.6297  0.7965 -0.9870
   36POPC  H16S 4854   1.047   7.947   8.015  0.0455 -0.8742  0.0456
   36POPC  C217 4855   1.258   7.946   8.028  0.0900 -0.2663 -0.1195
   36POPC  H17R 4856   1.263   7.863   7.954 -0.7550 -0.5728  0.1562
   36POPC  H17S 4857   1.348   7.939   8.093  0.6617  0.6093 -0.7943
   36POPC  C218 4858   1.284   8.079   7.954  0.0683 -0.2064 -0.2879
   36POPC  H18R 4859   1.207   8.100   7.877 -1.0195 -1.3325  0.4658
   36POPC  H18S 4860   1.379   8.069   7.897  1.1064  5.3673 -0.1102
   36POPC  H18T 4861   1.300   8.164   8.024  2.6776 -1.0275  0.2267
   36POPC   C33 4862   1.511   6.954   8.951 -0.0373  0.6761  0.0297
   36POPC   H3X 4863   1.618   6.986   8.949 -0.1783  1.5436  2.5656
   36POPC   H3Y 4864   1.454   7.042   8.989  1.1765  1.2850  0.5130
   36POPC   C34 4865   1.493   6.908   8.808  0.1049 -0.2135  0.0064
   36POPC   H4X 4866   1.418   6.825   8.813  1.7241 -2.2548 -4.0757
   36POPC   H4Y 4867   1.582   6.859   8.764 -0.3983 -1.0592 -0.0918
   36POPC   C35 4868   1.432   7.014   8.718  0.0799 -0.0550 -0.7427
   36POPC   H5X 4869   1.500   7.101   8.715  0.1975 -0.0997  0.1464
   36POPC   H5Y 4870   1.338   7.054   8.761  0.3997  0.8228 -0.8507
   36POPC   C36 4871   1.402   6.955   8.579  0.0281  1.0687 -0.2245
   36POPC   H6X 4872   1.340   6.863   8.587 -0.1679  1.0486 -1.7248
   36POPC   H6Y 4873   1.499   6.926   8.535 -0.3841 -1.9351  0.5857
   36POPC   C37 4874   1.346   7.057   8.476  0.0681 -0.0446 -0.1535
   36POPC   H7X 4875   1.423   7.137   8.476  0.8146 -0.7078  1.2277
   36POPC   H7Y 4876   1.244   7.089   8.506  0.2396  3.2036 -2.5504
   36POPC   C38 4877   1.334   6.998   8.334 -0.3942 -0.7909 -0.2321
   36POPC   H8X 4878   1.257   6.918   8.331 -2.7214  1.3306 -3.2331
   36POPC   H8Y 4879   1.436   6.961   8.312 -0.1544 -0.2917  0.0142
   36POPC   C39 4880   1.288   7.100   8.224  0.1543  0.5980 -0.2562
   36POPC   H9X 4881   1.328   7.201   8.247 -1.5476  1.1757  0.2935
   36POPC   H9Y 4882   1.178   7.106   8.234 -0.1015 -0.4164 -1.9762
   36POPC  C310 4883   1.318   7.063   8.084  0.4496  0.3591  0.2907
   36POPC  H10X 4884   1.334   6.953   8.075 -2.3700 -0.2500  1.6147
   36POPC  H10Y 4885   1.411   7.116   8.053  2.8063 -1.7209  3.2219
   36POPC  C311 4886   1.206   7.109   7.981 -0.5507 -0.0107  0.0978
   36POPC  H11X 4887   1.252   7.139   7.885  0.6631 -1.0388  0.3339
   36POPC  H11Y 4888   1.161   7.203   8.021 -0.8568 -0.9093  1.9551
   36POPC  C312 4889   1.097   7.003   7.957  0.1995 -0.0668 -0.2665
   36POPC  H12X 4890   1.004   7.053   7.923  0.8386  1.6456  0.3981
   36POPC  H12Y 4891   1.077   6.967   8.060 -1.9237  2.0078  0.1180
   36POPC  C313 4892   1.135   6.882   7.872 -0.2764  0.3288 -0.5071
   36POPC  H13X 4893   1.208   6.813   7.919 -0.7313 -1.4264 -2.2536
   36POPC  H13Y 4894   1.175   6.919   7.775  0.3145  1.1792  0.0558
   36POPC  C314 4895   1.013   6.782   7.850 -0.3183 -0.9371 -0.3837
   36POPC  H14X 4896   0.926   6.843   7.819  0.0722  0.1336  0.5706
   36POPC  H14Y 4897   0.991   6.735   7.948 -2.3585 -0.6913 -0.6828
   36POPC  C315 4898   1.056   6.681   7.736  0.3036 -0.3991 -0.6795
   36POPC  H15X 4899   1.141   6.630   7.785  1.1562  2.0185  0.5435
   36POPC  H15Y 4900   1.111   6.726   7.651  0.9716 -1.1211 -0.6307
   36POPC  C316 4901   0.944   6.584   7.698  0.5506 -0.0173 -0.6512
   36POPC  H16X 4902   0.850   6.635   7.669 -0.4298 -2.3390 -1.8405
   36POPC  H16Y 4903   0.930   6.509   7.779 -2.1266  0.5084 -0.5360
   36POPC  H16Z 4904   0.985   6.534   7.607  1.2846 -1.6107  0.5088
   37POPC     N 4905   2.934   3.014   5.560  0.2488  0.4435 -0.2274
   37POPC   C12 4906   3.008   2.974   5.691 -0.0349 -0.6386 -0.3066
   37POPC  H12A 4907   3.008   3.060   5.757  2.0013  0.2938 -1.4052
   37POPC  H12B 4908   3.114   2.972   5.670 -0.0122  0.5937 -0.3733
   37POPC   C13 4909   2.781   3.002   5.576 -0.0219 -0.1157 -0.1512
   37POPC  H13A 4910   2.755   3.076   5.650 -1.1140 -0.0051 -0.6355
   37POPC  H13B 4911   2.737   3.039   5.485  1.6142  3.3131  0.2874
   37POPC  H13C 4912   2.754   2.899   5.598 -0.6904 -0.2050 -1.3398
   37POPC   C14 4913   2.965   3.156   5.522  0.3926  0.0855  0.3266
   37POPC  H14A 4914   2.903   3.185   5.439 -1.2391 -0.5991  1.2454
   37POPC  H14B 4915   2.944   3.222   5.605 -1.0295  0.7094 -0.4877
   37POPC  H14C 4916   3.063   3.164   5.478  0.4721 -0.2623  0.4378
   37POPC   C15 4917   2.987   2.927   5.449  0.4343  0.6155 -0.0321
   37POPC  H15A 4918   2.993   2.826   5.489 -2.0652  0.7974  0.9209
   37POPC  H15B 4919   3.085   2.952   5.410  1.5188 -2.0621  0.7183
   37POPC  H15C 4920   2.916   2.936   5.368 -0.8365  0.2961  1.0314
   37POPC   C11 4921   2.967   2.835   5.750 -0.1075 -0.4399 -0.1119
   37POPC  H11A 4922   3.024   2.806   5.841 -0.7238 -3.1706 -0.5088
   37POPC  H11B 4923   2.995   2.763   5.670  2.2864  1.5825 -1.2191
   37POPC     P 4924   2.758   2.814   5.912  0.1407  0.1024 -0.1202
   37POPC   O13 4925   2.616   2.826   5.886 -0.3039 -0.0794  0.0630
   37POPC   O14 4926   2.805   2.919   6.004  0.1717  0.2219  0.2150
   37POPC   O12 4927   2.832   2.817   5.775 -0.7455  0.0574  0.1078
   37POPC   O11 4928   2.798   2.671   5.976  0.2684 -0.4164  0.1858
   37POPC    C1 4929   2.925   2.635   6.024  0.0173 -0.3944  0.7986
   37POPC    HA 4930   3.000   2.717   6.011 -1.4128  1.0131  1.1785
   37POPC    HB 4931   2.964   2.551   5.963 -0.3625  1.5489 -2.3736
   37POPC    C2 4932   2.935   2.597   6.170  0.5218 -0.0304  0.1758
   37POPC    HS 4933   3.041   2.569   6.184  1.1450  1.1287 -1.9238
   37POPC   O21 4934   2.841   2.494   6.201 -0.6959 -0.3531  0.0402
   37POPC   C21 4935   2.886   2.370   6.177  0.5997  0.0009 -0.4912
   37POPC   O22 4936   2.996   2.338   6.145  0.8010 -0.2522 -0.1722
   37POPC   C22 4937   2.774   2.279   6.219  0.2575  0.1165  0.6409
   37POPC   H2R 4938   2.685   2.300   6.155  0.0861  1.2155  1.2116
   37POPC   H2S 4939   2.742   2.293   6.325 -2.0488  0.0392  0.0208
   37POPC    C3 4940   2.908   2.707   6.271  0.0754  0.5637  0.2219
   37POPC    HX 4941   2.798   2.721   6.262 -0.0966  0.2693  1.6532
   37POPC    HY 4942   2.956   2.802   6.242 -2.6204  1.6314 -1.1448
   37POPC   O31 4943   2.938   2.665   6.405 -0.7070  0.0904  0.2989
   37POPC   C31 4944   2.908   2.756   6.497 -0.6303 -0.7072 -0.1558
   37POPC   O32 4945   2.852   2.864   6.472  0.0584  0.0113 -0.6464
   37POPC   C32 4946   2.938   2.693   6.632  0.0805 -0.4986  0.2652
   37POPC   H2X 4947   3.048   2.686   6.634  0.1793  1.0025  2.1579
   37POPC   H2Y 4948   2.889   2.593   6.636 -2.0896  0.4969  0.3198
   37POPC   C23 4949   2.805   2.130   6.195  0.2624 -0.3821 -0.0075
   37POPC   H3R 4950   2.904   2.109   6.240  1.0670  1.3379 -0.8790
   37POPC   H3S 4951   2.817   2.107   6.087  1.1170 -0.3445  0.0745
   37POPC   C24 4952   2.691   2.042   6.255  0.4372  0.1186  0.0013
   37POPC   H4R 4953   2.712   1.934   6.239 -1.4564 -0.6394  2.0846
   37POPC   H4S 4954   2.596   2.065   6.203  0.6925 -0.0435 -0.5438
   37POPC   C25 4955   2.668   2.060   6.404 -0.4133  0.0017 -0.8653
   37POPC   H5R 4956   2.632   2.165   6.418  1.4041  0.4438  1.0506
   37POPC   H5S 4957   2.772   2.055   6.444 -0.6940  2.4865  0.3850
   37POPC   C26 4958   2.588   1.944   6.469 -0.5698 -0.0862  0.1239
   37POPC   H6R 4959   2.600   1.843   6.424 -3.1463 -0.6126  0.4562
   37POPC   H6S 4960   2.480   1.966   6.453 -0.1319  1.1297 -1.3772
   37POPC   C27 4961   2.605   1.947   6.627  0.0143  0.5321  0.6588
   37POPC   H7R 4962   2.714   1.943   6.646 -0.0347  1.5381  1.1849
   37POPC   H7S 4963   2.569   1.850   6.668  0.7692  0.0427  0.2016
   37POPC   C28 4964   2.536   2.065   6.700 -0.9891 -0.1923 -0.0715
   37POPC   H8R 4965   2.560   2.160   6.649 -0.1105 -0.0332  0.6173
   37POPC   H8S 4966   2.583   2.069   6.800 -0.7243  2.0401 -0.2469
   37POPC   C29 4967   2.386   2.043   6.697  0.3261 -0.0694  0.1130
   37POPC   H91 4968   2.340   2.018   6.600  1.6494 -4.8720  0.4330
   37POPC  C210 4969   2.314   2.025   6.810 -0.0444  0.3818  0.1688
   37POPC  H101 4970   2.206   2.015   6.789 -0.4029  4.2211 -0.4028
   37POPC  C211 4971   2.361   2.061   6.948  0.1095  0.2378 -0.2271
   37POPC  H11R 4972   2.282   2.111   7.008 -0.9397 -1.0838 -0.4701
   37POPC  H11S 4973   2.459   2.115   6.951  0.4794 -0.3207 -1.5378
   37POPC  C212 4974   2.398   1.929   7.017  0.3439  0.0515 -0.6462
   37POPC  H12R 4975   2.479   1.884   6.955  0.1622 -0.9544 -0.1657
   37POPC  H12S 4976   2.310   1.862   7.011  0.9843 -0.7234 -1.8804
   37POPC  C213 4977   2.434   1.940   7.164 -0.1389 -0.5350  0.2480
   37POPC  H13R 4978   2.365   2.006   7.221 -0.1053 -0.2376 -0.0534
   37POPC  H13S 4979   2.537   1.978   7.185 -0.1300  1.2636 -2.5435
   37POPC  C214 4980   2.416   1.806   7.233 -0.3139 -0.3824  0.0301
   37POPC  H14R 4981   2.475   1.726   7.182  1.7090 -0.1473  1.8759
   37POPC  H14S 4982   2.307   1.788   7.223 -0.2667 -0.4932 -0.3119
   37POPC  C215 4983   2.452   1.813   7.380  0.6740  0.3247 -0.4380
   37POPC  H15R 4984   2.369   1.874   7.422  0.2586 -0.7755  0.3855
   37POPC  H15S 4985   2.546   1.869   7.398  1.4211 -1.0426  0.0662
   37POPC  C216 4986   2.449   1.685   7.466  0.4583  0.3147  0.3086
   37POPC  H16R 4987   2.347   1.642   7.461  0.4394  0.3214  0.6245
   37POPC  H16S 4988   2.475   1.726   7.567 -1.3841  0.4414  0.7694
   37POPC  C217 4989   2.553   1.586   7.429  0.8797 -0.2613  0.0266
   37POPC  H17R 4990   2.653   1.633   7.429  0.4669  0.9435 -3.5196
   37POPC  H17S 4991   2.532   1.552   7.325  1.1884 -0.9309  0.1772
   37POPC  C218 4992   2.566   1.458   7.503  0.3944 -0.0332 -0.3669
   37POPC  H18R 4993   2.637   1.390   7.451 -0.2804  0.2570 -1.7170
   37POPC  H18S 4994   2.471   1.401   7.511  0.2757  0.3517  1.4707
   37POPC  H18T 4995   2.600   1.469   7.609 -0.3645 -0.0409 -0.1181
   37POPC   C33 4996   2.918   2.782   6.756 -0.1822 -0.8717 -0.6624
   37POPC   H3X 4997   2.982   2.873   6.753  0.4825 -1.1997  1.5813
   37POPC   H3Y 4998   2.952   2.736   6.852  0.7402  0.3933 -0.3593
   37POPC   C34 4999   2.774   2.818   6.782 -0.2333 -0.0371 -0.1115
   37POPC   H4X 5000   2.725   2.719   6.796 -0.7493  0.3613  1.0148
   37POPC   H4Y 5001   2.736   2.876   6.695 -0.9598  1.1134  0.9427
   37POPC   C35 5002   2.741   2.903   6.906 -0.6369  0.3155 -0.4301
   37POPC   H5X 5003   2.636   2.940   6.907 -0.5147  0.7295 -1.3520
   37POPC   H5Y 5004   2.802   2.995   6.914  1.2190 -0.8033 -1.0520
   37POPC   C36 5005   2.768   2.837   7.043 -0.4413 -0.4190  0.1673
   37POPC   H6X 5006   2.874   2.809   7.058 -0.2451 -0.8534 -1.7272
   37POPC   H6Y 5007   2.709   2.744   7.060 -1.7067  0.3181 -0.0878
   37POPC   C37 5008   2.738   2.946   7.153  0.2487  0.6742 -0.6369
   37POPC   H7X 5009   2.628   2.949   7.169  0.2367 -1.6552  0.0501
   37POPC   H7Y 5010   2.770   3.048   7.121  0.3488  1.5012  1.9206
   37POPC   C38 5011   2.817   2.915   7.277  0.2491  0.3298  0.2614
   37POPC   H8X 5012   2.859   2.812   7.277  0.1492  0.1607 -3.3034
   37POPC   H8Y 5013   2.750   2.911   7.365 -1.7637 -0.0952 -1.1894
   37POPC   C39 5014   2.935   3.014   7.300 -1.1556 -0.7707  0.0987
   37POPC   H9X 5015   2.966   3.001   7.406  0.5519  0.0802 -0.2524
   37POPC   H9Y 5016   2.887   3.114   7.292 -1.4745 -1.0826 -3.1042
   37POPC  C310 5017   3.054   2.981   7.213  0.5178  0.6226 -0.3986
   37POPC  H10X 5018   3.031   2.970   7.105 -0.3513  0.6104 -0.2224
   37POPC  H10Y 5019   3.088   2.880   7.244 -0.3300  0.2161 -0.7346
   37POPC  C311 5020   3.165   3.080   7.222 -0.2484  0.7173 -0.1351
   37POPC  H11X 5021   3.129   3.176   7.178  0.4481  1.1655  0.2534
   37POPC  H11Y 5022   3.245   3.048   7.151  0.3036  0.9329  0.3810
   37POPC  C312 5023   3.224   3.092   7.360  0.2270  0.4012  0.0758
   37POPC  H12X 5024   3.261   2.995   7.400 -1.9521 -0.5243 -0.0050
   37POPC  H12Y 5025   3.140   3.110   7.430  0.3756 -4.2473  1.7979
   37POPC  C313 5026   3.322   3.208   7.370  0.1607 -0.1390 -0.5857
   37POPC  H13X 5027   3.277   3.290   7.310  1.7607  0.1253 -1.4784
   37POPC  H13Y 5028   3.417   3.180   7.320 -0.3572 -2.9048 -0.1794
   37POPC  C314 5029   3.352   3.261   7.513  0.8643  0.0891  0.0927
   37POPC  H14X 5030   3.264   3.298   7.570  1.1889 -0.7303  1.1643
   37POPC  H14Y 5031   3.413   3.352   7.491 -1.9754  2.1003  0.0002
   37POPC  C315 5032   3.419   3.161   7.613 -0.2925 -0.1460 -0.4255
   37POPC  H15X 5033   3.353   3.072   7.621  0.0074 -0.2468  1.6188
   37POPC  H15Y 5034   3.429   3.205   7.715 -0.3393  1.3476 -1.0439
   37POPC  C316 5035   3.555   3.097   7.567 -0.0681  0.7857  0.4769
   37POPC  H16X 5036   3.534   3.008   7.504 -2.1459  0.5714  1.4228
   37POPC  H16Y 5037   3.605   3.057   7.658 -0.9264 -1.9235 -0.1724
   37POPC  H16Z 5038   3.611   3.179   7.517  0.1908  1.4736  1.8637
   38POPC     N 5039   3.972   5.893   5.386  0.3943 -0.3618 -0.4480
   38POPC   C12 5040   4.012   5.967   5.512 -0.4883 -0.2294 -0.0400
   38POPC  H12A 5041   4.042   6.068   5.488 -0.9160  0.8254  3.3161
   38POPC  H12B 5042   4.103   5.925   5.553 -1.5064 -1.9819  0.4722
   38POPC   C13 5043   3.845   5.931   5.331  0.1924 -0.2510  0.0292
   38POPC  H13A 5044   3.829   6.037   5.319  1.3478 -0.0398  0.3143
   38POPC  H13B 5045   3.828   5.902   5.228  1.1409  1.8356 -0.7759
   38POPC  H13C 5046   3.762   5.895   5.390  0.5933 -0.8031  0.2702
   38POPC   C14 5047   4.070   5.924   5.279 -0.1464 -0.1955  0.0778
   38POPC  H14A 5048   4.172   5.903   5.307 -0.5777 -3.5825 -0.4729
   38POPC  H14B 5049   4.055   5.858   5.195 -0.7821 -0.3615  0.3096
   38POPC  H14C 5050   4.065   6.026   5.244 -2.5788 -0.6424 -1.1590
   38POPC   C15 5051   3.979   5.747   5.413  0.1942  0.6924  0.0384
   38POPC  H15A 5052   3.913   5.707   5.488  0.0649 -0.0065 -0.4310
   38POPC  H15B 5053   4.080   5.714   5.435  0.4976  0.4436 -1.5715
   38POPC  H15C 5054   3.957   5.692   5.322  1.0621 -0.5226  0.5334
   38POPC   C11 5055   3.915   5.975   5.631 -0.5396 -0.0381 -0.1880
   38POPC  H11A 5056   3.812   6.002   5.599 -0.7294 -0.7038 -0.1583
   38POPC  H11B 5057   3.956   6.049   5.702  1.7018 -1.4256  0.0515
   38POPC     P 5058   4.032   5.800   5.789  0.3431  0.6484  0.5313
   38POPC   O13 5059   4.137   5.905   5.798  0.1391 -0.3015 -0.2190
   38POPC   O14 5060   4.073   5.668   5.731  0.0739 -0.4220  0.2644
   38POPC   O12 5061   3.907   5.846   5.696 -0.0848 -0.8340 -0.3349
   38POPC   O11 5062   3.970   5.775   5.938  0.2404  0.6939  0.5648
   38POPC    C1 5063   3.831   5.766   5.955  0.6457  0.2589 -0.0161
   38POPC    HA 5064   3.809   5.704   6.045  1.2868 -0.2613 -0.2097
   38POPC    HB 5065   3.781   5.718   5.868 -0.4762  0.5661  0.4335
   38POPC    C2 5066   3.761   5.908   5.971 -0.9923 -0.6713  0.2538
   38POPC    HS 5067   3.802   5.975   5.892 -0.7446 -0.2814  0.7018
   38POPC   O21 5068   3.783   5.960   6.103  0.0814  0.5450 -0.0552
   38POPC   C21 5069   3.851   6.068   6.118  0.7222  0.4039 -0.2442
   38POPC   O22 5070   3.905   6.137   6.028  0.6354 -0.1234  0.1504
   38POPC   C22 5071   3.858   6.106   6.273 -1.0164  0.9752 -0.9931
   38POPC   H2R 5072   3.790   6.043   6.335  0.0684  1.6922  1.0125
   38POPC   H2S 5073   3.828   6.213   6.277 -0.2455  1.1484  0.7869
   38POPC    C3 5074   3.615   5.895   5.949  0.5267  0.2712  0.6293
   38POPC    HX 5075   3.573   5.814   6.012  0.8686  1.1907  2.1024
   38POPC    HY 5076   3.596   5.858   5.846 -0.1517 -2.6274  1.6994
   38POPC   O31 5077   3.558   6.026   5.970 -0.2470  0.0439  0.2444
   38POPC   C31 5078   3.424   6.027   5.975  0.6785 -0.3216 -0.1016
   38POPC   O32 5079   3.356   5.932   5.947  0.6180  0.7514 -0.0925
   38POPC   C32 5080   3.376   6.159   6.012 -0.2431  0.6717 -0.3702
   38POPC   H2X 5081   3.286   6.145   6.076 -0.7356  1.6150 -0.8454
   38POPC   H2Y 5082   3.351   6.208   5.916  1.7203  0.8263 -0.8613
   38POPC   C23 5083   4.001   6.082   6.327  0.3323 -0.1169  0.6404
   38POPC   H3R 5084   4.004   6.109   6.435 -1.2531  0.2267  0.6204
   38POPC   H3S 5085   4.065   6.150   6.266 -2.2052  1.2059 -0.7432
   38POPC   C24 5086   4.047   5.936   6.320 -0.0815 -0.1453 -0.2904
   38POPC   H4R 5087   4.025   5.897   6.218  0.1271  2.2676 -1.3336
   38POPC   H4S 5088   3.987   5.872   6.389  0.7393  0.4159  0.9872
   38POPC   C25 5089   4.191   5.908   6.348 -0.5695  0.0714 -0.1107
   38POPC   H5R 5090   4.251   5.942   6.261 -0.3424 -1.7579 -0.7249
   38POPC   H5S 5091   4.221   5.802   6.357  0.5853  0.5312  2.0328
   38POPC   C26 5092   4.236   5.980   6.470  0.2850  0.1627  0.1956
   38POPC   H6R 5093   4.199   6.083   6.489 -1.2608 -0.2569 -0.3981
   38POPC   H6S 5094   4.346   5.986   6.452 -0.1738 -0.4713 -3.6732
   38POPC   C27 5095   4.215   5.911   6.603  0.2580 -0.0822  0.3400
   38POPC   H7R 5096   4.105   5.904   6.617  0.3367  0.6789  1.4740
   38POPC   H7S 5097   4.256   5.980   6.679  2.0560  0.4666 -1.0486
   38POPC   C28 5098   4.277   5.768   6.616 -0.0032 -0.5677 -0.0742
   38POPC   H8R 5099   4.230   5.705   6.538  0.2546 -0.6778 -0.1378
   38POPC   H8S 5100   4.247   5.722   6.713 -3.0121  1.0229 -0.1123
   38POPC   C29 5101   4.425   5.776   6.608  0.1761 -0.2886 -0.3814
   38POPC   H91 5102   4.472   5.758   6.510  0.6458  1.3137 -0.4823
   38POPC  C210 5103   4.506   5.797   6.713 -0.6929 -0.4224 -0.0493
   38POPC  H101 5104   4.608   5.817   6.680 -1.0360  0.6009 -0.5261
   38POPC  C211 5105   4.469   5.823   6.860  0.0469 -1.0357 -0.1510
   38POPC  H11R 5106   4.495   5.737   6.925 -1.2299 -0.4624  1.1987
   38POPC  H11S 5107   4.359   5.843   6.864  0.1966 -0.3116  0.6616
   38POPC  C212 5108   4.542   5.945   6.921 -0.2990  0.0375 -0.2408
   38POPC  H12R 5109   4.539   6.025   6.844  1.6310 -1.7688 -2.3574
   38POPC  H12S 5110   4.649   5.917   6.928 -0.1034  0.5282 -1.0655
   38POPC  C213 5111   4.496   5.999   7.057  0.1455  0.0150 -0.6212
   38POPC  H13R 5112   4.386   6.013   7.065  0.1303  0.1332 -1.0210
   38POPC  H13S 5113   4.529   6.104   7.069 -0.6329  0.0818  1.1804
   38POPC  C214 5114   4.553   5.919   7.174 -0.5738 -0.1507  0.3809
   38POPC  H14R 5115   4.662   5.919   7.155 -0.4783  0.0464  0.9186
   38POPC  H14S 5116   4.525   5.812   7.164 -0.8577 -0.0961  0.5714
   38POPC  C215 5117   4.525   5.970   7.316 -0.6787 -0.3909  0.6081
   38POPC  H15R 5118   4.419   5.949   7.340 -0.9981 -2.0275 -1.8506
   38POPC  H15S 5119   4.541   6.080   7.315  1.3746 -0.6594  0.4698
   38POPC  C216 5120   4.598   5.902   7.437  0.2986 -0.2721 -0.5491
   38POPC  H16R 5121   4.579   5.793   7.433  1.2225 -0.4590  0.1060
   38POPC  H16S 5122   4.551   5.932   7.533 -0.1671 -0.7031 -0.6380
   38POPC  C217 5123   4.753   5.915   7.435  0.8063 -0.5860  0.4953
   38POPC  H17R 5124   4.795   5.838   7.367  0.8883 -2.0274  2.1261
   38POPC  H17S 5125   4.786   5.877   7.534 -0.4892 -1.9151  0.4485
   38POPC  C218 5126   4.803   6.059   7.407 -0.0594  0.1762  0.2179
   38POPC  H18R 5127   4.779   6.092   7.304 -2.9791  1.9733  1.3458
   38POPC  H18S 5128   4.912   6.052   7.426 -0.1409 -1.2751  0.2930
   38POPC  H18T 5129   4.752   6.133   7.473 -0.8515 -0.6408  0.5543
   38POPC   C33 5130   3.474   6.258   6.088  0.0656  0.6595 -0.5371
   38POPC   H3X 5131   3.413   6.346   6.117 -0.4722 -1.0094  4.3318
   38POPC   H3Y 5132   3.558   6.293   6.026  0.9564  0.1450  0.3508
   38POPC   C34 5133   3.503   6.206   6.229  0.0173 -0.6418  0.1894
   38POPC   H4X 5134   3.572   6.119   6.219 -0.8651 -1.2731 -0.6156
   38POPC   H4Y 5135   3.410   6.169   6.276  0.7212 -0.9031  1.4104
   38POPC   C35 5136   3.560   6.307   6.324 -0.2300 -0.0785 -0.5369
   38POPC   H5X 5137   3.476   6.377   6.347 -2.3074 -2.3413 -0.8391
   38POPC   H5Y 5138   3.639   6.374   6.282 -0.1900  1.3076  1.6073
   38POPC   C36 5139   3.599   6.253   6.466  0.0410  0.1228 -0.1437
   38POPC   H6X 5140   3.628   6.335   6.536 -0.8253 -0.9958  1.6174
   38POPC   H6Y 5141   3.674   6.171   6.472 -0.8732 -0.6721  0.8776
   38POPC   C37 5142   3.484   6.185   6.544 -0.0023 -0.8466  0.3794
   38POPC   H7X 5143   3.439   6.118   6.468  0.7132 -0.7499 -0.1312
   38POPC   H7Y 5144   3.398   6.252   6.570  0.5249 -0.7969  2.1441
   38POPC   C38 5145   3.535   6.118   6.671 -0.0770  0.0598 -0.2794
   38POPC   H8X 5146   3.627   6.063   6.640 -1.6240 -1.5785 -2.2368
   38POPC   H8Y 5147   3.467   6.038   6.706  3.1225 -2.9907 -0.4374
   38POPC   C39 5148   3.556   6.215   6.794 -0.3114  0.7768 -0.2194
   38POPC   H9X 5149   3.455   6.251   6.820  0.1240  1.2195  0.9118
   38POPC   H9Y 5150   3.613   6.307   6.766 -0.6738  0.6223 -1.5356
   38POPC  C310 5151   3.624   6.137   6.909 -0.1855 -1.0030  0.0698
   38POPC  H10X 5152   3.734   6.133   6.895 -0.5318 -0.8521 -3.5753
   38POPC  H10Y 5153   3.599   6.029   6.921  1.7092 -1.2090  3.5261
   38POPC  C311 5154   3.586   6.197   7.051  0.3284  0.1771  1.1278
   38POPC  H11X 5155   3.475   6.206   7.057  0.1234 -0.3403 -0.8725
   38POPC  H11Y 5156   3.630   6.299   7.051 -0.8024  0.6872  1.8097
   38POPC  C312 5157   3.640   6.100   7.153  0.5668 -0.1243 -0.3223
   38POPC  H12X 5158   3.740   6.053   7.143  0.4311 -0.5975  0.4639
   38POPC  H12Y 5159   3.569   6.015   7.151  2.2035 -1.5399 -1.3238
   38POPC  C313 5160   3.632   6.173   7.287 -0.1967 -0.8051  0.6223
   38POPC  H13X 5161   3.543   6.238   7.281  0.7302  0.5061  0.6409
   38POPC  H13Y 5162   3.712   6.248   7.305 -0.4709 -0.8212  2.0008
   38POPC  C314 5163   3.619   6.085   7.413 -0.1406  0.5366 -0.1714
   38POPC  H14X 5164   3.523   6.028   7.403 -1.1009  1.4848  2.6011
   38POPC  H14Y 5165   3.611   6.148   7.504 -1.1254  0.1254  0.0414
   38POPC  C315 5166   3.738   5.989   7.414 -0.2742 -0.2820 -0.2882
   38POPC  H15X 5167   3.826   6.057   7.423 -0.9844  0.6106  0.1036
   38POPC  H15Y 5168   3.748   5.932   7.320  1.8645  2.0555 -1.6105
   38POPC  C316 5169   3.727   5.903   7.539  0.9304  0.6012  0.1269
   38POPC  H16X 5170   3.752   5.959   7.632  2.9367  0.2523 -0.1650
   38POPC  H16Y 5171   3.798   5.818   7.538 -0.4824 -0.6221 -0.3181
   38POPC  H16Z 5172   3.622   5.874   7.562  1.3383  1.4977  3.7559
   39POPC     N 5173   1.465   2.754   5.772 -0.1989  0.3266  0.2076
   39POPC   C12 5174   1.491   2.787   5.921  0.4281 -0.5936 -0.4094
   39POPC  H12A 5175   1.392   2.813   5.956  0.2360 -2.7407  0.8528
   39POPC  H12B 5176   1.566   2.864   5.924 -1.0517  1.0059 -1.9362
   39POPC   C13 5177   1.388   2.868   5.710 -0.4788  0.3602  0.0110
   39POPC  H13A 5178   1.442   2.962   5.714  0.6705 -0.1104 -2.3191
   39POPC  H13B 5179   1.378   2.846   5.605  1.6280 -0.5271 -0.0569
   39POPC  H13C 5180   1.293   2.890   5.754 -0.3956 -0.2429  0.5021
   39POPC   C14 5181   1.595   2.738   5.696 -0.0452 -0.9158  0.0899
   39POPC  H14A 5182   1.648   2.654   5.738 -1.0384 -1.9551 -0.6829
   39POPC  H14B 5183   1.580   2.727   5.590  3.0623  0.5016 -0.6176
   39POPC  H14C 5184   1.656   2.827   5.699  0.1434 -1.0630  0.8016
   39POPC   C15 5185   1.393   2.622   5.756 -0.2187  0.0569  0.2079
   39POPC  H15A 5186   1.441   2.536   5.800 -1.7848 -0.9300  0.0785
   39POPC  H15B 5187   1.379   2.605   5.650 -0.7725  2.5613 -0.1902
   39POPC  H15C 5188   1.301   2.638   5.812  0.7094  2.6571  1.1281
   39POPC   C11 5189   1.541   2.679   6.021 -0.9526 -0.8740 -1.1495
   39POPC  H11A 5190   1.474   2.591   6.025 -1.8979 -0.1658 -1.0786
   39POPC  H11B 5191   1.534   2.716   6.125 -1.5813 -0.6930 -1.2481
   39POPC     P 5192   1.796   2.732   6.020  0.0517 -0.0073 -0.2401
   39POPC   O13 5193   1.744   2.875   6.024  0.8645  0.0111 -0.0811
   39POPC   O14 5194   1.908   2.713   5.921  0.1085 -0.7419 -0.1636
   39POPC   O12 5195   1.683   2.630   5.996  0.3311  0.1456 -0.4867
   39POPC   O11 5196   1.857   2.689   6.157  0.0611 -0.0270 -0.2262
   39POPC    C1 5197   1.890   2.556   6.188 -0.2526 -0.2326  0.7113
   39POPC    HA 5198   1.984   2.579   6.242 -0.1382  0.9907  0.0420
   39POPC    HB 5199   1.916   2.495   6.099 -0.1520 -3.0343  2.5644
   39POPC    C2 5200   1.783   2.471   6.256  0.3852  0.3201 -0.2229
   39POPC    HS 5201   1.704   2.470   6.177 -0.0018  1.1535  0.1456
   39POPC   O21 5202   1.732   2.526   6.374  0.1156 -0.4638  0.1825
   39POPC   C21 5203   1.622   2.468   6.421 -0.7170  0.4042 -0.1583
   39POPC   O22 5204   1.570   2.375   6.359  0.1025  0.5170  0.2606
   39POPC   C22 5205   1.570   2.541   6.542  0.5746  0.6379  0.3236
   39POPC   H2R 5206   1.467   2.498   6.552  0.4845  0.3406 -1.4895
   39POPC   H2S 5207   1.560   2.649   6.520 -2.3103  0.7223  1.6422
   39POPC    C3 5208   1.830   2.319   6.264  0.0911  0.3590 -0.4099
   39POPC    HX 5209   1.866   2.285   6.164 -0.5707  0.9387 -0.8631
   39POPC    HY 5210   1.740   2.255   6.281 -1.1972  1.5418 -2.3388
   39POPC   O31 5211   1.923   2.297   6.372 -0.2117 -0.4136  0.0188
   39POPC   C31 5212   2.049   2.304   6.350 -0.1439  0.5483 -0.3341
   39POPC   O32 5213   2.100   2.347   6.251 -0.0690 -0.0936  0.2979
   39POPC   C32 5214   2.132   2.240   6.458  0.4323 -0.2440 -0.4357
   39POPC   H2X 5215   2.071   2.161   6.505 -2.8731  1.7618 -1.0255
   39POPC   H2Y 5216   2.229   2.209   6.415 -0.8814 -3.4263 -1.3368
   39POPC   C23 5217   1.648   2.518   6.676  0.5068  0.3237 -0.1903
   39POPC   H3R 5218   1.738   2.583   6.669 -0.3636  1.6118  0.2536
   39POPC   H3S 5219   1.686   2.415   6.692  0.2270  0.1620 -0.5585
   39POPC   C24 5220   1.559   2.578   6.781 -0.2072 -0.1128  0.2231
   39POPC   H4R 5221   1.459   2.531   6.781 -0.1786 -0.2630  2.2500
   39POPC   H4S 5222   1.551   2.686   6.753  2.2497 -0.6258 -3.0228
   39POPC   C25 5223   1.610   2.560   6.921 -0.7341  0.6359  0.5532
   39POPC   H5R 5224   1.713   2.602   6.917  0.3975 -2.0067 -1.3644
   39POPC   H5S 5225   1.614   2.450   6.935 -1.1116  0.0625 -2.8420
   39POPC   C26 5226   1.532   2.634   7.037 -0.5791  0.6589  0.1664
   39POPC   H6R 5227   1.427   2.599   7.029 -0.7634  0.9509  1.2344
   39POPC   H6S 5228   1.542   2.743   7.024 -1.5834  0.9311  1.5112
   39POPC   C27 5229   1.572   2.591   7.178  0.6890 -0.0346  0.2551
   39POPC   H7R 5230   1.672   2.627   7.213  1.0309 -0.1390 -0.5988
   39POPC   H7S 5231   1.578   2.483   7.200  1.6513 -0.1912 -0.6818
   39POPC   C28 5232   1.475   2.653   7.286 -0.1000  0.5014 -0.2149
   39POPC   H8R 5233   1.502   2.609   7.384  0.6329 -1.5369 -1.2785
   39POPC   H8S 5234   1.369   2.633   7.258 -0.6931  0.3671  1.9612
   39POPC   C29 5235   1.507   2.803   7.302  0.7725  0.1242 -0.1669
   39POPC   H91 5236   1.447   2.871   7.239 -0.0076 -0.2552  0.1528
   39POPC  C210 5237   1.574   2.862   7.400  0.2754  0.1660  0.2110
   39POPC  H101 5238   1.580   2.972   7.408 -2.4439  0.2970  1.8734
   39POPC  C211 5239   1.648   2.793   7.516  0.6321  0.0456 -0.5061
   39POPC  H11R 5240   1.684   2.693   7.482  0.4642  0.8638 -3.2824
   39POPC  H11S 5241   1.570   2.774   7.592  0.4051 -0.4554 -0.8604
   39POPC  C212 5242   1.767   2.872   7.567  0.0527  0.2914 -0.1610
   39POPC  H12R 5243   1.842   2.891   7.488  1.2128  2.7473  1.3900
   39POPC  H12S 5244   1.819   2.811   7.644  0.8476 -0.7742 -1.5108
   39POPC  C213 5245   1.731   2.998   7.642 -0.0354 -0.2995 -0.4950
   39POPC  H13R 5246   1.662   2.960   7.720 -0.0977 -1.1217 -0.9384
   39POPC  H13S 5247   1.677   3.077   7.584  1.8715  2.1857  0.9084
   39POPC  C214 5248   1.839   3.071   7.723  0.3247 -1.1363  0.0748
   39POPC  H14R 5249   1.904   3.121   7.649  2.3444 -0.1325  2.3837
   39POPC  H14S 5250   1.907   3.000   7.776  0.6139 -0.4783  0.5946
   39POPC  C215 5251   1.791   3.186   7.813  0.4044 -0.0708  0.1150
   39POPC  H15R 5252   1.720   3.257   7.766 -0.5769 -2.0276 -1.5034
   39POPC  H15S 5253   1.880   3.248   7.833 -0.5444  1.1136  0.7811
   39POPC  C216 5254   1.729   3.139   7.950 -0.1524 -0.1584  0.4348
   39POPC  H16R 5255   1.644   3.068   7.938  1.4285 -2.2551  1.0434
   39POPC  H16S 5256   1.696   3.234   7.999  2.4438  0.7705  0.5356
   39POPC  C217 5257   1.837   3.084   8.041  0.1005  0.1288 -0.0587
   39POPC  H17R 5258   1.930   3.142   8.029  0.1466  0.4705  1.6768
   39POPC  H17S 5259   1.861   2.985   7.996  0.2697 -0.7231  1.8297
   39POPC  C218 5260   1.796   3.073   8.182  0.2188  0.2330 -0.3034
   39POPC  H18R 5261   1.877   3.023   8.239 -1.3485 -3.4045 -0.9574
   39POPC  H18S 5262   1.708   3.005   8.191 -1.0613  1.2489 -3.6668
   39POPC  H18T 5263   1.779   3.174   8.225 -0.6246 -0.2140  0.4396
   39POPC   C33 5264   2.161   2.353   6.561 -0.1815  0.1467  0.1392
   39POPC   H3X 5265   2.241   2.421   6.526 -1.6597  1.1022 -1.5445
   39POPC   H3Y 5266   2.218   2.295   6.637  1.2594  1.2806 -0.0442
   39POPC   C34 5267   2.037   2.436   6.615 -0.6115  0.1820  0.1974
   39POPC   H4X 5268   1.949   2.374   6.641 -0.9862  0.4496 -0.4376
   39POPC   H4Y 5269   1.985   2.486   6.531  0.1587  0.3740 -0.1741
   39POPC   C35 5270   2.077   2.541   6.716  0.3282  0.5445 -0.4047
   39POPC   H5X 5271   2.145   2.496   6.792  0.4729 -0.4811 -1.1158
   39POPC   H5Y 5272   1.985   2.575   6.769  0.2368 -1.6683  0.9922
   39POPC   C36 5273   2.139   2.672   6.662 -0.3622 -1.0856  0.2505
   39POPC   H6X 5274   2.062   2.735   6.613  1.2521  1.6349  0.9778
   39POPC   H6Y 5275   2.219   2.651   6.587 -0.1967 -0.8562  0.3617
   39POPC   C37 5276   2.195   2.771   6.766 -0.2281  0.8536  0.3921
   39POPC   H7X 5277   2.281   2.717   6.811 -0.0925  0.9236  0.2190
   39POPC   H7Y 5278   2.114   2.781   6.841 -1.8876 -0.3065 -1.1464
   39POPC   C38 5279   2.269   2.897   6.708  0.3307  0.2390  0.3205
   39POPC   H8X 5280   2.187   2.957   6.662 -0.8717 -1.0643  0.6933
   39POPC   H8Y 5281   2.339   2.853   6.635  0.9581 -0.7925  1.5030
   39POPC   C39 5282   2.343   2.962   6.831  0.1873 -0.0125 -0.5623
   39POPC   H9X 5283   2.438   2.909   6.855  0.9981  0.5609 -2.3220
   39POPC   H9Y 5284   2.277   2.951   6.919  2.2031  2.2389  1.3678
   39POPC  C310 5285   2.366   3.108   6.808 -0.0697 -0.1004 -0.4014
   39POPC  H10X 5286   2.282   3.158   6.755 -0.9488 -0.5654  0.5324
   39POPC  H10Y 5287   2.463   3.123   6.756 -0.7099  1.4008 -1.2393
   39POPC  C311 5288   2.393   3.182   6.947 -0.5377 -0.2387  0.5724
   39POPC  H11X 5289   2.456   3.116   7.011  0.5267 -0.0452 -0.2537
   39POPC  H11Y 5290   2.302   3.211   7.004 -2.1867 -0.7143 -1.6778
   39POPC  C312 5291   2.467   3.317   6.947 -0.1262  0.4013  0.1663
   39POPC  H12X 5292   2.421   3.393   6.880  1.7234  2.0764  0.7195
   39POPC  H12Y 5293   2.569   3.299   6.908  0.4178 -2.4459  2.5089
   39POPC  C313 5294   2.473   3.386   7.084  0.4156  0.0137  0.2227
   39POPC  H13X 5295   2.371   3.422   7.109  0.9716  1.3528  0.6266
   39POPC  H13Y 5296   2.533   3.478   7.067  2.8536 -1.8354 -2.0233
   39POPC  C314 5297   2.536   3.308   7.201 -0.0886 -0.2200  0.2557
   39POPC  H14X 5298   2.626   3.251   7.169 -0.3490  0.2249 -1.3843
   39POPC  H14Y 5299   2.471   3.230   7.247  0.6309 -0.7739  0.3670
   39POPC  C315 5300   2.584   3.398   7.314 -0.3057 -0.3350  0.4583
   39POPC  H15X 5301   2.664   3.464   7.272  0.6376 -2.0315 -0.5017
   39POPC  H15Y 5302   2.624   3.334   7.396  0.5256  1.6892  1.7197
   39POPC  C316 5303   2.474   3.494   7.358  0.0738  0.7175 -0.0221
   39POPC  H16X 5304   2.380   3.453   7.402  1.5741 -1.0552  1.6605
   39POPC  H16Y 5305   2.449   3.573   7.284  1.0537 -0.2733 -1.4644
   39POPC  H16Z 5306   2.512   3.557   7.441  0.0195  1.4180 -0.5266
   40POPC     N 5307   6.283   0.234   5.468  1.3956 -0.1563 -0.2263
   40POPC   C12 5308   6.381   0.315   5.548 -0.1095  0.5220 -0.5347
   40POPC  H12A 5309   6.472   0.260   5.564  0.0432  0.4423 -1.6143
   40POPC  H12B 5310   6.341   0.337   5.646 -1.4821  1.7846 -1.3287
   40POPC   C13 5311   6.334   0.184   5.335 -0.5950 -0.0473  0.4926
   40POPC  H13A 5312   6.436   0.149   5.343  0.2978  1.9067 -1.4794
   40POPC  H13B 5313   6.274   0.104   5.295 -0.5357 -0.3891  1.0622
   40POPC  H13C 5314   6.342   0.261   5.261  3.0253 -2.0676 -1.4872
   40POPC   C14 5315   6.237   0.117   5.550  0.6768  0.1186 -0.0008
   40POPC  H14A 5316   6.155   0.077   5.493  2.8873 -2.6101 -1.5340
   40POPC  H14B 5317   6.316   0.044   5.565 -1.6224 -2.3864  0.6021
   40POPC  H14C 5318   6.205   0.148   5.648  0.0845 -0.4166 -0.0192
   40POPC   C15 5319   6.151   0.309   5.432 -0.2855  0.1091 -0.0163
   40POPC  H15A 5320   6.096   0.350   5.516  0.6726  1.2759  0.0779
   40POPC  H15B 5321   6.086   0.258   5.363 -0.8878 -0.1284  0.7154
   40POPC  H15C 5322   6.183   0.396   5.377  1.9093 -1.9672 -2.2846
   40POPC   C11 5323   6.424   0.465   5.507  0.5860  0.8422 -0.3854
   40POPC  H11A 5324   6.458   0.451   5.402  2.1418  0.3015  0.1674
   40POPC  H11B 5325   6.509   0.490   5.574 -1.0318 -0.2316  2.2595
   40POPC     P 5326   6.248   0.622   5.629 -0.0763 -0.0238  0.0976
   40POPC   O13 5327   6.105   0.605   5.611  0.1969 -0.2171  0.2672
   40POPC   O14 5328   6.301   0.764   5.629  0.0549 -0.2925  0.0801
   40POPC   O12 5329   6.314   0.555   5.502  0.1913 -0.2551 -0.3874
   40POPC   O11 5330   6.306   0.536   5.747  0.4549  1.1118 -0.2207
   40POPC    C1 5331   6.227   0.447   5.824 -0.7525  0.0162 -0.4203
   40POPC    HA 5332   6.291   0.381   5.887  0.4678  0.5952 -1.0124
   40POPC    HB 5333   6.164   0.378   5.764 -0.4869 -2.8147  2.3423
   40POPC    C2 5334   6.130   0.528   5.922  0.3568 -0.2396 -0.0102
   40POPC    HS 5335   6.043   0.564   5.862 -1.2744  0.8058  2.7983
   40POPC   O21 5336   6.199   0.637   5.989 -0.3133  0.3168  0.1639
   40POPC   C21 5337   6.117   0.718   6.052 -0.1199 -0.7312 -0.4261
   40POPC   O22 5338   5.996   0.720   6.040 -0.5851 -0.4271 -0.1840
   40POPC   C22 5339   6.202   0.801   6.156 -0.4250  0.1019  0.6018
   40POPC   H2R 5340   6.303   0.818   6.114 -1.7357  1.3902 -2.3278
   40POPC   H2S 5341   6.213   0.740   6.248 -1.0166 -1.4976 -0.3368
   40POPC    C3 5342   6.067   0.426   6.034 -0.4890 -0.6996 -0.4887
   40POPC    HX 5343   6.001   0.353   5.984  0.3138 -1.6385 -0.2139
   40POPC    HY 5344   6.009   0.488   6.105  1.9766 -0.0420  1.0782
   40POPC   O31 5345   6.180   0.356   6.096  0.3643 -0.0929 -0.4283
   40POPC   C31 5346   6.206   0.389   6.223 -0.1048 -0.2404 -0.1452
   40POPC   O32 5347   6.141   0.469   6.289 -0.4509 -0.6960  0.2828
   40POPC   C32 5348   6.339   0.318   6.277  0.3134  0.3645 -0.0344
   40POPC   H2X 5349   6.403   0.401   6.314 -0.0983  0.2015  1.0945
   40POPC   H2Y 5350   6.385   0.275   6.186 -1.1599  0.1479 -0.7097
   40POPC   C23 5351   6.131   0.934   6.186  0.5443 -0.2274  0.0794
   40POPC   H3R 5352   6.031   0.919   6.232 -0.9223 -2.2137 -3.3436
   40POPC   H3S 5353   6.110   0.975   6.085  1.6952 -1.7108 -0.8056
   40POPC   C24 5354   6.218   1.032   6.269  0.3211 -0.0649 -0.2050
   40POPC   H4R 5355   6.157   1.124   6.271 -2.7107 -1.8981 -1.3537
   40POPC   H4S 5356   6.312   1.053   6.213  0.6672  2.2685  1.1574
   40POPC   C25 5357   6.240   0.981   6.417  0.8511  0.3759  0.0856
   40POPC   H5R 5358   6.291   0.883   6.406 -0.5412 -0.2159 -1.7553
   40POPC   H5S 5359   6.142   0.949   6.461  0.4391  1.2196 -0.2027
   40POPC   C26 5360   6.293   1.101   6.495 -0.1758  0.1931 -0.8957
   40POPC   H6R 5361   6.217   1.180   6.475  0.1592  0.5532 -0.7531
   40POPC   H6S 5362   6.390   1.126   6.447  1.0902 -1.7807  0.4876
   40POPC   C27 5363   6.303   1.062   6.643  0.5564 -0.3835  0.0669
   40POPC   H7R 5364   6.373   0.977   6.655  0.4851 -0.3865  0.4581
   40POPC   H7S 5365   6.202   1.032   6.678  0.8238 -1.3106  0.0700
   40POPC   C28 5366   6.344   1.182   6.734  0.2770 -0.1595 -0.5087
   40POPC   H8R 5367   6.306   1.156   6.835  1.4050  1.9797  0.5530
   40POPC   H8S 5368   6.281   1.270   6.707  0.8783  0.4556  0.0728
   40POPC   C29 5369   6.485   1.211   6.737 -0.9939  0.4391 -0.1669
   40POPC   H91 5370   6.526   1.264   6.649 -0.5383  0.3037 -0.0437
   40POPC  C210 5371   6.576   1.195   6.830 -0.3140  0.0464  0.1515
   40POPC  H101 5372   6.682   1.215   6.809 -0.6629 -0.0783 -1.9022
   40POPC  C211 5373   6.554   1.120   6.960  0.3107 -0.0691  0.2043
   40POPC  H11R 5374   6.628   1.037   6.949 -0.8018 -0.8364 -2.1034
   40POPC  H11S 5375   6.452   1.078   6.961  0.4505 -0.3977  1.2410
   40POPC  C212 5376   6.587   1.213   7.084 -0.4012 -0.6441 -0.2510
   40POPC  H12R 5377   6.518   1.300   7.081 -1.0775 -1.1742 -0.3496
   40POPC  H12S 5378   6.691   1.251   7.076 -0.5978 -0.0880 -0.1911
   40POPC  C213 5379   6.551   1.134   7.210 -0.5252  0.1285 -0.2383
   40POPC  H13R 5380   6.611   1.042   7.223 -0.1922  0.5417  1.5031
   40POPC  H13S 5381   6.450   1.087   7.210  0.3920 -2.0050  1.4280
   40POPC  C214 5382   6.571   1.221   7.332  0.2263 -0.0685 -0.6689
   40POPC  H14R 5383   6.505   1.310   7.331 -0.9055 -0.7563  2.0128
   40POPC  H14S 5384   6.676   1.253   7.348  0.9070 -3.3025  3.0005
   40POPC  C215 5385   6.516   1.153   7.457  0.1290  0.2279 -0.4056
   40POPC  H15R 5386   6.406   1.144   7.441 -0.0937  0.1649  1.0331
   40POPC  H15S 5387   6.518   1.209   7.552 -1.6405  0.2915 -0.3706
   40POPC  C216 5388   6.588   1.019   7.489  0.5635  0.5566 -0.4402
   40POPC  H16R 5389   6.697   1.024   7.471  0.6645  0.0637  0.0064
   40POPC  H16S 5390   6.554   0.939   7.420 -0.6397  0.1997  0.5250
   40POPC  C217 5391   6.534   0.980   7.632 -0.2980  0.4470  0.3880
   40POPC  H17R 5392   6.426   0.983   7.607  0.2030  1.4525 -2.0193
   40POPC  H17S 5393   6.553   1.057   7.710 -3.1473  1.2181  0.4346
   40POPC  C218 5394   6.583   0.837   7.664 -0.0047  0.0754 -0.9715
   40POPC  H18R 5395   6.694   0.844   7.671  0.0232 -0.8690 -0.2997
   40POPC  H18S 5396   6.553   0.760   7.589  0.0706  0.3877 -1.3246
   40POPC  H18T 5397   6.541   0.809   7.763 -1.3365 -1.9671 -2.0442
   40POPC   C33 5398   6.303   0.208   6.375 -1.2656  0.7405  0.3427
   40POPC   H3X 5399   6.396   0.149   6.387 -2.2943 -0.7793  1.1103
   40POPC   H3Y 5400   6.229   0.136   6.334 -0.1422 -0.8041  0.9416
   40POPC   C34 5401   6.284   0.260   6.521 -0.5175 -0.9561 -0.2107
   40POPC   H4X 5402   6.195   0.325   6.528 -0.0009 -0.3306  0.8399
   40POPC   H4Y 5403   6.372   0.316   6.560 -0.0023 -2.0743  0.2977
   40POPC   C35 5404   6.270   0.152   6.628  0.5897 -0.4450 -0.0681
   40POPC   H5X 5405   6.346   0.075   6.601  1.2360 -0.5906  1.9921
   40POPC   H5Y 5406   6.168   0.108   6.623 -0.7328  2.5517 -1.2071
   40POPC   C36 5407   6.296   0.218   6.760 -0.2289  0.2421 -0.1812
   40POPC   H6X 5408   6.238   0.312   6.773 -1.4295 -0.7468  2.7135
   40POPC   H6Y 5409   6.405   0.227   6.775  0.0998 -1.1821 -1.4407
   40POPC   C37 5410   6.240   0.114   6.863 -0.3205  0.5838  0.3810
   40POPC   H7X 5411   6.264   0.009   6.838  0.9475  0.9005  0.1896
   40POPC   H7Y 5412   6.129   0.121   6.862 -0.5425 -0.2343 -4.4247
   40POPC   C38 5413   6.283   0.137   7.006  0.5050 -0.1655 -0.1031
   40POPC   H8X 5414   6.394   0.145   7.008  0.4177  1.5588 -0.2417
   40POPC   H8Y 5415   6.248   0.058   7.075  1.6574  0.1436  0.8570
   40POPC   C39 5416   6.243   0.269   7.070 -0.4115  0.6734  0.1427
   40POPC   H9X 5417   6.134   0.253   7.088 -0.0833 -0.2944  1.4018
   40POPC   H9Y 5418   6.255   0.362   7.011 -0.9223  0.6256 -0.0394
   40POPC  C310 5419   6.302   0.306   7.206  0.1242  0.9650 -0.1705
   40POPC  H10X 5420   6.242   0.384   7.258  1.0340  0.8399  1.1111
   40POPC  H10Y 5421   6.404   0.333   7.173 -0.2228  0.6971 -1.5198
   40POPC  C311 5422   6.307   0.184   7.303  0.0229  0.1446 -0.0517
   40POPC  H11X 5423   6.360   0.099   7.255 -1.6316 -2.4234  2.3492
   40POPC  H11Y 5424   6.202   0.152   7.322 -0.0322 -0.0244 -0.6254
   40POPC  C312 5425   6.384   0.216   7.432  0.6547 -0.2425  0.6570
   40POPC  H12X 5426   6.334   0.296   7.491 -0.3698  0.3266 -0.8964
   40POPC  H12Y 5427   6.478   0.261   7.394  0.1292  0.6593  0.3822
   40POPC  C313 5428   6.410   0.086   7.516  0.2008  0.3976  0.1608
   40POPC  H13X 5429   6.452  -0.000   7.461  1.2787  0.8022  0.3186
   40POPC  H13Y 5430   6.313   0.055   7.560 -0.3721  3.0170  0.9657
   40POPC  C314 5431   6.505   0.118   7.638  0.7745 -1.0319  0.9454
   40POPC  H14X 5432   6.442   0.169   7.715 -1.7967 -2.5487 -0.0234
   40POPC  H14Y 5433   6.586   0.184   7.599 -0.1434  0.0017  0.7166
   40POPC  C315 5434   6.561  -0.009   7.691  0.4287 -0.5824  1.1492
   40POPC  H15X 5435   6.603  -0.080   7.617 -0.7086 -0.1203  0.0268
   40POPC  H15Y 5436   6.481  -0.074   7.733 -0.3525  1.2951  2.7583
   40POPC  C316 5437   6.665   0.000   7.794 -0.0154 -0.1182 -0.6232
   40POPC  H16X 5438   6.689  -0.103   7.828 -1.3688  0.0125  0.8014
   40POPC  H16Y 5439   6.626   0.046   7.888  0.8586 -1.7627  0.5959
   40POPC  H16Z 5440   6.763   0.044   7.764  1.1981 -0.9480  1.8105
   41CHL1    C3 5441   4.160   3.859   9.564  0.3119  0.4416 -0.4539
   41CHL1    H3 5442   4.267   3.862   9.535  0.8085 -0.4553  1.1518
   41CHL1    O3 5443   4.151   3.785   9.688 -0.0302  0.1983 -0.4439
   41CHL1   H3' 5444   4.187   3.698   9.668 -0.7066 -0.7053  1.8819
   41CHL1    C4 5445   4.114   4.003   9.588 -0.3730  0.0145 -0.2971
   41CHL1   H4A 5446   4.021   4.006   9.649  0.9708  0.4186  1.8594
   41CHL1   H4B 5447   4.190   4.050   9.654  1.3850  0.6748 -2.6897
   41CHL1    C5 5448   4.100   4.096   9.464  0.2496  0.1752 -0.2550
   41CHL1    C6 5449   4.162   4.216   9.450 -0.5158 -0.3460 -0.5555
   41CHL1    H6 5450   4.221   4.248   9.537  0.3106 -1.0845 -0.8258
   41CHL1    C7 5451   4.161   4.310   9.331  0.0644  0.6099 -0.2857
   41CHL1   H7A 5452   4.163   4.415   9.369 -0.9778  1.6607 -2.9278
   41CHL1   H7B 5453   4.256   4.300   9.274  1.2680  1.5268  1.4601
   41CHL1    C8 5454   4.043   4.276   9.242 -0.7759 -0.5009  0.3674
   41CHL1    H8 5455   3.944   4.306   9.281  0.2009  2.5164  0.7856
   41CHL1   C14 5456   4.064   4.341   9.104 -0.2807 -0.2969 -0.7809
   41CHL1   H14 5457   4.160   4.300   9.066 -0.1002  1.3402 -2.1743
   41CHL1   C15 5458   4.085   4.492   9.103 -0.2067 -0.1113  0.9567
   41CHL1  H15A 5459   4.009   4.538   9.169 -2.1981 -1.7888 -0.0640
   41CHL1  H15B 5460   4.189   4.524   9.124 -0.3010  1.2712 -0.4957
   41CHL1   C16 5461   4.047   4.537   8.960 -0.0314 -0.0094  0.0049
   41CHL1  H16A 5462   3.957   4.602   8.963 -0.9593 -1.2300 -0.4881
   41CHL1  H16B 5463   4.130   4.587   8.907 -0.7233  2.0920  0.7623
   41CHL1   C17 5464   4.004   4.407   8.886  0.0659  0.3098 -0.0050
   41CHL1   H17 5465   4.090   4.367   8.829 -0.5327  0.2064 -0.8490
   41CHL1   C13 5466   3.955   4.314   9.003  0.7149  0.2731 -0.2974
   41CHL1   C18 5467   3.807   4.353   9.045 -0.3275  0.1869 -0.0321
   41CHL1  H18A 5468   3.739   4.304   8.973  1.2525  1.8319 -2.8479
   41CHL1  H18B 5469   3.782   4.312   9.146 -2.0357  1.6893  0.1975
   41CHL1  H18C 5470   3.791   4.463   9.055 -1.2608  0.3350 -2.6392
   41CHL1   C12 5471   3.956   4.158   8.985 -0.0872 -0.4117  0.1136
   41CHL1  H12A 5472   3.878   4.120   8.915 -0.8934 -0.2474  0.9088
   41CHL1  H12B 5473   4.051   4.133   8.933  0.3359 -1.5680  1.3922
   41CHL1   C11 5474   3.937   4.082   9.111 -0.2256 -0.3690 -0.7449
   41CHL1  H11A 5475   3.832   4.107   9.134 -0.4392 -1.7908 -0.0272
   41CHL1  H11B 5476   3.953   3.976   9.083  1.6276 -0.5408  0.6861
   41CHL1    C9 5477   4.032   4.127   9.221 -0.6492  0.1296 -0.3723
   41CHL1    H9 5478   4.133   4.103   9.182 -0.7647 -1.5944  0.3074
   41CHL1   C10 5479   4.021   4.031   9.350 -0.1325 -0.3035  0.5268
   41CHL1   C19 5480   3.868   4.040   9.381  0.1805  0.0125  0.3195
   41CHL1  H19A 5481   3.820   4.141   9.380 -1.5048 -0.6323 -3.2562
   41CHL1  H19B 5482   3.813   3.977   9.308 -0.4090 -0.4588  1.1497
   41CHL1  H19C 5483   3.859   3.992   9.480  2.9645 -0.6309  0.3184
   41CHL1    C1 5484   4.074   3.883   9.335 -0.1504 -0.2314  0.7648
   41CHL1   H1A 5485   4.021   3.838   9.248  1.0907  2.7473 -1.7436
   41CHL1   H1B 5486   4.176   3.880   9.289 -0.8433 -3.0609 -0.8097
   41CHL1    C2 5487   4.072   3.789   9.456  0.4092  0.1009 -0.9146
   41CHL1   H2A 5488   4.107   3.686   9.437  2.0881  0.3979  0.3060
   41CHL1   H2B 5489   3.968   3.784   9.494 -0.3601 -0.8880 -3.0244
   41CHL1   C20 5490   3.897   4.432   8.774  0.0681 -0.5366 -0.1729
   41CHL1   H20 5491   3.800   4.454   8.824  0.5134  2.3358 -0.4007
   41CHL1   C21 5492   3.885   4.308   8.692  0.0593  0.4586  0.8407
   41CHL1  H21A 5493   3.828   4.225   8.739 -0.1780  0.0450 -0.1466
   41CHL1  H21B 5494   3.987   4.270   8.672  0.3503  0.9038  1.4726
   41CHL1  H21C 5495   3.842   4.333   8.593  0.9035 -2.9138 -0.5459
   41CHL1   C22 5496   3.940   4.557   8.693 -0.2833 -0.3294  0.2611
   41CHL1  H22A 5497   3.869   4.573   8.610 -0.9176 -2.5850  0.3020
   41CHL1  H22B 5498   3.928   4.651   8.752 -0.0291 -0.3733  0.3865
   41CHL1   C23 5499   4.072   4.544   8.618 -0.3107 -0.1662  0.0463
   41CHL1  H23A 5500   4.156   4.528   8.688 -0.2786 -0.2662 -0.0161
   41CHL1  H23B 5501   4.073   4.460   8.546  3.4908 -0.8755  0.7332
   41CHL1   C24 5502   4.090   4.677   8.528 -0.7366  0.9606 -0.1726
   41CHL1  H24A 5503   4.003   4.742   8.552 -0.9217  1.3274 -1.7224
   41CHL1  H24B 5504   4.184   4.723   8.565  0.0080 -0.4975 -0.2151
   41CHL1   C25 5505   4.073   4.668   8.376  0.1131 -0.3922  0.2142
   41CHL1   H25 5506   4.108   4.769   8.346  0.0206 -1.4378 -4.0617
   41CHL1   C26 5507   4.176   4.561   8.312 -0.1784 -0.1763 -0.2948
   41CHL1  H26A 5508   4.178   4.576   8.202 -3.1049  0.8023 -0.3001
   41CHL1  H26B 5509   4.279   4.566   8.355 -0.4029  0.2002  0.2101
   41CHL1  H26C 5510   4.139   4.457   8.328 -0.5201  0.0438  0.4148
   41CHL1   C27 5511   3.926   4.641   8.335 -0.0731 -0.1893 -0.0708
   41CHL1  H27A 5512   3.918   4.636   8.224  0.6404 -1.3636 -0.0869
   41CHL1  H27B 5513   3.909   4.539   8.376  1.3900  0.0164  1.1621
   41CHL1  H27C 5514   3.863   4.708   8.397  0.9092 -0.6123  1.4542
   42CHL1    C3 5515   2.985   3.959   9.310  0.2139  0.5974 -0.2101
   42CHL1    H3 5516   2.900   4.029   9.304 -0.1873  0.1692  0.3773
   42CHL1    O3 5517   2.998   3.909   9.437  0.5449  0.8427  0.2222
   42CHL1   H3' 5518   3.085   3.868   9.430 -0.9783 -2.5730 -1.2038
   42CHL1    C4 5519   2.966   3.840   9.213 -0.7635  0.5710 -0.4364
   42CHL1   H4A 5520   3.048   3.767   9.229 -0.5174  1.0899  0.7918
   42CHL1   H4B 5521   2.873   3.790   9.247 -0.5297 -0.1719 -0.8807
   42CHL1    C5 5522   2.962   3.882   9.067 -0.2532  0.3146 -0.1435
   42CHL1    C6 5523   2.857   3.854   8.988 -0.0831  0.4231  0.6545
   42CHL1    H6 5524   2.777   3.795   9.034  0.3971 -0.5972  0.1980
   42CHL1    C7 5525   2.843   3.885   8.845  0.0342  0.2537 -0.1844
   42CHL1   H7A 5526   2.843   3.787   8.792 -0.1029 -0.5954  1.3351
   42CHL1   H7B 5527   2.739   3.920   8.828 -0.8124 -1.6286  0.8236
   42CHL1    C8 5528   2.962   3.959   8.791  0.0773 -0.6545  0.0660
   42CHL1    H8 5529   3.039   3.888   8.753  1.5369 -0.0988  1.8525
   42CHL1   C14 5530   2.911   4.039   8.670 -0.6775 -0.1183 -0.2176
   42CHL1   H14 5531   2.840   4.110   8.716 -1.6875 -0.7442 -0.7825
   42CHL1   C15 5532   2.839   3.965   8.555  0.0224  0.2285  0.2676
   42CHL1  H15A 5533   2.892   3.871   8.527 -1.5394 -0.3902 -0.7064
   42CHL1  H15B 5534   2.732   3.942   8.570 -0.0436  0.0903 -0.3796
   42CHL1   C16 5535   2.847   4.061   8.433 -0.8644  0.1410 -0.1218
   42CHL1  H16A 5536   2.888   4.011   8.342 -0.6258 -1.3903  0.7994
   42CHL1  H16B 5537   2.757   4.113   8.391  1.3251  1.1884 -4.0159
   42CHL1   C17 5538   2.953   4.173   8.474  0.6792 -0.4908  0.1107
   42CHL1   H17 5539   2.886   4.257   8.503 -0.0646 -0.5228 -1.4195
   42CHL1   C13 5540   3.026   4.115   8.597  0.0126 -0.5121 -0.1881
   42CHL1   C18 5541   3.138   4.013   8.556  0.2013  0.0875  0.4821
   42CHL1  H18A 5542   3.092   3.915   8.531  0.9774 -0.2917  0.5092
   42CHL1  H18B 5543   3.192   4.041   8.463 -0.8624  0.3689 -0.0782
   42CHL1  H18C 5544   3.217   3.989   8.629 -0.0857 -2.6806 -0.0053
   42CHL1   C12 5545   3.078   4.220   8.699 -0.5782 -0.5636 -0.3358
   42CHL1  H12A 5546   3.162   4.279   8.655  0.7073 -0.6390  1.8860
   42CHL1  H12B 5547   2.995   4.293   8.713  0.5136  0.2819  2.1529
   42CHL1   C11 5548   3.126   4.157   8.835  0.3511 -0.0840  0.9556
   42CHL1  H11A 5549   3.215   4.093   8.820  0.0870 -0.0682 -1.0163
   42CHL1  H11B 5550   3.161   4.243   8.896  1.0692  1.6902 -1.7343
   42CHL1    C9 5551   3.016   4.065   8.892  1.0709  0.6703 -0.3357
   42CHL1    H9 5552   2.927   4.127   8.916  1.3044  0.7357  0.3990
   42CHL1   C10 5553   3.066   3.975   9.015  0.8444 -1.0312  1.0273
   42CHL1   C19 5554   3.189   3.887   8.995  0.5724  0.0568 -0.3280
   42CHL1  H19A 5555   3.179   3.824   8.904  0.2932 -1.0293  0.4210
   42CHL1  H19B 5556   3.277   3.954   8.986  0.8755  0.1728  2.4697
   42CHL1  H19C 5557   3.211   3.830   9.089 -1.6637 -1.2456 -0.5117
   42CHL1    C1 5558   3.098   4.083   9.121 -0.3079 -0.0351  0.1140
   42CHL1   H1A 5559   3.191   4.141   9.102  0.0123 -0.4640  0.3330
   42CHL1   H1B 5560   3.020   4.162   9.122 -0.4806 -0.1498 -1.5938
   42CHL1    C2 5561   3.111   4.037   9.269  0.3478  0.1720  0.0422
   42CHL1   H2A 5562   3.122   4.128   9.333  1.1367 -0.7164  1.2004
   42CHL1   H2B 5563   3.209   3.987   9.274  1.1929  1.6638 -0.9078
   42CHL1   C20 5564   3.021   4.235   8.357  0.3284  0.1201  0.5694
   42CHL1   H20 5565   3.082   4.156   8.307 -0.5801  0.2404 -0.7886
   42CHL1   C21 5566   3.128   4.335   8.399  0.3619  0.7441  0.6391
   42CHL1  H21A 5567   3.174   4.388   8.313  0.3290  0.7862  0.6468
   42CHL1  H21B 5568   3.203   4.299   8.473  1.9027  0.7676 -0.8630
   42CHL1  H21C 5569   3.067   4.418   8.443  0.5421  2.2474 -1.7944
   42CHL1   C22 5570   2.923   4.286   8.242 -0.2059  0.1968 -0.2137
   42CHL1  H22A 5571   2.863   4.198   8.210  2.5873 -1.5597 -0.9928
   42CHL1  H22B 5572   2.848   4.355   8.286  0.8704  0.8307  0.6686
   42CHL1   C23 5573   2.989   4.338   8.116 -0.1840 -0.2075  0.1127
   42CHL1  H23A 5574   3.043   4.434   8.130  0.5796 -0.3410 -1.5545
   42CHL1  H23B 5575   3.067   4.267   8.081  0.0126 -0.0859  0.3074
   42CHL1   C24 5576   2.877   4.366   8.019  0.2290  0.8817 -0.4344
   42CHL1  H24A 5577   2.828   4.273   7.983  1.7165  0.2383 -0.8431
   42CHL1  H24B 5578   2.805   4.425   8.080  0.4106  1.4430 -0.7547
   42CHL1   C25 5579   2.919   4.441   7.887  0.4270  0.3950 -0.1392
   42CHL1   H25 5580   2.965   4.538   7.915 -0.7528  0.4865  1.6143
   42CHL1   C26 5581   3.021   4.353   7.814  0.0697  0.5326  0.1965
   42CHL1  H26A 5582   2.983   4.252   7.789  1.6689  0.3882 -1.8859
   42CHL1  H26B 5583   3.066   4.398   7.723  1.6880 -1.4226 -0.0362
   42CHL1  H26C 5584   3.106   4.331   7.883 -0.3198 -0.5118  0.3632
   42CHL1   C27 5585   2.787   4.473   7.800 -0.3636 -0.5235  0.1014
   42CHL1  H27A 5586   2.817   4.548   7.723  0.8285  0.1973  1.2124
   42CHL1  H27B 5587   2.754   4.373   7.765  3.6632 -1.9584 -0.1492
   42CHL1  H27C 5588   2.702   4.506   7.863 -1.8225 -0.6945 -1.6835
   43CHL1    C3 5589   4.758   4.032   9.557  0.0806 -0.0906 -0.0731
   43CHL1    H3 5590   4.852   4.074   9.516  0.8693 -2.0510 -0.4072
   43CHL1    O3 5591   4.787   4.006   9.697 -0.0672 -0.4601 -0.6798
   43CHL1   H3' 5592   4.814   4.094   9.726  0.4510 -0.9464  0.3679
   43CHL1    C4 5593   4.643   4.126   9.545  0.0199  0.5814 -0.0373
   43CHL1   H4A 5594   4.548   4.097   9.594  0.5103  0.8347  1.0785
   43CHL1   H4B 5595   4.675   4.213   9.606  2.1968  0.5337 -1.0277
   43CHL1    C5 5596   4.609   4.158   9.401 -0.6919  0.0322 -0.2141
   43CHL1    C6 5597   4.604   4.283   9.358 -0.2910  0.0402  0.1571
   43CHL1    H6 5598   4.614   4.365   9.432  1.1371  0.3511 -0.3577
   43CHL1    C7 5599   4.577   4.321   9.214  0.2871  0.1955  0.3234
   43CHL1   H7A 5600   4.507   4.406   9.226 -1.6261 -1.2912  0.1437
   43CHL1   H7B 5601   4.668   4.342   9.155  1.0216  0.8407  1.6361
   43CHL1    C8 5602   4.516   4.211   9.125 -0.1998  0.6098 -0.6415
   43CHL1    H8 5603   4.412   4.194   9.159  0.0185 -2.9732 -1.3813
   43CHL1   C14 5604   4.516   4.247   8.972  0.0172 -1.0632 -0.6832
   43CHL1   H14 5605   4.624   4.267   8.957 -0.5277  2.5562 -0.8216
   43CHL1   C15 5606   4.439   4.369   8.918 -0.2955  0.2486 -0.0913
   43CHL1  H15A 5607   4.337   4.375   8.959 -0.4333 -1.5024 -0.0878
   43CHL1  H15B 5608   4.494   4.461   8.945  0.0497 -0.0715  0.3067
   43CHL1   C16 5609   4.444   4.352   8.763  0.1828 -0.3990  0.5160
   43CHL1  H16A 5610   4.345   4.379   8.721 -0.5141 -0.5224  2.0218
   43CHL1  H16B 5611   4.519   4.416   8.712  1.5383 -0.3665  2.4322
   43CHL1   C17 5612   4.488   4.203   8.741  0.3208  0.1191  0.3430
   43CHL1   H17 5613   4.596   4.210   8.717  0.1645 -1.3186 -0.9162
   43CHL1   C13 5614   4.480   4.136   8.881  0.8618  0.2697 -0.3261
   43CHL1   C18 5615   4.331   4.085   8.901 -0.5025 -0.2623 -0.7364
   43CHL1  H18A 5616   4.304   4.001   8.833  0.8940 -0.3067 -1.2729
   43CHL1  H18B 5617   4.312   4.058   9.007 -0.5536  1.5047 -0.2690
   43CHL1  H18C 5618   4.264   4.172   8.885  0.4999  1.0180  1.5373
   43CHL1   C12 5619   4.569   4.019   8.906 -0.1456 -2.0015  0.8335
   43CHL1  H12A 5620   4.549   3.933   8.839 -1.5863  0.1209 -1.6414
   43CHL1  H12B 5621   4.671   4.057   8.882 -0.8923  1.2718  2.3081
   43CHL1   C11 5622   4.569   3.968   9.052 -0.5690 -0.1795  0.0719
   43CHL1  H11A 5623   4.467   3.927   9.068 -0.4576 -0.8758 -0.9184
   43CHL1  H11B 5624   4.648   3.890   9.057 -1.7577 -1.3571  1.1504
   43CHL1    C9 5625   4.597   4.082   9.151 -0.2495 -0.2659  0.5676
   43CHL1    H9 5626   4.700   4.119   9.132 -1.1650  2.2210  0.0881
   43CHL1   C10 5627   4.596   4.046   9.299  0.0520  0.8243 -0.2061
   43CHL1   C19 5628   4.459   3.984   9.336 -0.0811 -0.0230  0.1430
   43CHL1  H19A 5629   4.434   3.896   9.272 -2.7606 -0.4958  1.6953
   43CHL1  H19B 5630   4.460   3.937   9.436 -1.5265  0.9914  0.6771
   43CHL1  H19C 5631   4.377   4.058   9.322 -0.3233 -0.4457 -0.7412
   43CHL1    C1 5632   4.706   3.934   9.323  0.5137 -0.2892 -0.6070
   43CHL1   H1A 5633   4.669   3.843   9.272  0.3806  0.1838 -1.3717
   43CHL1   H1B 5634   4.805   3.965   9.281  0.7439  1.0851  0.8460
   43CHL1    C2 5635   4.724   3.902   9.470 -0.4730  0.1900 -0.5427
   43CHL1   H2A 5636   4.814   3.841   9.493 -0.3619  0.4152 -0.3707
   43CHL1   H2B 5637   4.634   3.849   9.507  1.1832 -1.3365  1.5045
   43CHL1   C20 5638   4.407   4.147   8.619 -0.1587 -0.7914 -0.2298
   43CHL1   H20 5639   4.300   4.131   8.647  0.2218  0.2017  2.0344
   43CHL1   C21 5640   4.460   4.006   8.580 -0.3639  0.0665  0.3060
   43CHL1  H21A 5641   4.446   3.939   8.668 -0.8457 -1.6254 -0.9872
   43CHL1  H21B 5642   4.570   4.015   8.567 -0.0107 -1.6671  1.7167
   43CHL1  H21C 5643   4.400   3.957   8.501 -1.8369  2.2387 -0.0101
   43CHL1   C22 5644   4.404   4.245   8.496  0.0423 -0.4894  0.5663
   43CHL1  H22A 5645   4.367   4.346   8.521 -0.8308 -0.3725 -1.0801
   43CHL1  H22B 5646   4.513   4.253   8.477  0.2698 -2.8920  0.4864
   43CHL1   C23 5647   4.348   4.197   8.357 -0.5315 -0.6340  0.5759
   43CHL1  H23A 5648   4.273   4.121   8.390  1.3013 -3.3377 -1.1072
   43CHL1  H23B 5649   4.293   4.283   8.312  1.2399  0.7193  0.9085
   43CHL1   C24 5650   4.443   4.125   8.254  0.8945  0.5144  0.6167
   43CHL1  H24A 5651   4.519   4.200   8.223  1.3576  0.1062  0.7651
   43CHL1  H24B 5652   4.504   4.046   8.303  1.7656  0.3933 -0.6132
   43CHL1   C25 5653   4.369   4.074   8.127 -0.3889 -0.2371  0.4548
   43CHL1   H25 5654   4.301   3.990   8.154 -1.5072 -0.3291 -2.2996
   43CHL1   C26 5655   4.277   4.175   8.061  0.4809  0.1617  0.1859
   43CHL1  H26A 5656   4.225   4.141   7.969  3.0140  0.6389 -1.5263
   43CHL1  H26B 5657   4.196   4.209   8.129 -1.2566 -2.5047 -0.4040
   43CHL1  H26C 5658   4.341   4.257   8.022  1.4996 -1.8093 -2.5606
   43CHL1   C27 5659   4.471   4.016   8.028 -0.1470  0.3813  0.1258
   43CHL1  H27A 5660   4.542   4.093   7.992  1.2315 -0.8176  0.1990
   43CHL1  H27B 5661   4.528   3.929   8.069 -1.5373  0.1351  1.6405
   43CHL1  H27C 5662   4.423   3.976   7.937 -0.7552 -0.1447  0.6702
   44CHL1    C3 5663   4.840   3.747   8.808 -0.3633  1.2497 -0.2477
   44CHL1    H3 5664   4.780   3.838   8.829  1.7102  2.2817  1.7787
   44CHL1    O3 5665   4.936   3.748   8.910 -0.1025  0.2770 -0.0115
   44CHL1   H3' 5666   4.991   3.670   8.912  4.1232  2.9407  0.5401
   44CHL1    C4 5667   4.755   3.623   8.813 -0.0642 -0.0590  0.2035
   44CHL1   H4A 5668   4.814   3.530   8.802 -0.4719 -0.2033 -0.8450
   44CHL1   H4B 5669   4.699   3.620   8.910  1.1240  0.7326  0.9464
   44CHL1    C5 5670   4.660   3.622   8.705  0.0936  0.0535  0.6087
   44CHL1    C6 5671   4.527   3.619   8.732  0.4191  0.1738 -0.4080
   44CHL1    H6 5672   4.493   3.605   8.836 -0.3465 -1.9594 -0.8752
   44CHL1    C7 5673   4.428   3.593   8.619 -0.7875 -0.0406 -0.3688
   44CHL1   H7A 5674   4.363   3.507   8.645  0.4635 -0.0618  3.3759
   44CHL1   H7B 5675   4.374   3.688   8.598 -0.0511  0.2572 -0.9450
   44CHL1    C8 5676   4.487   3.556   8.488 -0.7299  0.3628  0.0824
   44CHL1    H8 5677   4.515   3.450   8.500  2.8364  0.7042 -3.2990
   44CHL1   C14 5678   4.384   3.573   8.381 -0.2368 -0.4870 -0.3333
   44CHL1   H14 5679   4.357   3.681   8.378  2.4938  0.2866  0.1371
   44CHL1   C15 5680   4.266   3.476   8.392  0.4602  0.0358  0.0296
   44CHL1  H15A 5681   4.292   3.370   8.411  0.5779  0.1425  0.4639
   44CHL1  H15B 5682   4.194   3.522   8.464 -1.8278  2.1213 -3.2649
   44CHL1   C16 5683   4.196   3.486   8.252  0.2643 -0.3188  0.2689
   44CHL1  H16A 5684   4.174   3.386   8.209  0.9338  0.0489 -0.9895
   44CHL1  H16B 5685   4.107   3.552   8.255  0.8525  0.5174 -0.1785
   44CHL1   C17 5686   4.297   3.563   8.159 -0.0856  0.1267 -0.4024
   44CHL1   H17 5687   4.273   3.671   8.172  0.3466  0.1967 -0.1525
   44CHL1   C13 5688   4.432   3.550   8.240  0.7381  0.1385  0.0041
   44CHL1   C18 5689   4.484   3.409   8.218 -0.2197  0.4504  0.5218
   44CHL1  H18A 5690   4.550   3.373   8.300  1.8571  1.2854 -0.7286
   44CHL1  H18B 5691   4.410   3.326   8.209  0.5216 -0.3763  1.7189
   44CHL1  H18C 5692   4.538   3.408   8.121  1.5214  1.7825  1.4192
   44CHL1   C12 5693   4.538   3.654   8.205 -0.5323  0.4801  0.2783
   44CHL1  H12A 5694   4.583   3.631   8.106  2.0079 -0.4203  1.5619
   44CHL1  H12B 5695   4.507   3.761   8.202  3.0501  1.6647 -0.1708
   44CHL1   C11 5696   4.652   3.633   8.305  0.3491 -0.6791 -0.4666
   44CHL1  H11A 5697   4.703   3.535   8.294  0.8995 -0.4267 -0.1957
   44CHL1  H11B 5698   4.725   3.717   8.293  0.0953 -0.3599  0.1764
   44CHL1    C9 5699   4.602   3.644   8.458 -1.3090  0.0514  0.5387
   44CHL1    H9 5700   4.574   3.750   8.479  1.9332  0.6193  2.8027
   44CHL1   C10 5701   4.720   3.631   8.563  0.0210 -0.3191  0.3912
   44CHL1   C19 5702   4.810   3.502   8.534 -0.1540  0.0587  0.0203
   44CHL1  H19A 5703   4.881   3.485   8.618  1.5018  1.7607 -0.9548
   44CHL1  H19B 5704   4.740   3.417   8.518 -0.1673  0.3347 -1.5365
   44CHL1  H19C 5705   4.858   3.517   8.435 -0.5849 -0.6464 -0.3017
   44CHL1    C1 5706   4.816   3.750   8.556 -0.3615 -0.5200  0.0113
   44CHL1   H1A 5707   4.879   3.746   8.464 -1.1618 -1.4612 -0.5197
   44CHL1   H1B 5708   4.761   3.846   8.551 -0.6639 -0.7451 -2.0804
   44CHL1    C2 5709   4.909   3.750   8.674 -0.2419 -0.5226 -0.3713
   44CHL1   H2A 5710   4.974   3.840   8.673 -0.0323 -0.5756  2.1978
   44CHL1   H2B 5711   4.980   3.665   8.659  2.9513  1.4865  1.9118
   44CHL1   C20 5712   4.293   3.537   8.012  0.1992  0.1347  0.6553
   44CHL1   H20 5713   4.364   3.459   7.976  0.3350  0.9283 -0.9053
   44CHL1   C21 5714   4.338   3.662   7.936 -0.6391 -0.4344  0.1885
   44CHL1  H21A 5715   4.260   3.742   7.935 -1.5278 -1.2553  1.2052
   44CHL1  H21B 5716   4.355   3.628   7.831  1.0004 -0.5611  0.4822
   44CHL1  H21C 5717   4.431   3.711   7.969 -0.7337 -0.0367 -0.1223
   44CHL1   C22 5718   4.159   3.490   7.953  0.5148 -0.5287 -0.4256
   44CHL1  H22A 5719   4.126   3.391   7.990 -0.4535 -1.0240 -2.4523
   44CHL1  H22B 5720   4.082   3.567   7.975 -1.2256 -2.0940 -0.8010
   44CHL1   C23 5721   4.164   3.475   7.798  0.7560  0.1223 -0.0325
   44CHL1  H23A 5722   4.159   3.579   7.760 -1.5917 -0.0982 -0.4647
   44CHL1  H23B 5723   4.255   3.418   7.769  1.0642  0.2729  0.6340
   44CHL1   C24 5724   4.031   3.409   7.751 -0.0928 -0.5817 -0.0536
   44CHL1  H24A 5725   4.034   3.301   7.778 -0.8077 -1.1961 -2.2459
   44CHL1  H24B 5726   3.945   3.454   7.805  0.2515  2.0022 -1.4990
   44CHL1   C25 5727   4.005   3.410   7.601  0.9126  0.5191  0.1326
   44CHL1   H25 5728   4.008   3.508   7.548 -0.2829  0.0790 -0.8249
   44CHL1   C26 5729   4.118   3.332   7.530  0.3396  0.1891  1.0959
   44CHL1  H26A 5730   4.091   3.302   7.427  2.6775  0.5921  0.3049
   44CHL1  H26B 5731   4.205   3.398   7.508  0.7620 -0.9240 -0.7522
   44CHL1  H26C 5732   4.146   3.236   7.580  1.5073 -2.5290 -4.1265
   44CHL1   C27 5733   3.863   3.349   7.574  0.6821 -0.3493  0.5992
   44CHL1  H27A 5734   3.846   3.256   7.631  1.6148 -1.4442 -0.8253
   44CHL1  H27B 5735   3.784   3.419   7.608 -1.3221 -0.4889 -3.2434
   44CHL1  H27C 5736   3.856   3.347   7.463 -0.0727  1.3624  0.5827
   45CHL1    C3 5737   2.352   4.198   9.399 -0.6843 -0.5161 -0.2940
   45CHL1    H3 5738   2.377   4.305   9.389  0.3581 -0.7819 -0.7065
   45CHL1    O3 5739   2.328   4.160   9.533  0.4729  0.0605  0.2945
   45CHL1   H3' 5740   2.414   4.134   9.569  0.6585  1.0369  0.5753
   45CHL1    C4 5741   2.230   4.170   9.320  0.2990 -0.3008  0.1382
   45CHL1   H4A 5742   2.220   4.059   9.320  1.0371 -0.3781  1.1183
   45CHL1   H4B 5743   2.149   4.219   9.378 -0.6394 -1.7536  0.1120
   45CHL1    C5 5744   2.240   4.230   9.180  0.1894  0.2759  0.4511
   45CHL1    C6 5745   2.149   4.313   9.126 -0.5249  0.1213  0.1398
   45CHL1    H6 5746   2.065   4.335   9.194  1.4598  0.7027  2.5622
   45CHL1    C7 5747   2.153   4.358   8.985 -0.6286 -0.5843 -0.1210
   45CHL1   H7A 5748   2.065   4.327   8.924 -0.0203 -1.9780 -0.3241
   45CHL1   H7B 5749   2.152   4.469   8.988 -2.2042 -0.5207 -1.5086
   45CHL1    C8 5750   2.284   4.328   8.898 -0.3305 -0.7848  0.7085
   45CHL1    H8 5751   2.312   4.427   8.856  1.6794 -0.9982  1.4735
   45CHL1   C14 5752   2.267   4.255   8.767  0.3774  0.5231  0.2555
   45CHL1   H14 5753   2.238   4.150   8.789 -1.1919  0.0443 -3.2921
   45CHL1   C15 5754   2.152   4.330   8.695 -0.2626  0.1756  0.4279
   45CHL1  H15A 5755   2.050   4.285   8.698 -0.8508  1.4656  0.2479
   45CHL1  H15B 5756   2.138   4.435   8.728 -0.8096  0.5171 -0.8247
   45CHL1   C16 5757   2.195   4.343   8.550 -0.6247  0.3098 -0.3464
   45CHL1  H16A 5758   2.164   4.260   8.483 -0.1997 -1.2834  1.3210
   45CHL1  H16B 5759   2.154   4.438   8.511 -2.6400 -1.3409 -2.5716
   45CHL1   C17 5760   2.347   4.344   8.559 -0.0429 -0.0457 -0.2524
   45CHL1   H17 5761   2.371   4.447   8.595  0.1751  0.5655 -2.0425
   45CHL1   C13 5762   2.387   4.249   8.683 -0.2679  0.4921  0.8107
   45CHL1   C18 5763   2.404   4.108   8.622 -0.1367  0.4518 -0.3147
   45CHL1  H18A 5764   2.323   4.081   8.550 -1.1744 -0.7421  1.2363
   45CHL1  H18B 5765   2.504   4.096   8.574  0.6464 -0.6281  1.5025
   45CHL1  H18C 5766   2.401   4.040   8.710 -1.2645  0.4144 -0.3635
   45CHL1   C12 5767   2.515   4.281   8.761  0.0001  0.0130 -0.6717
   45CHL1  H12A 5768   2.610   4.242   8.719  0.7023 -0.7552  1.4910
   45CHL1  H12B 5769   2.525   4.391   8.773 -0.3233 -0.0824  0.6229
   45CHL1   C11 5770   2.516   4.218   8.899 -0.1277  0.1233 -0.0900
   45CHL1  H11A 5771   2.509   4.108   8.891  0.6148 -0.0720  1.4841
   45CHL1  H11B 5772   2.615   4.240   8.946  0.3975 -0.5778 -0.8402
   45CHL1    C9 5773   2.403   4.275   8.984  0.2217 -0.3939  0.1571
   45CHL1    H9 5774   2.449   4.364   9.032 -0.1190 -1.0911  1.8530
   45CHL1   C10 5775   2.372   4.181   9.096  0.2947 -0.2065  0.1755
   45CHL1   C19 5776   2.341   4.038   9.046 -0.8649 -0.2944  0.7377
   45CHL1  H19A 5777   2.247   4.034   8.986 -1.5419 -0.6734  1.7855
   45CHL1  H19B 5778   2.417   3.980   8.989 -1.7835 -0.2750 -0.5573
   45CHL1  H19C 5779   2.314   3.973   9.132 -0.9379 -0.5610  0.5153
   45CHL1    C1 5780   2.491   4.170   9.196 -0.1685 -0.2685  0.5920
   45CHL1   H1A 5781   2.574   4.121   9.141  0.1086  0.1035  0.6669
   45CHL1   H1B 5782   2.534   4.272   9.195  2.3508 -1.2027 -2.3839
   45CHL1    C2 5783   2.468   4.118   9.333 -1.3590 -0.3212  0.6354
   45CHL1   H2A 5784   2.563   4.133   9.389 -1.5455  0.0081  0.8693
   45CHL1   H2B 5785   2.429   4.014   9.327 -2.3209  0.0128  0.8279
   45CHL1   C20 5786   2.415   4.318   8.422  0.4374 -0.1048 -0.4963
   45CHL1   H20 5787   2.405   4.216   8.380  0.4615  0.1728 -1.2069
   45CHL1   C21 5788   2.565   4.347   8.444  0.1692 -0.6001  0.1701
   45CHL1  H21A 5789   2.596   4.441   8.494 -0.4340  0.4800 -1.4083
   45CHL1  H21B 5790   2.625   4.345   8.350  0.6098  0.1771  0.4254
   45CHL1  H21C 5791   2.616   4.264   8.497  1.0767  0.4184  0.9322
   45CHL1   C22 5792   2.358   4.406   8.311 -0.6838 -0.6278  0.5347
   45CHL1  H22A 5793   2.247   4.411   8.299 -0.7946 -0.2835  1.5855
   45CHL1  H22B 5794   2.386   4.506   8.350  1.3753  0.0353 -2.3511
   45CHL1   C23 5795   2.413   4.366   8.168 -0.5213 -0.5645 -0.1980
   45CHL1  H23A 5796   2.515   4.406   8.154 -0.7659 -0.0829 -0.6083
   45CHL1  H23B 5797   2.394   4.257   8.157 -0.8840 -0.5690  0.3810
   45CHL1   C24 5798   2.339   4.430   8.050  0.1324 -0.5369  0.6030
   45CHL1  H24A 5799   2.234   4.392   8.057 -1.0507  2.5900  1.4539
   45CHL1  H24B 5800   2.343   4.541   8.058  0.5321 -0.5510  0.5850
   45CHL1   C25 5801   2.397   4.388   7.919  0.3685  0.2878 -0.0190
   45CHL1   H25 5802   2.508   4.396   7.922  0.2948  1.1504  2.4446
   45CHL1   C26 5803   2.348   4.249   7.864  0.2212  0.5007  0.5699
   45CHL1  H26A 5804   2.246   4.260   7.822  0.8816  1.8620 -0.7782
   45CHL1  H26B 5805   2.419   4.222   7.784  0.9398  0.6617  1.1402
   45CHL1  H26C 5806   2.351   4.164   7.935 -1.4622  1.5621  2.0011
   45CHL1   C27 5807   2.365   4.499   7.810  0.3991  0.1569 -0.0363
   45CHL1  H27A 5808   2.255   4.516   7.803  0.2987  0.3474  1.5240
   45CHL1  H27B 5809   2.421   4.590   7.841  1.9891 -0.6534 -0.4247
   45CHL1  H27C 5810   2.408   4.466   7.713 -1.8990 -4.5867  0.2838
   46CHL1    C3 5811   4.269   1.916   9.103  0.1231  0.6792 -0.2795
   46CHL1    H3 5812   4.176   1.858   9.118 -0.0645  0.8862 -0.6326
   46CHL1    O3 5813   4.351   1.901   9.217 -0.0432 -0.4547 -0.0244
   46CHL1   H3' 5814   4.291   1.916   9.291 -0.3316  0.0241 -0.3530
   46CHL1    C4 5815   4.345   1.874   8.976  0.0668 -0.0019 -0.6543
   46CHL1   H4A 5816   4.444   1.923   8.981 -0.3726  0.8991 -0.7022
   46CHL1   H4B 5817   4.357   1.765   8.998 -1.5415 -0.0137  0.3506
   46CHL1    C5 5818   4.277   1.902   8.847  1.0126  0.2165 -0.1081
   46CHL1    C6 5819   4.250   1.808   8.760 -0.4084 -0.1029 -0.4005
   46CHL1    H6 5820   4.262   1.703   8.790 -4.0898 -0.6575 -0.4159
   46CHL1    C7 5821   4.192   1.830   8.625  0.5679 -0.6287 -0.1278
   46CHL1   H7A 5822   4.250   1.778   8.546  0.4617 -1.7946  0.5463
   46CHL1   H7B 5823   4.085   1.801   8.619 -0.2645  1.6638  1.9778
   46CHL1    C8 5824   4.196   1.983   8.585 -0.4461  0.2446  0.0967
   46CHL1    H8 5825   4.303   2.000   8.561 -0.3503 -0.8261 -0.2890
   46CHL1   C14 5826   4.112   2.005   8.463 -0.2497 -0.2882 -0.0187
   46CHL1   H14 5827   4.010   1.980   8.499 -0.3216  1.8070  1.4042
   46CHL1   C15 5828   4.121   1.915   8.340 -0.3016  0.3621 -1.0426
   46CHL1  H15A 5829   4.225   1.905   8.302  0.0772  2.0218 -0.5093
   46CHL1  H15B 5830   4.079   1.815   8.364 -0.4824  0.6125 -0.2850
   46CHL1   C16 5831   4.045   1.996   8.234  0.0246 -0.4967 -0.0159
   46CHL1  H16A 5832   4.102   2.006   8.140  1.6647 -0.9843  0.8922
   46CHL1  H16B 5833   3.949   1.945   8.208 -0.0901  0.3520 -1.3588
   46CHL1   C17 5834   4.007   2.134   8.295 -0.4172  0.2798 -0.7692
   46CHL1   H17 5835   3.905   2.131   8.340  0.1675  0.2971  0.5992
   46CHL1   C13 5836   4.102   2.150   8.414  0.2493  0.2373 -0.3177
   46CHL1   C18 5837   4.241   2.200   8.363  1.3240 -1.4191 -0.2084
   46CHL1  H18A 5838   4.295   2.210   8.459 -0.7093  3.2944  0.7688
   46CHL1  H18B 5839   4.292   2.136   8.288  1.5221 -2.0701  0.4838
   46CHL1  H18C 5840   4.239   2.300   8.314 -0.0503 -0.3501  1.8962
   46CHL1   C12 5841   4.045   2.242   8.535 -0.1914 -0.6370  0.4656
   46CHL1  H12A 5842   4.059   2.347   8.502  1.4956 -1.0341 -0.1941
   46CHL1  H12B 5843   3.939   2.216   8.555  0.3588 -3.6472 -0.0740
   46CHL1   C11 5844   4.133   2.230   8.660 -0.2017 -0.0593 -0.9812
   46CHL1  H11A 5845   4.234   2.274   8.651 -0.2030 -0.0331 -0.8803
   46CHL1  H11B 5846   4.083   2.277   8.747  0.9632 -2.5326  1.1729
   46CHL1    C9 5847   4.154   2.079   8.701 -0.2320  0.0965  0.2871
   46CHL1    H9 5848   4.052   2.049   8.734 -0.8425  1.4121 -0.3402
   46CHL1   C10 5849   4.246   2.058   8.826 -0.0437  0.6561 -1.1160
   46CHL1   C19 5850   4.379   2.132   8.815 -0.0765  0.2726  0.4340
   46CHL1  H19A 5851   4.444   2.129   8.905  1.3715 -0.1551 -0.5961
   46CHL1  H19B 5852   4.443   2.093   8.734  0.6446 -1.1020  1.6226
   46CHL1  H19C 5853   4.371   2.242   8.802 -0.3995  0.6114  2.9132
   46CHL1    C1 5854   4.171   2.104   8.956 -0.8221 -0.3157 -0.0559
   46CHL1   H1A 5855   4.172   2.215   8.950 -1.5868 -0.2573  0.8343
   46CHL1   H1B 5856   4.070   2.059   8.953  0.8674 -4.5272 -0.0714
   46CHL1    C2 5857   4.239   2.068   9.090  0.2113 -0.2217  0.9370
   46CHL1   H2A 5858   4.173   2.094   9.176 -0.0043 -2.0999  1.3672
   46CHL1   H2B 5859   4.335   2.124   9.093 -0.4143  0.8731  1.5410
   46CHL1   C20 5860   3.988   2.254   8.190  0.0975 -0.5551 -0.1164
   46CHL1   H20 5861   4.084   2.259   8.135  0.8234 -2.3252  0.8761
   46CHL1   C21 5862   3.955   2.388   8.258  0.4496  0.1627 -0.0445
   46CHL1  H21A 5863   4.033   2.424   8.328  3.5786 -2.6528 -1.7966
   46CHL1  H21B 5864   3.860   2.363   8.310 -0.3558  1.3657 -0.8919
   46CHL1  H21C 5865   3.926   2.476   8.196 -4.2754 -0.6955  0.5605
   46CHL1   C22 5866   3.876   2.216   8.088 -0.1690 -0.3078 -0.2366
   46CHL1  H22A 5867   3.795   2.147   8.122 -0.0554 -1.1641 -1.6281
   46CHL1  H22B 5868   3.821   2.310   8.068  0.0912 -0.1132 -0.0338
   46CHL1   C23 5869   3.934   2.165   7.962 -0.2990 -1.0101 -0.3831
   46CHL1  H23A 5870   3.994   2.249   7.921 -0.3952  0.0129  1.4456
   46CHL1  H23B 5871   4.012   2.088   7.979  1.1963  0.3307 -0.9991
   46CHL1   C24 5872   3.840   2.112   7.854 -0.4255  0.1957  0.4972
   46CHL1  H24A 5873   3.748   2.172   7.838 -1.2277 -1.3154 -0.7499
   46CHL1  H24B 5874   3.885   2.105   7.753 -0.4845 -2.1217  0.5802
   46CHL1   C25 5875   3.794   1.963   7.868  0.8537 -0.4185 -0.7626
   46CHL1   H25 5876   3.748   1.949   7.968 -3.1676  1.4204 -2.1299
   46CHL1   C26 5877   3.678   1.937   7.775  0.7911 -0.0356  0.3855
   46CHL1  H26A 5878   3.648   1.830   7.776  2.0650 -0.4042  1.0419
   46CHL1  H26B 5879   3.587   2.000   7.787 -0.1418 -1.3845  0.6642
   46CHL1  H26C 5880   3.707   1.956   7.669 -0.6576  0.7224  0.0992
   46CHL1   C27 5881   3.912   1.873   7.837 -0.1304 -0.2691  0.7795
   46CHL1  H27A 5882   3.977   1.909   7.754 -2.6368  2.0501 -0.3228
   46CHL1  H27B 5883   3.978   1.864   7.927  2.7834 -1.2987 -1.2973
   46CHL1  H27C 5884   3.875   1.770   7.821  0.3299 -0.2504 -0.5753
   47CHL1    C3 5885   4.228   4.878   9.642 -0.4612  0.3924 -0.2537
   47CHL1    H3 5886   4.125   4.840   9.623 -0.0881 -0.6690 -0.2126
   47CHL1    O3 5887   4.272   4.849   9.772 -0.9419  0.1470  0.4637
   47CHL1   H3' 5888   4.235   4.762   9.791 -1.1286  0.4637  1.6461
   47CHL1    C4 5889   4.319   4.807   9.539 -0.0250  0.5031 -0.6658
   47CHL1   H4A 5890   4.420   4.845   9.564  1.5270 -3.8392  0.5830
   47CHL1   H4B 5891   4.318   4.697   9.549  0.3330  0.0394 -4.3490
   47CHL1    C5 5892   4.287   4.853   9.394 -0.1715  0.1173 -0.0305
   47CHL1    C6 5893   4.246   4.758   9.311 -0.0869 -0.0541 -0.6026
   47CHL1    H6 5894   4.234   4.653   9.341  0.8164 -0.6152 -2.0762
   47CHL1    C7 5895   4.220   4.781   9.171  0.5321  0.4180  0.3883
   47CHL1   H7A 5896   4.277   4.722   9.096 -0.3640 -0.3316  0.2786
   47CHL1   H7B 5897   4.112   4.763   9.151  0.7080 -1.1761  0.6873
   47CHL1    C8 5898   4.253   4.925   9.130  0.7124  0.2455 -0.3779
   47CHL1    H8 5899   4.359   4.932   9.098  0.2027 -0.4507 -2.3412
   47CHL1   C14 5900   4.187   4.967   9.004  1.0611 -0.4335  0.5302
   47CHL1   H14 5901   4.081   4.983   9.032  0.2622  0.0545 -2.4272
   47CHL1   C15 5902   4.180   4.867   8.889  0.0325 -0.2866  0.1130
   47CHL1  H15A 5903   4.282   4.823   8.884 -0.3123 -0.9434 -1.6417
   47CHL1  H15B 5904   4.101   4.789   8.893  0.5673 -0.7787  1.8689
   47CHL1   C16 5905   4.166   4.950   8.757 -0.4338 -0.3008 -0.3014
   47CHL1  H16A 5906   4.256   4.940   8.694  0.4067 -0.6844  0.9181
   47CHL1  H16B 5907   4.074   4.917   8.704 -1.0766  2.4764 -1.0774
   47CHL1   C17 5908   4.138   5.099   8.805  0.1135  0.9417 -0.1771
   47CHL1   H17 5909   4.029   5.103   8.827 -0.0240  0.6697 -0.7794
   47CHL1   C13 5910   4.219   5.098   8.940 -0.4693  0.4212  0.0032
   47CHL1   C18 5911   4.373   5.106   8.905  0.0723  0.2981 -0.6378
   47CHL1  H18A 5912   4.403   5.204   8.862  0.3917  0.2259 -0.5810
   47CHL1  H18B 5913   4.434   5.082   8.994 -1.7435 -0.5152  0.4496
   47CHL1  H18C 5914   4.395   5.040   8.819  0.3625  0.9248 -1.0517
   47CHL1   C12 5915   4.176   5.203   9.039  0.1977 -0.0512 -0.9265
   47CHL1  H12A 5916   4.205   5.307   9.013 -0.3964  0.2404 -0.4614
   47CHL1  H12B 5917   4.065   5.205   9.029  0.2421 -0.4294 -1.5556
   47CHL1   C11 5918   4.225   5.176   9.186  0.0709  0.1479  0.6200
   47CHL1  H11A 5919   4.333   5.200   9.186  0.0914  0.4608  3.7028
   47CHL1  H11B 5920   4.180   5.245   9.261 -0.7692  0.6115 -0.2855
   47CHL1    C9 5921   4.215   5.027   9.236 -0.1615 -0.2111  0.3707
   47CHL1    H9 5922   4.108   5.010   9.258 -0.1478  0.3012  0.8639
   47CHL1   C10 5923   4.284   5.005   9.372 -0.0914  0.0564 -0.0378
   47CHL1   C19 5924   4.429   5.052   9.370 -0.7773  0.7308 -0.6587
   47CHL1  H19A 5925   4.480   5.022   9.464 -2.2193  1.4617  0.3884
   47CHL1  H19B 5926   4.476   4.993   9.288  2.4988 -0.3968  1.8123
   47CHL1  H19C 5927   4.439   5.162   9.354 -1.4023  1.1942  1.6889
   47CHL1    C1 5928   4.204   5.076   9.482 -0.2531 -0.6311  0.3209
   47CHL1   H1A 5929   4.214   5.187   9.478  1.4933 -0.7827 -0.4470
   47CHL1   H1B 5930   4.098   5.048   9.465 -0.3985 -0.1888  0.4844
   47CHL1    C2 5931   4.234   5.031   9.619 -0.4574  0.0675 -0.0846
   47CHL1   H2A 5932   4.155   5.061   9.691  0.7480  1.5462  0.6816
   47CHL1   H2B 5933   4.333   5.067   9.654 -0.5628 -0.7516  1.1101
   47CHL1   C20 5934   4.152   5.195   8.687  0.6868  0.9662  0.6816
   47CHL1   H20 5935   4.261   5.201   8.667  0.6875 -0.2738  0.1889
   47CHL1   C21 5936   4.113   5.339   8.735  0.2748 -0.4453  0.0769
   47CHL1  H21A 5937   4.003   5.351   8.746  0.2984  0.1097 -0.2372
   47CHL1  H21B 5938   4.152   5.413   8.663  1.0201 -1.0680 -0.1738
   47CHL1  H21C 5939   4.168   5.361   8.828  2.0330 -2.5664 -0.3782
   47CHL1   C22 5940   4.073   5.150   8.555 -1.0698  0.0957 -0.1093
   47CHL1  H22A 5941   4.102   5.046   8.530 -0.3683  0.1769  0.3597
   47CHL1  H22B 5942   3.962   5.160   8.565 -0.9920  1.3001 -0.2400
   47CHL1   C23 5943   4.125   5.234   8.438  0.4977  0.3165 -0.4961
   47CHL1  H23A 5944   4.079   5.334   8.450 -0.2055 -0.0597 -0.0263
   47CHL1  H23B 5945   4.234   5.214   8.437  0.4438  0.0014 -1.5197
   47CHL1   C24 5946   4.076   5.173   8.305 -0.3226 -0.0698  0.2746
   47CHL1  H24A 5947   4.108   5.067   8.296 -0.8262 -0.2907  0.9843
   47CHL1  H24B 5948   3.965   5.175   8.301 -0.4223 -0.1348  2.0728
   47CHL1   C25 5949   4.132   5.237   8.172 -0.8871  0.3185 -0.4147
   47CHL1   H25 5950   4.243   5.233   8.172 -0.8621  0.1943 -2.1039
   47CHL1   C26 5951   4.100   5.138   8.058  0.0090  0.5170  0.1409
   47CHL1  H26A 5952   4.145   5.037   8.067  1.0161  1.0177  0.9069
   47CHL1  H26B 5953   4.133   5.179   7.960  0.8881  0.1358  0.2711
   47CHL1  H26C 5954   3.990   5.135   8.040 -0.0980  0.5145  0.7837
   47CHL1   C27 5955   4.080   5.382   8.151 -0.2298 -0.2329 -0.1939
   47CHL1  H27A 5956   4.115   5.429   8.057 -0.9763  0.2123 -0.2579
   47CHL1  H27B 5957   3.971   5.374   8.135 -0.0937 -0.2224 -1.1547
   47CHL1  H27C 5958   4.097   5.451   8.237 -0.3628 -0.1216 -0.2557
   48CHL1    C3 5959   5.068   4.248   9.393 -0.2260 -0.0321 -0.4778
   48CHL1    H3 5960   4.990   4.168   9.394  0.0977 -0.5160 -3.4203
   48CHL1    O3 5961   5.131   4.267   9.516  0.1245  0.2972 -0.4717
   48CHL1   H3' 5962   5.192   4.338   9.496 -0.6307  1.7078  1.8343
   48CHL1    C4 5963   5.182   4.220   9.288  0.5875  0.4210 -0.3231
   48CHL1   H4A 5964   5.257   4.302   9.291  1.4376 -0.3621  1.6852
   48CHL1   H4B 5965   5.226   4.123   9.319  1.1318  0.6515 -0.3590
   48CHL1    C5 5966   5.131   4.217   9.145  0.0839 -0.6997 -0.7247
   48CHL1    C6 5967   5.153   4.115   9.053  0.2555  0.1570 -0.5131
   48CHL1    H6 5968   5.218   4.030   9.080 -1.8369 -0.8100  1.7952
   48CHL1    C7 5969   5.108   4.112   8.910  0.0120  0.9254  0.1218
   48CHL1   H7A 5970   5.192   4.072   8.849 -1.0284 -0.1446 -0.6659
   48CHL1   H7B 5971   5.024   4.040   8.898  0.7268 -0.4466  2.6059
   48CHL1    C8 5972   5.057   4.249   8.857 -0.5734  0.0930 -0.4856
   48CHL1    H8 5973   5.147   4.308   8.830 -1.2170  1.9031  1.0778
   48CHL1   C14 5974   4.974   4.223   8.729  0.4990  0.3520 -0.2195
   48CHL1   H14 5975   4.886   4.165   8.762  1.1387 -0.0253  0.9270
   48CHL1   C15 5976   5.049   4.138   8.624  0.3953  0.2065  0.3952
   48CHL1  H15A 5977   5.148   4.181   8.594  0.4334 -0.9381 -1.2653
   48CHL1  H15B 5978   5.052   4.032   8.656 -0.5210 -0.4304 -1.4864
   48CHL1   C16 5979   4.958   4.164   8.503 -0.1115 -0.0901 -0.3535
   48CHL1  H16A 5980   5.032   4.183   8.422 -0.5562 -0.6554 -0.8977
   48CHL1  H16B 5981   4.902   4.072   8.475 -1.9054  0.9724 -0.4243
   48CHL1   C17 5982   4.865   4.293   8.541  0.0975 -0.1059 -0.4526
   48CHL1   H17 5983   4.766   4.248   8.563 -0.1913  0.3976 -0.6994
   48CHL1   C13 5984   4.932   4.354   8.669  1.0431  0.9126  0.7630
   48CHL1   C18 5985   5.048   4.450   8.637  0.0002  0.2261 -0.0166
   48CHL1  H18A 5986   5.002   4.540   8.590 -0.8580  0.6108  1.5103
   48CHL1  H18B 5987   5.105   4.488   8.725 -0.6195  0.0597  0.4620
   48CHL1  H18C 5988   5.116   4.395   8.569 -0.0633  1.3803 -1.0522
   48CHL1   C12 5989   4.845   4.421   8.778  0.0278  0.0164 -0.4303
   48CHL1  H12A 5990   4.793   4.510   8.736  0.5261  0.5772  0.1306
   48CHL1  H12B 5991   4.772   4.343   8.809  0.6615 -1.0596 -1.5415
   48CHL1   C11 5992   4.913   4.455   8.912  0.2237  0.1560  0.6972
   48CHL1  H11A 5993   4.989   4.536   8.903 -0.3246  0.4692 -2.0106
   48CHL1  H11B 5994   4.843   4.506   8.982 -0.3640  2.2934 -1.3046
   48CHL1    C9 5995   4.977   4.328   8.969 -0.3714  0.1881  0.1745
   48CHL1    H9 5996   4.882   4.273   8.989 -1.3120  1.3692 -0.8401
   48CHL1   C10 5997   5.056   4.344   9.105  0.2956  1.0086  0.3731
   48CHL1   C19 5998   5.158   4.467   9.097  0.0975  0.2736  1.1436
   48CHL1  H19A 5999   5.086   4.552   9.101  0.0369  0.2744  0.2643
   48CHL1  H19B 6000   5.224   4.474   9.186 -0.4137  0.9675  1.4804
   48CHL1  H19C 6001   5.202   4.474   8.995  0.2099  0.2750  1.1926
   48CHL1    C1 6002   4.950   4.373   9.217 -0.3536 -0.1194 -0.6448
   48CHL1   H1A 6003   4.892   4.466   9.195  0.3155  0.5154  0.1917
   48CHL1   H1B 6004   4.881   4.287   9.231  0.0537 -0.4793 -0.8295
   48CHL1    C2 6005   4.999   4.380   9.359 -0.3732  0.2616 -0.3056
   48CHL1   H2A 6006   4.907   4.382   9.421 -0.1537 -1.3505  0.1290
   48CHL1   H2B 6007   5.066   4.465   9.385 -1.3658  0.7647  0.7200
   48CHL1   C20 6008   4.844   4.387   8.418 -0.2047  0.3580  0.6973
   48CHL1   H20 6009   4.937   4.448   8.407  1.3356 -1.1188  4.1044
   48CHL1   C21 6010   4.733   4.486   8.465 -0.3871  0.2938 -0.0402
   48CHL1  H21A 6011   4.772   4.562   8.535  0.0002 -0.9735  1.1768
   48CHL1  H21B 6012   4.644   4.441   8.515  0.3224 -0.1244  0.8837
   48CHL1  H21C 6013   4.696   4.554   8.386 -1.1211 -0.3158 -0.2437
   48CHL1   C22 6014   4.812   4.312   8.291 -0.5346 -0.0450 -0.1748
   48CHL1  H22A 6015   4.904   4.255   8.265  0.9246  1.6860  0.9809
   48CHL1  H22B 6016   4.731   4.238   8.304 -0.6999  0.4630  2.1161
   48CHL1   C23 6017   4.768   4.401   8.173  0.2192  1.1466 -0.7312
   48CHL1  H23A 6018   4.665   4.436   8.197 -0.6339 -1.8914  0.4251
   48CHL1  H23B 6019   4.836   4.489   8.166  0.5134  0.9329 -0.5237
   48CHL1   C24 6020   4.768   4.320   8.044  0.1134 -0.0216  0.2254
   48CHL1  H24A 6021   4.867   4.274   8.028 -0.2116 -0.4476 -0.6096
   48CHL1  H24B 6022   4.702   4.232   8.058  0.4818 -0.5641 -1.2450
   48CHL1   C25 6023   4.733   4.405   7.924  0.0219 -0.0246 -0.0072
   48CHL1   H25 6024   4.814   4.481   7.925 -0.5003  0.5593 -0.8530
   48CHL1   C26 6025   4.760   4.322   7.798  0.5110  0.1032 -0.7504
   48CHL1  H26A 6026   4.864   4.282   7.800  0.6012  0.2488 -1.9552
   48CHL1  H26B 6027   4.682   4.243   7.806 -1.3453  1.9246  0.2913
   48CHL1  H26C 6028   4.739   4.381   7.707  2.0621 -1.6696 -2.3421
   48CHL1   C27 6029   4.592   4.456   7.918  0.3582  0.2842  0.9876
   48CHL1  H27A 6030   4.555   4.507   8.010 -0.3911 -0.3553  1.0588
   48CHL1  H27B 6031   4.589   4.537   7.842 -1.9145  1.8238  2.5856
   48CHL1  H27C 6032   4.527   4.368   7.897 -0.5281  1.5772 -2.3032
   49CHL1    C3 6033   3.721   1.746   9.578 -0.2070 -0.8393 -0.0743
   49CHL1    H3 6034   3.691   1.639   9.590  1.1586 -1.0694  1.5193
   49CHL1    O3 6035   3.710   1.801   9.708  0.0737  0.5091 -0.8920
   49CHL1   H3' 6036   3.671   1.888   9.697  1.6509  1.0108 -3.2529
   49CHL1    C4 6037   3.860   1.760   9.517 -1.1655 -0.1424  1.0550
   49CHL1   H4A 6038   3.883   1.868   9.508  0.2694 -0.6278 -2.3997
   49CHL1   H4B 6039   3.939   1.718   9.583 -0.4092  0.3169  0.4456
   49CHL1    C5 6040   3.873   1.698   9.382 -0.5552  0.2241 -0.6859
   49CHL1    C6 6041   3.967   1.608   9.352 -0.4860 -0.5991  0.0698
   49CHL1    H6 6042   4.043   1.583   9.427 -0.5808  0.2132  0.4415
   49CHL1    C7 6043   3.973   1.544   9.217 -0.1036  0.2588  0.1065
   49CHL1   H7A 6044   4.079   1.530   9.186 -0.1882  0.0610 -0.0954
   49CHL1   H7B 6045   3.916   1.450   9.236 -1.7923  1.6621  2.4320
   49CHL1    C8 6046   3.898   1.622   9.112 -0.0908  0.2778 -0.0334
   49CHL1    H8 6047   3.962   1.710   9.092 -1.8603  2.3422  2.7308
   49CHL1   C14 6048   3.889   1.540   8.985  0.0139  0.1210  0.6478
   49CHL1   H14 6049   3.838   1.445   9.010 -2.5421  0.4341 -2.5956
   49CHL1   C15 6050   4.020   1.494   8.921 -0.4857 -0.4801 -0.6884
   49CHL1  H15A 6051   4.088   1.582   8.929 -0.7995 -0.2309 -0.7518
   49CHL1  H15B 6052   4.058   1.403   8.973  0.1591 -2.6814 -4.6082
   49CHL1   C16 6053   3.986   1.468   8.770 -0.0006 -0.2996  0.4917
   49CHL1  H16A 6054   4.047   1.529   8.700  1.5615 -1.4631  0.7691
   49CHL1  H16B 6055   4.026   1.367   8.744  2.1780  0.6154  0.0405
   49CHL1   C17 6056   3.841   1.494   8.760  0.0274 -0.2382 -0.4725
   49CHL1   H17 6057   3.791   1.400   8.792  1.5703 -1.2946 -1.0071
   49CHL1   C13 6058   3.818   1.595   8.869  0.7404 -0.9942  0.5210
   49CHL1   C18 6059   3.880   1.732   8.830 -0.0104  0.6884  0.1547
   49CHL1  H18A 6060   3.983   1.727   8.790  0.3717  1.2100  1.0589
   49CHL1  H18B 6061   3.821   1.786   8.753 -0.0459 -0.7828 -0.8942
   49CHL1  H18C 6062   3.875   1.801   8.917 -2.1820  3.3383 -1.8485
   49CHL1   C12 6063   3.672   1.614   8.914  0.2439  0.0732 -0.1999
   49CHL1  H12A 6064   3.610   1.665   8.838  1.0018  0.1757 -0.7607
   49CHL1  H12B 6065   3.614   1.520   8.927  1.7793 -0.9352 -0.3258
   49CHL1   C11 6066   3.658   1.706   9.041  0.3466  0.4466 -0.4617
   49CHL1  H11A 6067   3.694   1.803   9.002  1.6634  0.0568 -0.2536
   49CHL1  H11B 6068   3.550   1.710   9.068  0.6298 -0.9210  1.0453
   49CHL1    C9 6069   3.754   1.657   9.156 -0.1063 -0.5831 -0.0586
   49CHL1    H9 6070   3.713   1.560   9.191  1.3663 -1.7840 -1.4901
   49CHL1   C10 6071   3.760   1.745   9.287  0.2352 -0.0059 -0.1921
   49CHL1   C19 6072   3.792   1.890   9.237 -0.0089 -1.2580  0.0540
   49CHL1  H19A 6073   3.708   1.925   9.173 -0.6862  3.1103  2.9092
   49CHL1  H19B 6074   3.779   1.955   9.326  2.0767 -0.6497 -0.0406
   49CHL1  H19C 6075   3.888   1.908   9.183  1.5305 -2.2639  2.3329
   49CHL1    C1 6076   3.623   1.742   9.354  0.7781  0.0923  0.2078
   49CHL1   H1A 6077   3.543   1.789   9.293 -1.3628 -1.2913  1.8106
   49CHL1   H1B 6078   3.592   1.637   9.370  0.8430 -0.1319 -1.0249
   49CHL1    C2 6079   3.618   1.812   9.485  0.1788  0.1820 -0.4055
   49CHL1   H2A 6080   3.520   1.806   9.538  0.3593 -1.1154 -0.1874
   49CHL1   H2B 6081   3.647   1.919   9.475  1.0484 -0.1438 -1.5820
   49CHL1   C20 6082   3.794   1.535   8.617  0.4876  0.0686 -0.3074
   49CHL1   H20 6083   3.788   1.646   8.620 -0.2344  0.0265  0.2509
   49CHL1   C21 6084   3.643   1.487   8.606 -0.6164  0.3642  0.0848
   49CHL1  H21A 6085   3.650   1.380   8.580 -1.1223  0.8697 -2.4470
   49CHL1  H21B 6086   3.600   1.545   8.521  3.0080  0.7830 -1.6958
   49CHL1  H21C 6087   3.593   1.506   8.703  0.5327 -1.4129  1.0659
   49CHL1   C22 6088   3.867   1.477   8.497 -0.8954 -0.1352  0.3616
   49CHL1  H22A 6089   3.969   1.520   8.498 -1.0660  0.3406 -0.6043
   49CHL1  H22B 6090   3.888   1.369   8.507  1.0006  0.1780  0.1170
   49CHL1   C23 6091   3.802   1.489   8.355 -0.3562 -0.8223 -0.2727
   49CHL1  H23A 6092   3.715   1.420   8.353 -0.7562 -0.3632  0.6425
   49CHL1  H23B 6093   3.777   1.597   8.351  0.2006 -0.6488  0.6424
   49CHL1   C24 6094   3.886   1.452   8.233  0.0606  0.1294 -0.1176
   49CHL1  H24A 6095   3.953   1.540   8.221 -1.6014  1.4209 -0.4113
   49CHL1  H24B 6096   3.941   1.359   8.257  0.3435  0.0977 -0.8559
   49CHL1   C25 6097   3.806   1.429   8.104 -0.4781 -0.8478 -0.1070
   49CHL1   H25 6098   3.749   1.335   8.115 -1.1416 -0.6002 -1.2219
   49CHL1   C26 6099   3.717   1.546   8.052 -0.9967 -0.0157 -0.0225
   49CHL1  H26A 6100   3.776   1.640   8.041 -0.0235 -0.6246 -0.1686
   49CHL1  H26B 6101   3.688   1.515   7.949  1.7420 -1.4000 -0.4813
   49CHL1  H26C 6102   3.629   1.554   8.119 -0.7821 -1.2543  0.4233
   49CHL1   C27 6103   3.911   1.398   7.993  0.4168  0.3454 -0.1640
   49CHL1  H27A 6104   3.866   1.387   7.892 -1.6278  1.1710  0.5893
   49CHL1  H27B 6105   3.976   1.487   7.978  2.1065 -0.9126 -0.5450
   49CHL1  H27C 6106   3.971   1.309   8.020 -2.0996 -1.0057  1.4323
   50CHL1    C3 6107   1.539   3.765   9.361  0.0884  0.1390 -0.6283
   50CHL1    H3 6108   1.507   3.854   9.303  1.5787  0.5615 -0.8444
   50CHL1    O3 6109   1.505   3.785   9.498  0.2273 -0.8066  0.8212
   50CHL1   H3' 6110   1.552   3.718   9.549 -1.1716 -0.2808  2.9160
   50CHL1    C4 6111   1.460   3.637   9.317  1.0445  0.2592  0.7297
   50CHL1   H4A 6112   1.474   3.561   9.396  1.5341 -1.5020 -0.9660
   50CHL1   H4B 6113   1.351   3.659   9.318  0.9759 -0.0614  0.5652
   50CHL1    C5 6114   1.501   3.587   9.179 -0.8339 -0.4284 -0.0491
   50CHL1    C6 6115   1.422   3.580   9.070  0.1975  0.4151  0.0561
   50CHL1    H6 6116   1.314   3.590   9.090  0.3817  1.3924  0.6542
   50CHL1    C7 6117   1.464   3.522   8.942 -0.5017  0.2576  0.2787
   50CHL1   H7A 6118   1.391   3.441   8.918 -0.6128  0.0772  1.1914
   50CHL1   H7B 6119   1.467   3.601   8.863 -0.0726 -0.1005 -0.0631
   50CHL1    C8 6120   1.604   3.458   8.935 -0.2120  0.5204 -0.4430
   50CHL1    H8 6121   1.593   3.358   8.981  1.3737  1.1197  1.3680
   50CHL1   C14 6122   1.648   3.435   8.795 -0.0605 -0.2251 -0.1364
   50CHL1   H14 6123   1.651   3.530   8.737  2.9810 -0.5589 -0.6777
   50CHL1   C15 6124   1.553   3.344   8.720 -0.3195  0.5975 -0.1038
   50CHL1  H15A 6125   1.519   3.255   8.777 -0.4684  0.7202  0.0001
   50CHL1  H15B 6126   1.466   3.410   8.700 -0.6846  0.6032  1.3737
   50CHL1   C16 6127   1.645   3.283   8.604 -0.0133 -0.8655  0.3456
   50CHL1  H16A 6128   1.642   3.172   8.614 -2.1357 -0.9272 -0.4712
   50CHL1  H16B 6129   1.615   3.310   8.500 -0.1165 -1.2161  0.2814
   50CHL1   C17 6130   1.788   3.339   8.640 -0.3522  0.1036  0.3213
   50CHL1   H17 6131   1.784   3.441   8.596 -1.3849  0.2507  0.7162
   50CHL1   C13 6132   1.786   3.368   8.787  0.3547 -1.2137  0.0737
   50CHL1   C18 6133   1.791   3.229   8.854 -0.5254  0.2749  0.8291
   50CHL1  H18A 6134   1.890   3.183   8.834 -1.1382 -0.7592  0.1029
   50CHL1  H18B 6135   1.777   3.240   8.964 -0.4590 -0.9656  0.9799
   50CHL1  H18C 6136   1.715   3.158   8.816  1.0241 -1.2185  0.4038
   50CHL1   C12 6137   1.881   3.471   8.840 -0.0924 -0.5792  0.6391
   50CHL1  H12A 6138   1.981   3.426   8.827  0.2064 -0.1653  1.3872
   50CHL1  H12B 6139   1.871   3.554   8.767  0.0178 -1.0492  0.0871
   50CHL1   C11 6140   1.852   3.513   8.988 -0.2094 -0.0964 -0.1954
   50CHL1  H11A 6141   1.866   3.421   9.049 -3.1303  0.5545  1.6738
   50CHL1  H11B 6142   1.923   3.589   9.027 -1.4401  0.8506  0.2622
   50CHL1    C9 6143   1.702   3.547   9.013  0.0920  0.2158  0.2072
   50CHL1    H9 6144   1.682   3.645   8.965 -1.0664  0.1946  0.6189
   50CHL1   C10 6145   1.653   3.579   9.161 -0.6463  0.4494 -0.5376
   50CHL1   C19 6146   1.699   3.457   9.249 -0.4703  0.2113 -0.1467
   50CHL1  H19A 6147   1.672   3.366   9.193  1.5566 -1.9510  2.1446
   50CHL1  H19B 6148   1.810   3.467   9.258 -0.5738  1.3254  0.0615
   50CHL1  H19C 6149   1.658   3.459   9.352 -0.3927  2.3040 -0.1039
   50CHL1    C1 6150   1.733   3.709   9.202  0.1895  0.5288  0.1080
   50CHL1   H1A 6151   1.844   3.703   9.201  0.3020  2.0123  0.5233
   50CHL1   H1B 6152   1.696   3.789   9.134 -1.8410 -0.9716 -0.6398
   50CHL1    C2 6153   1.689   3.745   9.352 -0.4035  0.8842  0.1660
   50CHL1   H2A 6154   1.742   3.837   9.384  2.2873 -0.3141 -0.5874
   50CHL1   H2B 6155   1.707   3.667   9.429 -2.2034  0.4274  0.1767
   50CHL1   C20 6156   1.908   3.275   8.566  0.5298  0.4406 -0.3259
   50CHL1   H20 6157   1.877   3.281   8.460 -3.5447 -1.7745  0.5377
   50CHL1   C21 6158   1.931   3.124   8.582  0.0549  0.7494  0.4843
   50CHL1  H21A 6159   1.977   3.083   8.490 -1.2206  1.8320 -0.6725
   50CHL1  H21B 6160   1.844   3.056   8.590  0.9134 -0.5366 -0.7335
   50CHL1  H21C 6161   1.993   3.109   8.674  0.2517 -2.3700 -0.0460
   50CHL1   C22 6162   2.038   3.353   8.585  0.3764  0.8466 -0.1895
   50CHL1  H22A 6163   2.018   3.462   8.588  0.3181  0.8306 -0.0235
   50CHL1  H22B 6164   2.083   3.327   8.683 -0.1816  2.6748  0.5890
   50CHL1   C23 6165   2.144   3.324   8.473  0.1468 -0.0640 -0.5565
   50CHL1  H23A 6166   2.243   3.365   8.501 -0.1257 -0.6720  1.4078
   50CHL1  H23B 6167   2.163   3.214   8.471  0.2224 -0.0611 -2.4412
   50CHL1   C24 6168   2.097   3.381   8.339  0.3675 -0.4399  0.5403
   50CHL1  H24A 6169   1.998   3.339   8.311  0.2527  1.2495 -1.9523
   50CHL1  H24B 6170   2.085   3.491   8.350 -1.5438 -0.5931  0.3020
   50CHL1   C25 6171   2.186   3.355   8.214 -0.7150 -0.1299  0.2674
   50CHL1   H25 6172   2.270   3.428   8.216  1.5407 -2.4972 -1.2419
   50CHL1   C26 6173   2.249   3.217   8.217  0.4835 -0.5095  0.8959
   50CHL1  H26A 6174   2.169   3.143   8.197 -0.9724  1.1751  0.1876
   50CHL1  H26B 6175   2.325   3.206   8.137 -0.4721 -2.7285  0.2345
   50CHL1  H26C 6176   2.303   3.201   8.312 -0.9102  1.1193  2.0348
   50CHL1   C27 6177   2.118   3.397   8.085  0.0917  0.2684 -0.3899
   50CHL1  H27A 6178   2.078   3.500   8.098  2.0523  1.0972 -0.6791
   50CHL1  H27B 6179   2.188   3.385   8.001  1.8447  1.6964  0.7994
   50CHL1  H27C 6180   2.027   3.337   8.062 -0.3713  1.5594 -2.1188
   51CHL1    C3 6181   2.074   5.184   9.471  0.2007 -0.1669 -0.2631
   51CHL1    H3 6182   2.021   5.279   9.494  0.0492  0.1212 -1.7187
   51CHL1    O3 6183   2.113   5.125   9.597  0.0095  0.2200  0.3857
   51CHL1   H3' 6184   2.153   5.200   9.642  1.8563  0.2604 -1.1714
   51CHL1    C4 6185   1.983   5.086   9.392  0.0698 -0.2933 -0.4477
   51CHL1   H4A 6186   2.038   4.990   9.388 -0.2251 -0.6011  1.8020
   51CHL1   H4B 6187   1.894   5.069   9.456  0.4740 -1.9487 -0.2924
   51CHL1    C5 6188   1.940   5.131   9.255  0.1070  0.2034  0.0654
   51CHL1    C6 6189   1.815   5.149   9.212  0.4324  0.7671 -0.0307
   51CHL1    H6 6190   1.735   5.129   9.285 -0.1731  1.1584 -0.5747
   51CHL1    C7 6191   1.787   5.201   9.073  0.4102 -0.8186 -0.4444
   51CHL1   H7A 6192   1.695   5.155   9.032  1.0327 -1.6472 -0.9461
   51CHL1   H7B 6193   1.753   5.307   9.075  1.1047 -0.5899  1.3864
   51CHL1    C8 6194   1.903   5.192   8.972  0.0081  0.0509  0.2138
   51CHL1    H8 6195   1.916   5.084   8.949  0.1603 -0.0864  0.9343
   51CHL1   C14 6196   1.863   5.255   8.837  0.3165 -0.0315 -0.0268
   51CHL1   H14 6197   1.860   5.362   8.866 -1.5914  0.0875 -0.5512
   51CHL1   C15 6198   1.722   5.219   8.774 -0.7129 -0.6831 -0.6875
   51CHL1  H15A 6199   1.693   5.114   8.797  1.7318 -1.2951 -0.1350
   51CHL1  H15B 6200   1.644   5.286   8.816 -0.1364 -0.3770 -0.0896
   51CHL1   C16 6201   1.746   5.265   8.627 -0.0800  0.8371  0.1244
   51CHL1  H16A 6202   1.739   5.166   8.579  0.8064 -0.7139  2.9746
   51CHL1  H16B 6203   1.671   5.333   8.581  0.5532  0.2612 -1.8346
   51CHL1   C17 6204   1.891   5.321   8.612  0.0590 -0.3255 -0.0040
   51CHL1   H17 6205   1.872   5.428   8.634 -0.3700 -0.3910 -0.0466
   51CHL1   C13 6206   1.969   5.257   8.731 -0.0386 -0.1770  0.6235
   51CHL1   C18 6207   2.010   5.114   8.701 -0.1720  0.0011  0.8845
   51CHL1  H18A 6208   2.043   5.061   8.793  0.4245 -1.2277  0.0035
   51CHL1  H18B 6209   1.932   5.047   8.659 -1.0860  0.6075  1.6042
   51CHL1  H18C 6210   2.088   5.124   8.622 -1.9645  2.6169 -0.6761
   51CHL1   C12 6211   2.090   5.337   8.790  0.2410  0.0023 -0.0219
   51CHL1  H12A 6212   2.169   5.311   8.718  0.9681  0.4047  0.6122
   51CHL1  H12B 6213   2.073   5.447   8.791 -0.8564 -0.1393 -0.9718
   51CHL1   C11 6214   2.133   5.275   8.928  0.8906  1.0655  0.3916
   51CHL1  H11A 6215   2.174   5.177   8.896 -0.4800  0.4759  0.3679
   51CHL1  H11B 6216   2.218   5.330   8.973  2.5274  1.1018 -2.4722
   51CHL1    C9 6217   2.031   5.246   9.033  0.5126  0.6272 -0.3980
   51CHL1    H9 6218   1.999   5.344   9.075  3.0668  0.4908  2.1760
   51CHL1   C10 6219   2.066   5.169   9.163 -0.4784 -0.1366  0.8208
   51CHL1   C19 6220   2.141   5.043   9.122 -0.1935  0.3280 -0.0413
   51CHL1  H19A 6221   2.236   5.068   9.069 -1.2027 -0.1636 -2.1915
   51CHL1  H19B 6222   2.160   4.976   9.208 -1.8360 -0.4692 -0.2618
   51CHL1  H19C 6223   2.068   4.986   9.060 -0.2302 -0.8234  1.0234
   51CHL1    C1 6224   2.163   5.271   9.239  0.1314 -0.1857  0.1351
   51CHL1   H1A 6225   2.257   5.280   9.179  0.5032  0.6765  0.8234
   51CHL1   H1B 6226   2.123   5.375   9.237 -0.3935 -0.3942 -0.9373
   51CHL1    C2 6227   2.197   5.223   9.384  0.1068  0.0878  0.2228
   51CHL1   H2A 6228   2.259   5.297   9.439 -1.6004  2.4160 -0.8123
   51CHL1   H2B 6229   2.260   5.133   9.374  2.7563  1.9112 -0.4124
   51CHL1   C20 6230   1.933   5.313   8.464 -1.0565  0.3941 -0.7652
   51CHL1   H20 6231   1.932   5.207   8.431 -1.7539 -0.4272  1.7167
   51CHL1   C21 6232   2.070   5.382   8.443  0.0600  0.1918  1.1201
   51CHL1  H21A 6233   2.135   5.338   8.522 -1.5461  0.2043  2.5019
   51CHL1  H21B 6234   2.056   5.491   8.454 -1.1031  0.4863 -2.3215
   51CHL1  H21C 6235   2.108   5.362   8.340 -0.5981 -3.3965  1.4483
   51CHL1   C22 6236   1.830   5.383   8.371 -0.0493  0.1167  0.7332
   51CHL1  H22A 6237   1.731   5.336   8.386 -0.8614  1.3715 -0.5131
   51CHL1  H22B 6238   1.835   5.493   8.385  2.0987  0.7011 -3.1745
   51CHL1   C23 6239   1.868   5.371   8.225  0.9201  0.5050  0.5538
   51CHL1  H23A 6240   1.782   5.421   8.175  0.7641 -0.7237 -0.4450
   51CHL1  H23B 6241   1.961   5.426   8.200  1.5000 -0.9209 -0.5522
   51CHL1   C24 6242   1.871   5.227   8.163  0.3794  0.6437  0.4243
   51CHL1  H24A 6243   1.900   5.231   8.056  0.9844 -0.9908  0.4990
   51CHL1  H24B 6244   1.943   5.164   8.220  1.1558  2.1309  1.1278
   51CHL1   C25 6245   1.740   5.154   8.179  0.3054  0.4988 -0.0050
   51CHL1   H25 6246   1.741   5.141   8.290 -0.5586 -0.8204 -0.1310
   51CHL1   C26 6247   1.610   5.229   8.140 -0.1625  0.0910  0.0841
   51CHL1  H26A 6248   1.602   5.327   8.192 -1.9871  0.1598 -0.2608
   51CHL1  H26B 6249   1.601   5.245   8.030 -1.6290  1.0394  0.3041
   51CHL1  H26C 6250   1.518   5.176   8.175 -0.5881  1.1746  0.6712
   51CHL1   C27 6251   1.745   5.019   8.111  0.3142  0.3261  0.2705
   51CHL1  H27A 6252   1.841   4.969   8.135 -0.2410 -0.0349  1.8485
   51CHL1  H27B 6253   1.663   4.954   8.148 -0.6357  0.9070 -0.7345
   51CHL1  H27C 6254   1.724   5.031   8.002 -0.3350 -0.0597  0.3438
   52CHL1    C3 6255   5.643   2.282   9.447 -0.7240 -0.0985 -0.0625
   52CHL1    H3 6256   5.637   2.345   9.538 -1.4039  2.0278 -1.5066
   52CHL1    O3 6257   5.675   2.149   9.493  0.5826 -0.0658 -0.0248
   52CHL1   H3' 6258   5.665   2.082   9.426 -0.8264  0.2403 -0.1476
   52CHL1    C4 6259   5.515   2.283   9.365  0.6724 -0.2804  0.4409
   52CHL1   H4A 6260   5.523   2.206   9.284  0.5243  0.4003 -0.2313
   52CHL1   H4B 6261   5.430   2.264   9.433 -1.2939  1.7362 -1.3221
   52CHL1    C5 6262   5.489   2.418   9.300  0.9193  0.1814 -0.3892
   52CHL1    C6 6263   5.374   2.490   9.317 -0.5799  0.4771  0.1013
   52CHL1    H6 6264   5.298   2.447   9.385 -1.4362  1.8006  0.0075
   52CHL1    C7 6265   5.338   2.621   9.260 -0.4413  0.0862  0.2997
   52CHL1   H7A 6266   5.236   2.622   9.216 -1.0424  2.8035  1.5247
   52CHL1   H7B 6267   5.329   2.697   9.341  0.6948  2.4099 -1.6169
   52CHL1    C8 6268   5.450   2.648   9.152 -0.5784  0.2130  0.0628
   52CHL1    H8 6269   5.428   2.582   9.065 -2.0201  0.7400  0.0019
   52CHL1   C14 6270   5.440   2.797   9.123  0.2045  0.2497  0.1220
   52CHL1   H14 6271   5.486   2.840   9.215 -0.1349 -1.4307  1.1344
   52CHL1   C15 6272   5.303   2.871   9.112 -0.3150 -0.0829 -0.2824
   52CHL1  H15A 6273   5.233   2.804   9.057  1.4890 -2.0799 -0.2679
   52CHL1  H15B 6274   5.278   2.890   9.219  1.1970 -1.3482  0.3305
   52CHL1   C16 6275   5.338   3.000   9.034 -0.3107 -0.0181 -0.4589
   52CHL1  H16A 6276   5.278   2.990   8.941 -1.3943  1.7772 -0.0143
   52CHL1  H16B 6277   5.329   3.090   9.099 -0.4417  0.1070 -0.6509
   52CHL1   C17 6278   5.491   2.996   9.004  0.3958  0.8326  0.0293
   52CHL1   H17 6279   5.540   3.036   9.095  1.1350  0.9914 -0.4259
   52CHL1   C13 6280   5.526   2.843   9.004  0.3698  0.7172 -0.3394
   52CHL1   C18 6281   5.475   2.769   8.875 -0.6771 -1.0093 -0.1718
   52CHL1  H18A 6282   5.488   2.658   8.877  1.1839 -0.9190 -2.6330
   52CHL1  H18B 6283   5.365   2.781   8.859 -0.6058  1.2375  0.7004
   52CHL1  H18C 6284   5.540   2.792   8.789 -0.6719 -1.4006 -0.2743
   52CHL1   C12 6285   5.673   2.813   9.034 -0.4489 -0.0684 -0.5361
   52CHL1  H12A 6286   5.734   2.837   8.944 -1.3244  1.7047 -0.6960
   52CHL1  H12B 6287   5.708   2.879   9.115  1.0927 -0.9099 -0.4832
   52CHL1   C11 6288   5.689   2.667   9.071 -0.1160 -0.3466 -0.4339
   52CHL1  H11A 6289   5.670   2.610   8.977 -1.7474  0.0242 -0.3639
   52CHL1  H11B 6290   5.793   2.648   9.104  0.4128 -0.2990 -1.9978
   52CHL1    C9 6291   5.593   2.620   9.185  0.1920  0.4158 -0.5255
   52CHL1    H9 6292   5.618   2.682   9.275 -2.5482  0.0764  0.5733
   52CHL1   C10 6293   5.604   2.467   9.219  0.4413 -0.1553  0.0005
   52CHL1   C19 6294   5.616   2.385   9.090  0.2575 -0.0173 -0.7240
   52CHL1  H19A 6295   5.604   2.275   9.100 -0.1329  0.0283 -0.6622
   52CHL1  H19B 6296   5.537   2.412   9.017 -1.5100  0.4747  1.2510
   52CHL1  H19C 6297   5.715   2.414   9.050  0.6964  1.5940  1.3275
   52CHL1    C1 6298   5.741   2.457   9.293 -0.1552 -0.3777 -0.4281
   52CHL1   H1A 6299   5.819   2.487   9.220 -1.0803  0.7095 -0.9848
   52CHL1   H1B 6300   5.748   2.530   9.377  2.9316 -0.5306 -0.4335
   52CHL1    C2 6301   5.767   2.320   9.360  0.4222  0.1711  0.3152
   52CHL1   H2A 6302   5.867   2.316   9.408  1.3307 -0.8742 -1.5457
   52CHL1   H2B 6303   5.776   2.240   9.284  1.4676 -0.0294  0.6372
   52CHL1   C20 6304   5.538   3.075   8.884  0.0553 -0.5568 -0.9466
   52CHL1   H20 6305   5.629   3.029   8.840  0.6688 -1.3900  1.0404
   52CHL1   C21 6306   5.567   3.223   8.923 -0.0837 -0.2255 -0.4790
   52CHL1  H21A 6307   5.642   3.213   9.005 -1.2488  1.1404  0.8184
   52CHL1  H21B 6308   5.475   3.250   8.980  1.9954  3.6269  1.4247
   52CHL1  H21C 6309   5.592   3.290   8.838  1.7665 -0.9167 -0.5105
   52CHL1   C22 6310   5.448   3.081   8.760 -0.2522 -0.6726 -0.1531
   52CHL1  H22A 6311   5.412   2.981   8.727 -0.5651  0.3046 -3.0410
   52CHL1  H22B 6312   5.367   3.155   8.777  1.8890  1.4616  1.3073
   52CHL1   C23 6313   5.524   3.123   8.635 -0.0493 -1.2022  0.1020
   52CHL1  H23A 6314   5.525   3.233   8.619  0.2741 -1.0834  0.8843
   52CHL1  H23B 6315   5.629   3.088   8.640  1.4100  2.8038  2.4467
   52CHL1   C24 6316   5.455   3.062   8.512  0.3940  0.0053  0.1083
   52CHL1  H24A 6317   5.485   2.955   8.513  4.1785  0.8808 -0.7184
   52CHL1  H24B 6318   5.348   3.087   8.528  0.2673  0.2977 -1.0613
   52CHL1   C25 6319   5.501   3.114   8.382 -0.0888  0.1987  0.2050
   52CHL1   H25 6320   5.493   3.225   8.385  0.2360  0.2313 -0.0880
   52CHL1   C26 6321   5.644   3.087   8.339  0.1964  0.4131  0.1621
   52CHL1  H26A 6322   5.712   3.134   8.414  0.0666  0.1078  0.4731
   52CHL1  H26B 6323   5.658   2.977   8.348  1.5429  0.6665  1.5360
   52CHL1  H26C 6324   5.650   3.129   8.237 -1.8527 -0.4777 -0.3639
   52CHL1   C27 6325   5.407   3.064   8.266  0.7487  0.2087 -0.0761
   52CHL1  H27A 6326   5.440   2.963   8.234  1.2178  0.2297  0.3247
   52CHL1  H27B 6327   5.306   3.070   8.313 -0.1695  1.5189 -2.0850
   52CHL1  H27C 6328   5.416   3.129   8.176 -0.3870  0.4432 -0.0318
   53CHL1    C3 6329   6.848   3.075   9.314  0.2659  0.1248  0.3267
   53CHL1    H3 6330   6.753   3.018   9.300  0.9082 -1.3340  1.6029
   53CHL1    O3 6331   6.867   3.116   9.448  0.4787  0.6688 -0.4358
   53CHL1   H3' 6332   6.796   3.070   9.493  0.6998 -2.5594 -3.0095
   53CHL1    C4 6333   6.981   3.020   9.259 -0.0582 -0.1780 -0.1249
   53CHL1   H4A 6334   7.058   3.094   9.289 -0.1356 -0.4080  0.6572
   53CHL1   H4B 6335   7.004   2.921   9.304 -0.1898 -1.3027 -2.3854
   53CHL1    C5 6336   6.985   3.011   9.106 -0.2073 -0.6215 -0.4761
   53CHL1    C6 6337   7.025   2.897   9.044 -1.1408 -0.2915  0.2532
   53CHL1    H6 6338   7.045   2.803   9.099  2.9498  0.7598  0.8688
   53CHL1    C7 6339   7.044   2.873   8.891  0.1853  0.1471 -0.6934
   53CHL1   H7A 6340   7.144   2.832   8.868  0.7793  1.6629 -0.9190
   53CHL1   H7B 6341   6.961   2.804   8.865 -2.1287  2.5299 -0.0455
   53CHL1    C8 6342   7.020   3.001   8.812  0.2923 -0.0683  0.4506
   53CHL1    H8 6343   7.118   3.054   8.809  0.0532  0.4095  0.9461
   53CHL1   C14 6344   6.969   2.968   8.669 -0.3235  0.0342  0.3240
   53CHL1   H14 6345   6.865   2.933   8.682 -0.0376 -0.6106  0.9546
   53CHL1   C15 6346   7.046   2.858   8.593  0.0399  0.0025 -0.0082
   53CHL1  H15A 6347   7.153   2.888   8.588  0.6792 -2.0595  0.2345
   53CHL1  H15B 6348   7.031   2.761   8.644 -1.8764  0.2537 -0.0346
   53CHL1   C16 6349   6.995   2.873   8.451  0.3551  0.2047  0.2630
   53CHL1  H16A 6350   7.080   2.867   8.379  0.5898 -2.8799  0.6623
   53CHL1  H16B 6351   6.936   2.787   8.412 -1.2281  0.8664  1.1092
   53CHL1   C17 6352   6.911   2.999   8.447  0.4025 -0.4063  0.8324
   53CHL1   H17 6353   6.807   2.966   8.470  0.2471 -0.9968 -0.5964
   53CHL1   C13 6354   6.948   3.081   8.576  0.1884 -0.8878 -0.2670
   53CHL1   C18 6355   7.082   3.157   8.559  0.0760 -1.0613  0.8041
   53CHL1  H18A 6356   7.149   3.081   8.513  1.6096 -0.4292  1.9535
   53CHL1  H18B 6357   7.074   3.246   8.493 -0.1333  0.7313  3.1507
   53CHL1  H18C 6358   7.126   3.192   8.654 -1.0056  0.7347  0.7003
   53CHL1   C12 6359   6.845   3.176   8.644  0.4272 -0.1461  1.0003
   53CHL1  H12A 6360   6.840   3.274   8.594  1.0164 -0.6456 -0.0748
   53CHL1  H12B 6361   6.752   3.115   8.649  0.8190 -0.8337  0.2092
   53CHL1   C11 6362   6.877   3.219   8.781  0.2954  0.0959 -0.2942
   53CHL1  H11A 6363   6.967   3.282   8.770 -0.4123  1.1884  0.0302
   53CHL1  H11B 6364   6.797   3.282   8.825 -1.0651 -0.4247 -1.9215
   53CHL1    C9 6365   6.914   3.098   8.871  0.2073 -0.5074 -0.7495
   53CHL1    H9 6366   6.827   3.031   8.886 -1.0247  1.4623  1.7598
   53CHL1   C10 6367   6.946   3.135   9.020 -0.1804 -0.6226 -0.9317
   53CHL1   C19 6368   7.061   3.242   9.021 -0.3626  0.2108  0.1202
   53CHL1  H19A 6369   7.137   3.182   8.965 -3.4703 -3.0510 -0.9890
   53CHL1  H19B 6370   7.018   3.338   8.985 -1.1238  0.8325  2.5074
   53CHL1  H19C 6371   7.095   3.264   9.124 -1.7629  1.7707  0.2846
   53CHL1    C1 6372   6.810   3.191   9.084 -1.0961  0.0559  0.5615
   53CHL1   H1A 6373   6.780   3.292   9.048 -1.2428 -0.4205 -0.7219
   53CHL1   H1B 6374   6.730   3.116   9.061 -1.3698  0.8620 -1.2763
   53CHL1    C2 6375   6.809   3.202   9.236  0.3911 -0.2320  0.0366
   53CHL1   H2A 6376   6.710   3.235   9.275  0.6798  2.2121 -1.1442
   53CHL1   H2B 6377   6.874   3.285   9.271  1.6565 -0.8232 -0.8357
   53CHL1   C20 6378   6.909   3.074   8.314  1.0478 -0.7763  0.3851
   53CHL1   H20 6379   6.855   3.000   8.252 -1.5553  0.3621  1.1498
   53CHL1   C21 6380   7.032   3.116   8.231  0.0362 -0.8505 -0.1133
   53CHL1  H21A 6381   7.026   3.122   8.120  0.6544 -3.0754 -0.3133
   53CHL1  H21B 6382   7.117   3.053   8.266  1.0968  0.5730 -0.0499
   53CHL1  H21C 6383   7.074   3.213   8.266 -0.3867 -1.6409  2.8488
   53CHL1   C22 6384   6.814   3.198   8.326  0.7326  0.1825 -0.0083
   53CHL1  H22A 6385   6.730   3.183   8.398  0.0812  1.2508 -0.5212
   53CHL1  H22B 6386   6.868   3.286   8.366 -0.6500  0.4591  1.3445
   53CHL1   C23 6387   6.740   3.237   8.194 -0.0888  0.9716  0.0421
   53CHL1  H23A 6388   6.819   3.269   8.123  2.0948 -0.6803  1.5883
   53CHL1  H23B 6389   6.691   3.143   8.159  1.5010  0.2128 -0.2033
   53CHL1   C24 6390   6.634   3.346   8.216 -0.0584  1.0324 -0.3108
   53CHL1  H24A 6391   6.560   3.290   8.278  0.0717  0.2477 -0.8524
   53CHL1  H24B 6392   6.666   3.435   8.274  0.6694 -0.8183  2.3235
   53CHL1   C25 6393   6.555   3.388   8.090 -0.0960  0.5813  0.5590
   53CHL1   H25 6394   6.640   3.430   8.032 -0.6626 -0.2298 -0.8862
   53CHL1   C26 6395   6.493   3.274   8.001 -0.6344 -0.5162 -0.1660
   53CHL1  H26A 6396   6.428   3.222   8.075 -0.3941  0.4422  0.7408
   53CHL1  H26B 6397   6.417   3.305   7.927 -1.8866 -2.8003  0.0795
   53CHL1  H26C 6398   6.569   3.209   7.953 -1.4428  0.2101 -2.5274
   53CHL1   C27 6399   6.459   3.506   8.111  0.3168  0.2744  0.2357
   53CHL1  H27A 6400   6.504   3.595   8.159  0.2898  0.0237  0.7282
   53CHL1  H27B 6401   6.416   3.544   8.016  1.0971  1.8366  0.4868
   53CHL1  H27C 6402   6.374   3.472   8.174 -0.5763 -0.6099 -1.3861
   54CHL1    C3 6403   6.605   4.070   9.421  0.9708 -0.0648  0.3112
   54CHL1    H3 6404   6.714   4.091   9.420  0.5207  2.6574  0.3297
   54CHL1    O3 6405   6.541   4.118   9.539 -0.0068 -0.0508 -0.3965
   54CHL1   H3' 6406   6.453   4.084   9.527  0.7944 -3.0647  1.2212
   54CHL1    C4 6407   6.540   4.142   9.302 -0.2273 -0.4544  0.3611
   54CHL1   H4A 6408   6.430   4.126   9.305 -0.3942  0.7099  2.3116
   54CHL1   H4B 6409   6.579   4.245   9.315 -1.1396 -0.1221  0.5654
   54CHL1    C5 6410   6.593   4.098   9.168 -0.0452  0.3348  0.3414
   54CHL1    C6 6411   6.653   4.182   9.080  0.4531 -0.0815 -0.1464
   54CHL1    H6 6412   6.652   4.291   9.093 -0.8289 -0.3291  2.3853
   54CHL1    C7 6413   6.702   4.131   8.948 -1.2729 -0.3460 -0.4481
   54CHL1   H7A 6414   6.665   4.196   8.866 -2.3389 -1.4202 -0.8497
   54CHL1   H7B 6415   6.812   4.141   8.939 -1.2866 -0.3094 -0.5695
   54CHL1    C8 6416   6.663   3.982   8.908 -0.4354 -0.0619  0.0408
   54CHL1    H8 6417   6.557   3.981   8.875 -0.6311 -1.3150  0.6462
   54CHL1   C14 6418   6.751   3.934   8.797  0.1234 -0.8293 -0.0906
   54CHL1   H14 6419   6.852   3.933   8.843 -0.7776  2.2396  2.3394
   54CHL1   C15 6420   6.783   4.032   8.679  0.3503  0.9540 -1.3088
   54CHL1  H15A 6421   6.685   4.076   8.651 -1.1045 -1.4390 -0.3077
   54CHL1  H15B 6422   6.852   4.112   8.713 -0.4225  0.4221  1.8697
   54CHL1   C16 6423   6.853   3.935   8.577  0.1646 -0.3166  0.1765
   54CHL1  H16A 6424   6.825   3.951   8.471  1.0643 -1.6142 -0.2775
   54CHL1  H16B 6425   6.961   3.957   8.589 -0.0367  0.5022  0.5505
   54CHL1   C17 6426   6.825   3.790   8.636 -0.5976 -0.3345 -0.2455
   54CHL1   H17 6427   6.918   3.757   8.688 -1.5103 -1.2998  0.8401
   54CHL1   C13 6428   6.713   3.802   8.740  0.1743 -0.0432  0.4027
   54CHL1   C18 6429   6.572   3.806   8.671 -0.6342  0.2159  0.3567
   54CHL1  H18A 6430   6.547   3.708   8.624  0.1157 -0.8430  2.0841
   54CHL1  H18B 6431   6.500   3.824   8.754 -1.5396 -2.0446  0.1152
   54CHL1  H18C 6432   6.567   3.885   8.592  1.8140  0.0222 -0.0845
   54CHL1   C12 6433   6.725   3.705   8.855 -0.1276  0.0782 -0.1895
   54CHL1  H12A 6434   6.707   3.603   8.816  1.8042  0.2528 -1.7403
   54CHL1  H12B 6435   6.833   3.704   8.882 -0.0791 -1.7040 -0.3614
   54CHL1   C11 6436   6.658   3.741   8.988  0.3127 -0.1045  0.5379
   54CHL1  H11A 6437   6.551   3.715   8.973  0.9009 -2.0012 -0.8568
   54CHL1  H11B 6438   6.706   3.679   9.067 -0.3979 -4.5301 -2.1064
   54CHL1    C9 6439   6.672   3.891   9.023  0.5354 -0.7877  0.0665
   54CHL1    H9 6440   6.775   3.903   9.063  1.6455  0.2099 -2.8363
   54CHL1   C10 6441   6.586   3.941   9.144 -0.4876  1.1063  0.3879
   54CHL1   C19 6442   6.439   3.927   9.101 -0.4541 -0.2338  0.0352
   54CHL1  H19A 6443   6.363   3.968   9.172 -3.4094 -0.1100 -2.9502
   54CHL1  H19B 6444   6.425   3.991   9.011 -0.6265  0.4068  0.5081
   54CHL1  H19C 6445   6.406   3.823   9.081 -1.8215  0.1287  0.3280
   54CHL1    C1 6446   6.624   3.859   9.274  0.8299 -0.3332  0.5450
   54CHL1   H1A 6447   6.579   3.758   9.257  1.0939 -0.3816  0.1063
   54CHL1   H1B 6448   6.734   3.847   9.276  1.3047  2.5236 -2.0899
   54CHL1    C2 6449   6.570   3.921   9.412 -0.2463 -0.1425  0.4034
   54CHL1   H2A 6450   6.621   3.881   9.503 -0.6857 -1.1469  0.2235
   54CHL1   H2B 6451   6.460   3.907   9.425 -0.6044  1.5338 -0.5775
   54CHL1   C20 6452   6.802   3.690   8.516  0.2870  0.2686 -0.4640
   54CHL1   H20 6453   6.706   3.721   8.468 -0.0300 -0.7783 -0.5359
   54CHL1   C21 6454   6.796   3.544   8.572  0.4246  0.1542  0.0691
   54CHL1  H21A 6455   6.816   3.474   8.488  1.1542 -0.6302  0.8780
   54CHL1  H21B 6456   6.691   3.538   8.605  0.4861 -0.3214  0.1744
   54CHL1  H21C 6457   6.864   3.529   8.659 -0.2569 -0.4202  0.5117
   54CHL1   C22 6458   6.918   3.702   8.404  0.2058  0.4483  0.4310
   54CHL1  H22A 6459   6.918   3.810   8.375 -0.5229  0.1058 -0.9423
   54CHL1  H22B 6460   7.017   3.668   8.440 -0.2038  0.1177  1.2884
   54CHL1   C23 6461   6.886   3.627   8.268  0.2963  1.0704  0.0037
   54CHL1  H23A 6462   6.859   3.523   8.293 -0.3570  1.1776 -0.2318
   54CHL1  H23B 6463   6.804   3.671   8.207 -1.1988 -1.5767 -0.0244
   54CHL1   C24 6464   7.021   3.620   8.174 -0.6238 -0.2058  0.2723
   54CHL1  H24A 6465   7.048   3.723   8.143  1.4800 -1.2049 -1.5503
   54CHL1  H24B 6466   7.102   3.571   8.234  0.2214 -0.6991 -1.2075
   54CHL1   C25 6467   7.000   3.518   8.056  0.2446  0.0257 -0.2878
   54CHL1   H25 6468   6.961   3.422   8.095 -1.2007  0.2799 -1.0060
   54CHL1   C26 6469   6.892   3.559   7.957  0.1544 -0.5003 -0.5222
   54CHL1  H26A 6470   6.801   3.604   8.004 -0.0538 -0.3895 -1.0267
   54CHL1  H26B 6471   6.924   3.644   7.893 -2.0019  1.6384  1.0503
   54CHL1  H26C 6472   6.873   3.477   7.884  1.7474  0.6151 -2.2848
   54CHL1   C27 6473   7.132   3.462   8.002  0.0232  0.6437 -0.1558
   54CHL1  H27A 6474   7.114   3.402   7.910 -1.0823 -1.6137  1.4386
   54CHL1  H27B 6475   7.206   3.536   7.965 -0.1822  0.7897 -0.2763
   54CHL1  H27C 6476   7.177   3.401   8.083  0.0736  0.4332 -0.3436
   55CHL1    C3 6477   1.364   3.101   9.260 -0.0952  0.8005  0.6521
   55CHL1    H3 6478   1.268   3.110   9.315 -0.2498 -0.8347  0.7060
   55CHL1    O3 6479   1.457   3.139   9.354  0.4178 -0.1274  0.5970
   55CHL1   H3' 6480   1.526   3.072   9.347  1.9958  1.2020  2.2835
   55CHL1    C4 6481   1.392   2.956   9.217  0.6540 -0.0701  0.6860
   55CHL1   H4A 6482   1.491   2.961   9.166  1.3288 -0.3187  1.9019
   55CHL1   H4B 6483   1.410   2.887   9.303  2.7439  0.3663  0.6501
   55CHL1    C5 6484   1.279   2.911   9.120 -0.5203 -0.4418  0.2584
   55CHL1    C6 6485   1.194   2.814   9.155 -0.0635 -0.1633  0.0208
   55CHL1    H6 6486   1.207   2.767   9.254  2.1410  0.4662  0.0762
   55CHL1    C7 6487   1.074   2.763   9.073 -0.8173 -0.1576 -0.2200
   55CHL1   H7A 6488   1.083   2.652   9.075  0.7488 -0.4367 -5.5364
   55CHL1   H7B 6489   0.973   2.775   9.116 -1.2825  2.8114 -1.8968
   55CHL1    C8 6490   1.077   2.814   8.925 -0.3501 -0.5206  0.0692
   55CHL1    H8 6491   1.166   2.773   8.874  0.4830  1.1216  0.1366
   55CHL1   C14 6492   0.956   2.772   8.843 -0.1837  1.4496 -0.0739
   55CHL1   H14 6493   0.867   2.799   8.905 -1.3388  0.9347 -1.4460
   55CHL1   C15 6494   0.929   2.617   8.814  0.1505 -0.2870  0.7022
   55CHL1  H15A 6495   1.022   2.560   8.793 -0.3593 -0.1316 -2.5740
   55CHL1  H15B 6496   0.876   2.566   8.898 -0.8157 -1.7433 -0.7239
   55CHL1   C16 6497   0.835   2.614   8.686 -0.2977 -0.1106  0.0916
   55CHL1  H16A 6498   0.889   2.551   8.612  1.8413 -1.2278  2.4577
   55CHL1  H16B 6499   0.733   2.570   8.699  0.2087 -1.7345 -1.0906
   55CHL1   C17 6500   0.818   2.765   8.647 -0.4244 -0.0725 -0.5316
   55CHL1   H17 6501   0.733   2.789   8.714 -0.0703  1.1717 -0.5022
   55CHL1   C13 6502   0.944   2.845   8.704  0.6597  0.5093  0.9530
   55CHL1   C18 6503   1.060   2.811   8.610 -0.4919 -0.3785  0.4891
   55CHL1  H18A 6504   1.060   2.704   8.580  2.0730  0.3589 -2.7738
   55CHL1  H18B 6505   1.071   2.878   8.522  1.6342  0.8158  1.5916
   55CHL1  H18C 6506   1.156   2.824   8.665 -1.1089  0.5123  1.3777
   55CHL1   C12 6507   0.937   2.995   8.744  0.6523 -0.0000 -0.1986
   55CHL1  H12A 6508   0.909   3.059   8.658  1.3470  0.4350 -0.1035
   55CHL1  H12B 6509   0.852   2.994   8.816 -0.2206 -2.9782 -1.1159
   55CHL1   C11 6510   1.063   3.049   8.814 -0.2199 -0.6374 -0.2329
   55CHL1  H11A 6511   1.145   3.032   8.742  1.7864 -2.7486  2.3225
   55CHL1  H11B 6512   1.045   3.154   8.848 -1.3994 -0.5752 -1.0003
   55CHL1    C9 6513   1.105   2.968   8.940  0.8989 -0.6345 -0.0807
   55CHL1    H9 6514   1.036   3.000   9.021  2.6992  2.2782  0.4432
   55CHL1   C10 6515   1.245   3.004   8.999  0.2557 -0.6477 -0.0824
   55CHL1   C19 6516   1.355   2.985   8.890  0.0704  0.1680  0.0062
   55CHL1  H19A 6517   1.358   3.070   8.819  3.1143 -0.4369 -0.7015
   55CHL1  H19B 6518   1.454   2.982   8.942  1.4527 -2.1972 -2.5176
   55CHL1  H19C 6519   1.339   2.891   8.833 -2.9558 -0.0151  0.9632
   55CHL1    C1 6520   1.250   3.151   9.045  0.4478 -1.2725 -0.0314
   55CHL1   H1A 6521   1.257   3.227   8.964  1.2081 -0.4276  0.8095
   55CHL1   H1B 6522   1.161   3.171   9.108 -0.3726 -3.1735 -0.5009
   55CHL1    C2 6523   1.367   3.190   9.144  0.0608 -0.3248  0.1823
   55CHL1   H2A 6524   1.353   3.297   9.170 -2.9617 -1.1648  2.5635
   55CHL1   H2B 6525   1.464   3.193   9.090 -0.4811  0.4679 -0.7866
   55CHL1   C20 6526   0.780   2.793   8.503  0.9153 -0.8153 -0.1205
   55CHL1   H20 6527   0.865   2.844   8.452  2.4500 -1.8222  1.3200
   55CHL1   C21 6528   0.668   2.911   8.519  0.1180 -0.0882  0.0089
   55CHL1  H21A 6529   0.648   2.959   8.421  0.4284  0.2775  0.1237
   55CHL1  H21B 6530   0.703   2.978   8.600  0.2524  1.1859 -1.0775
   55CHL1  H21C 6531   0.571   2.868   8.551  0.5537 -1.3766 -0.3130
   55CHL1   C22 6532   0.740   2.677   8.414  0.3206  0.3441  1.1827
   55CHL1  H22A 6533   0.825   2.606   8.407  2.1100  2.4933 -0.1218
   55CHL1  H22B 6534   0.658   2.618   8.460  1.2881 -0.7478  1.5368
   55CHL1   C23 6535   0.709   2.713   8.270 -0.6683 -0.6189  0.2730
   55CHL1  H23A 6536   0.639   2.800   8.273  2.5849  2.2276  0.7473
   55CHL1  H23B 6537   0.801   2.754   8.222 -0.1885 -0.7870  1.0159
   55CHL1   C24 6538   0.648   2.597   8.187 -0.1469 -0.5080  0.1935
   55CHL1  H24A 6539   0.702   2.501   8.201 -1.1567 -1.1262 -0.1087
   55CHL1  H24B 6540   0.544   2.589   8.227 -0.7561  3.0821 -0.3057
   55CHL1   C25 6541   0.646   2.623   8.034 -0.4743 -0.0361  0.3811
   55CHL1   H25 6542   0.619   2.729   8.015 -0.6525 -0.3593 -1.3295
   55CHL1   C26 6543   0.795   2.597   7.989  0.8580  0.3336 -0.1382
   55CHL1  H26A 6544   0.796   2.605   7.879 -0.2481 -0.6267 -0.2323
   55CHL1  H26B 6545   0.866   2.666   8.039 -0.2692  0.6117  1.1447
   55CHL1  H26C 6546   0.813   2.490   8.012 -0.1765  0.2608  0.4006
   55CHL1   C27 6547   0.560   2.527   7.967 -0.0367 -0.3706  0.0878
   55CHL1  H27A 6548   0.582   2.423   8.000 -1.7265 -0.5958  0.5667
   55CHL1  H27B 6549   0.456   2.551   7.997  0.5982 -0.3367  2.4376
   55CHL1  H27C 6550   0.569   2.550   7.858 -1.7138  2.6048  0.4762
   56CHL1    C3 6551   4.470   0.886   9.087 -0.0369  0.9250  0.1929
   56CHL1    H3 6552   4.377   0.825   9.079  0.2336  0.1883  2.1678
   56CHL1    O3 6553   4.496   0.931   9.216 -0.1252 -0.5657  0.6225
   56CHL1   H3' 6554   4.589   0.915   9.231 -0.3928 -2.6701  0.3618
   56CHL1    C4 6555   4.590   0.788   9.068 -0.5198  0.2955  0.3610
   56CHL1   H4A 6556   4.673   0.861   9.078  1.0333 -0.8114 -2.8918
   56CHL1   H4B 6557   4.576   0.719   9.154 -1.2350  0.2693  0.2264
   56CHL1    C5 6558   4.596   0.736   8.927  0.5626 -0.2465 -0.6031
   56CHL1    C6 6559   4.611   0.604   8.913  0.6232  0.3749  0.8070
   56CHL1    H6 6560   4.619   0.546   9.007  0.4188 -0.5252  0.2768
   56CHL1    C7 6561   4.631   0.538   8.778  0.7338  0.4087 -0.1758
   56CHL1   H7A 6562   4.717   0.469   8.794 -1.6449 -2.4928  0.7823
   56CHL1   H7B 6563   4.538   0.487   8.747  0.9393 -0.3726  0.4716
   56CHL1    C8 6564   4.661   0.639   8.664  0.0415 -0.2249 -0.7626
   56CHL1    H8 6565   4.769   0.660   8.683 -0.4626  0.3296  1.8667
   56CHL1   C14 6566   4.650   0.586   8.520  0.1361  0.2435  0.4589
   56CHL1   H14 6567   4.541   0.569   8.512  0.0541  1.0337 -0.2392
   56CHL1   C15 6568   4.728   0.461   8.496  0.2794  0.3447  0.6348
   56CHL1  H15A 6569   4.835   0.465   8.523  0.6558  0.2105 -0.7492
   56CHL1  H15B 6570   4.674   0.379   8.548 -0.9382  0.4357 -0.4381
   56CHL1   C16 6571   4.709   0.438   8.344 -0.4587 -0.3195  0.1988
   56CHL1  H16A 6572   4.811   0.415   8.307 -1.0175 -0.8250 -1.0445
   56CHL1  H16B 6573   4.643   0.356   8.310  1.9887 -2.0389 -0.6843
   56CHL1   C17 6574   4.654   0.574   8.293 -0.0219 -0.6109  0.2425
   56CHL1   H17 6575   4.547   0.547   8.280  0.0317 -0.4909 -0.5449
   56CHL1   C13 6576   4.683   0.677   8.407  0.6241 -0.0385  1.5744
   56CHL1   C18 6577   4.826   0.723   8.410  0.7477 -0.7135 -0.0521
   56CHL1  H18A 6578   4.840   0.774   8.508  1.4381 -0.2876 -0.3665
   56CHL1  H18B 6579   4.900   0.640   8.400  2.5182  0.7183  0.6944
   56CHL1  H18C 6580   4.852   0.792   8.328  3.4232 -1.1213  0.3530
   56CHL1   C12 6581   4.587   0.800   8.411  0.4886 -0.0707 -0.0120
   56CHL1  H12A 6582   4.603   0.880   8.336 -0.0643 -0.7563 -0.8803
   56CHL1  H12B 6583   4.488   0.754   8.393  0.2310  0.4082  0.1573
   56CHL1   C11 6584   4.595   0.868   8.550  0.1244 -0.2097 -0.3028
   56CHL1  H11A 6585   4.691   0.923   8.548 -0.3975  0.7973  1.0807
   56CHL1  H11B 6586   4.516   0.946   8.558  1.7773  1.4800  0.0995
   56CHL1    C9 6587   4.584   0.769   8.676  0.0314 -1.3261  0.4456
   56CHL1    H9 6588   4.475   0.745   8.676 -0.7478  1.7223 -1.1329
   56CHL1   C10 6589   4.596   0.836   8.810  0.0851 -0.7447 -0.8819
   56CHL1   C19 6590   4.737   0.901   8.811  0.2470  0.4378 -0.9472
   56CHL1  H19A 6591   4.738   0.985   8.739 -0.5798  1.1292 -0.1743
   56CHL1  H19B 6592   4.752   0.942   8.913 -0.4685  0.3216 -0.7949
   56CHL1  H19C 6593   4.816   0.829   8.781  1.1328  1.4127 -1.0131
   56CHL1    C1 6594   4.486   0.939   8.833 -0.0878 -0.2948 -0.5987
   56CHL1   H1A 6595   4.504   1.027   8.768 -0.7661  0.3594  0.0859
   56CHL1   H1B 6596   4.387   0.891   8.817  0.0450 -1.2118  1.0797
   56CHL1    C2 6597   4.479   0.999   8.979  0.2540 -0.1159 -0.2808
   56CHL1   H2A 6598   4.403   1.075   9.008  0.5274  0.9084 -2.1034
   56CHL1   H2B 6599   4.573   1.057   8.987  0.8457 -0.8996 -1.3304
   56CHL1   C20 6600   4.704   0.602   8.146  0.2345 -0.1488 -0.1434
   56CHL1   H20 6601   4.813   0.622   8.153  0.4603 -1.7286  1.3373
   56CHL1   C21 6602   4.645   0.735   8.106  0.3407 -0.0594  0.4051
   56CHL1  H21A 6603   4.673   0.762   8.002 -3.3197 -1.2118 -1.0216
   56CHL1  H21B 6604   4.683   0.822   8.164  2.8479 -1.0805  0.4099
   56CHL1  H21C 6605   4.534   0.736   8.102  0.3371 -0.5338  0.3988
   56CHL1   C22 6606   4.680   0.487   8.050  0.0641  0.1141 -0.5134
   56CHL1  H22A 6607   4.730   0.392   8.079 -0.0476 -0.5208 -2.2654
   56CHL1  H22B 6608   4.572   0.464   8.048  0.6178 -2.9301 -0.9333
   56CHL1   C23 6609   4.722   0.511   7.902  0.1215  0.4328  0.1315
   56CHL1  H23A 6610   4.663   0.598   7.868 -0.5211 -0.6205 -1.5856
   56CHL1  H23B 6611   4.832   0.525   7.891  0.6508 -2.5550  0.5874
   56CHL1   C24 6612   4.696   0.394   7.806  0.5177  0.4860 -0.3986
   56CHL1  H24A 6613   4.763   0.307   7.822 -0.4678 -0.7337 -2.4167
   56CHL1  H24B 6614   4.593   0.362   7.830  0.7334  0.8943  1.1857
   56CHL1   C25 6615   4.693   0.418   7.654 -0.3314 -0.4144  0.5363
   56CHL1   H25 6616   4.792   0.429   7.606 -0.1303  2.2730  1.3762
   56CHL1   C26 6617   4.623   0.305   7.578 -0.3129 -0.4602  0.4061
   56CHL1  H26A 6618   4.700   0.226   7.596 -0.0751 -0.4461 -0.5054
   56CHL1  H26B 6619   4.527   0.271   7.622 -0.1008 -0.5666  0.8037
   56CHL1  H26C 6620   4.614   0.333   7.471  2.6360 -1.3432 -0.1617
   56CHL1   C27 6621   4.620   0.545   7.612  0.0638 -0.6161 -0.7297
   56CHL1  H27A 6622   4.608   0.543   7.501 -0.3434 -3.5597 -0.7046
   56CHL1  H27B 6623   4.520   0.549   7.659  1.2435 -1.6817  2.0586
   56CHL1  H27C 6624   4.679   0.635   7.640  0.1820 -1.4074  1.7447
   57CHL1    C3 6625   0.948   4.178   9.407 -0.1176  0.8825 -1.1642
   57CHL1    H3 6626   0.969   4.075   9.440  1.2355  0.6403 -2.6509
   57CHL1    O3 6627   0.880   4.252   9.511 -0.1015 -0.6081  0.5140
   57CHL1   H3' 6628   0.883   4.344   9.482 -0.4354 -0.1652  1.8014
   57CHL1    C4 6629   1.077   4.255   9.363 -0.1314 -0.0411 -0.4253
   57CHL1   H4A 6630   1.058   4.363   9.342  0.4402 -0.1198 -1.4003
   57CHL1   H4B 6631   1.135   4.255   9.457  0.2595 -1.3346 -0.6535
   57CHL1    C5 6632   1.142   4.174   9.252 -0.8354 -0.5167  0.4242
   57CHL1    C6 6633   1.266   4.127   9.270 -0.1733 -0.3597  0.6083
   57CHL1    H6 6634   1.324   4.153   9.361  1.0780 -0.8218 -0.0265
   57CHL1    C7 6635   1.337   4.053   9.160 -0.2290 -0.4360 -0.1355
   57CHL1   H7A 6636   1.443   4.088   9.159 -0.5664  0.8454 -3.3195
   57CHL1   H7B 6637   1.336   3.944   9.182 -1.7124 -0.2265  0.9284
   57CHL1    C8 6638   1.275   4.063   9.022  0.1080  0.2674 -0.4544
   57CHL1    H8 6639   1.300   4.162   8.980 -1.5734  0.3530 -1.3128
   57CHL1   C14 6640   1.345   3.962   8.926  0.2190 -0.6537 -0.8268
   57CHL1   H14 6641   1.302   3.866   8.958  1.1317 -0.5897  0.6838
   57CHL1   C15 6642   1.498   3.954   8.917  0.1238 -0.1892 -0.5400
   57CHL1  H15A 6643   1.550   4.051   8.930  0.5821 -0.4795 -0.2007
   57CHL1  H15B 6644   1.527   3.876   8.991 -2.2056 -2.9400 -2.2881
   57CHL1   C16 6645   1.517   3.880   8.781 -0.2294  0.3874  1.1119
   57CHL1  H16A 6646   1.565   3.950   8.710 -0.4088 -0.8966 -0.3332
   57CHL1  H16B 6647   1.581   3.791   8.794 -0.4214  0.1129  0.2588
   57CHL1   C17 6648   1.377   3.865   8.718  0.2199  0.7788 -0.6926
   57CHL1   H17 6649   1.323   3.771   8.740  0.3096  0.3449 -2.1737
   57CHL1   C13 6650   1.282   3.966   8.788  0.5916  0.6249 -0.3810
   57CHL1   C18 6651   1.318   4.106   8.729 -0.7594 -0.1401 -0.1091
   57CHL1  H18A 6652   1.293   4.108   8.620 -1.8862  1.7800  0.1407
   57CHL1  H18B 6653   1.255   4.184   8.777 -1.2848 -1.4243  1.3482
   57CHL1  H18C 6654   1.426   4.130   8.730 -0.2558 -1.9787 -2.0870
   57CHL1   C12 6655   1.129   3.943   8.791 -0.3211  0.6829  1.0698
   57CHL1  H12A 6656   1.096   3.964   8.687  2.5502 -0.1602 -0.0990
   57CHL1  H12B 6657   1.117   3.837   8.824  1.5716  0.0329 -0.1731
   57CHL1   C11 6658   1.055   4.039   8.887  0.0599  0.1975 -0.3945
   57CHL1  H11A 6659   1.053   4.139   8.838  1.1547  1.1698  1.4492
   57CHL1  H11B 6660   0.946   4.016   8.896  0.0394 -0.1550 -1.3821
   57CHL1    C9 6661   1.123   4.047   9.026 -0.4703  0.4673  0.1458
   57CHL1    H9 6662   1.116   3.943   9.065  2.7946 -0.0310 -0.3133
   57CHL1   C10 6663   1.052   4.141   9.130  0.9142  0.0250  0.5430
   57CHL1   C19 6664   1.025   4.277   9.058 -0.0209  0.0385 -0.5679
   57CHL1  H19A 6665   1.013   4.358   9.133  0.2290 -1.2504  0.9142
   57CHL1  H19B 6666   1.107   4.306   8.988 -0.3906  1.0615 -0.5963
   57CHL1  H19C 6667   0.932   4.271   8.998  0.5627 -0.4128 -1.4453
   57CHL1    C1 6668   0.911   4.072   9.176 -0.2112 -0.0973 -1.1927
   57CHL1   H1A 6669   0.842   4.068   9.088  0.0667  0.2019 -1.4294
   57CHL1   H1B 6670   0.926   3.971   9.220 -0.3502 -0.7500 -2.5619
   57CHL1    C2 6671   0.852   4.158   9.286  0.1622 -0.1268  0.2549
   57CHL1   H2A 6672   0.763   4.114   9.335  1.0472 -2.0861  0.2087
   57CHL1   H2B 6673   0.824   4.259   9.250  0.8185  0.5759  1.6216
   57CHL1   C20 6674   1.374   3.863   8.566  0.3301  0.7843  0.1717
   57CHL1   H20 6675   1.383   3.963   8.519 -0.7469  2.0839  2.5173
   57CHL1   C21 6676   1.241   3.808   8.516 -0.4047  0.0443 -0.1061
   57CHL1  H21A 6677   1.192   3.732   8.579  0.4588 -0.5343 -0.1183
   57CHL1  H21B 6678   1.249   3.773   8.411 -0.0260  0.5855 -0.2623
   57CHL1  H21C 6679   1.168   3.892   8.518  1.2508  1.5464  0.4137
   57CHL1   C22 6680   1.496   3.773   8.520  0.2282  0.3944  0.4897
   57CHL1  H22A 6681   1.588   3.831   8.543  0.5886 -0.2606  0.7574
   57CHL1  H22B 6682   1.506   3.678   8.578  1.4408 -0.2117 -0.6576
   57CHL1   C23 6683   1.498   3.736   8.367  0.1807  0.5124  0.3875
   57CHL1  H23A 6684   1.419   3.658   8.360  1.9580 -1.9512  4.0687
   57CHL1  H23B 6685   1.468   3.822   8.304 -1.5297 -1.0167 -0.9909
   57CHL1   C24 6686   1.632   3.679   8.320  0.2666  0.8540 -0.3590
   57CHL1  H24A 6687   1.714   3.753   8.307  0.0445  1.1094 -0.3171
   57CHL1  H24B 6688   1.670   3.608   8.396 -2.3850 -0.9767 -0.6126
   57CHL1   C25 6689   1.631   3.602   8.188  0.3462  0.2977  0.9685
   57CHL1   H25 6690   1.556   3.519   8.186 -1.7718  2.1185  0.7980
   57CHL1   C26 6691   1.610   3.681   8.061  0.0202  0.2708  0.0614
   57CHL1  H26A 6692   1.682   3.765   8.063 -0.0501  0.3362 -0.1400
   57CHL1  H26B 6693   1.646   3.629   7.970  3.6261  3.7556 -0.7784
   57CHL1  H26C 6694   1.504   3.716   8.060 -0.3699 -0.8509  0.5545
   57CHL1   C27 6695   1.776   3.536   8.173  0.1375  0.5133  1.0195
   57CHL1  H27A 6696   1.802   3.474   8.261  1.9313  1.2268  1.0289
   57CHL1  H27B 6697   1.775   3.471   8.082  1.5919  2.0409 -0.1526
   57CHL1  H27C 6698   1.859   3.606   8.149  0.3812  0.0496  0.4708
   58CHL1    C3 6699   2.286   0.787   9.690  0.0700 -0.3075  0.1148
   58CHL1    H3 6700   2.371   0.858   9.693 -0.8684  0.8157  2.9955
   58CHL1    O3 6701   2.265   0.747   9.825  0.1216 -0.1430 -0.0850
   58CHL1   H3' 6702   2.340   0.688   9.840  1.1780  1.2628  0.3229
   58CHL1    C4 6703   2.163   0.875   9.656 -0.3209  0.4250 -0.1078
   58CHL1   H4A 6704   2.070   0.823   9.686 -0.5154  1.0449  0.3955
   58CHL1   H4B 6705   2.172   0.970   9.714  2.5164 -0.7363  1.5283
   58CHL1    C5 6706   2.141   0.902   9.507 -0.6327  0.2764  0.2615
   58CHL1    C6 6707   2.123   1.032   9.469 -0.0241  1.1055 -0.7793
   58CHL1    H6 6708   2.122   1.112   9.544  2.7744  0.3561  0.2031
   58CHL1    C7 6709   2.104   1.076   9.331 -0.0004  0.6190  0.1393
   58CHL1   H7A 6710   2.020   1.146   9.312 -1.1101 -0.9018 -0.7446
   58CHL1   H7B 6711   2.195   1.129   9.297  0.3870  1.1433  1.8758
   58CHL1    C8 6712   2.078   0.954   9.234 -0.3086  0.0324 -0.2606
   58CHL1    H8 6713   1.973   0.920   9.248  0.1164 -0.5754  1.7433
   58CHL1   C14 6714   2.096   0.999   9.088  0.7434 -0.4306  0.2556
   58CHL1   H14 6715   2.202   1.033   9.080  0.9711 -1.3511 -1.0440
   58CHL1   C15 6716   2.008   1.120   9.043  0.0243 -0.3258  0.5640
   58CHL1  H15A 6717   1.905   1.104   9.082  0.8401 -1.4076  2.3795
   58CHL1  H15B 6718   2.044   1.220   9.076 -0.6233  0.3122 -0.5768
   58CHL1   C16 6719   2.011   1.110   8.885 -0.1301 -0.6345 -0.7702
   58CHL1  H16A 6720   1.907   1.116   8.844  0.1723 -0.7151 -1.5764
   58CHL1  H16B 6721   2.071   1.193   8.841 -1.5583  0.2326 -1.1568
   58CHL1   C17 6722   2.085   0.969   8.852  0.7507 -0.1799  0.1305
   58CHL1   H17 6723   2.193   0.995   8.849  0.5428  0.7355  0.2542
   58CHL1   C13 6724   2.071   0.887   8.986  0.3115 -0.1401  0.1783
   58CHL1   C18 6725   1.922   0.835   8.989  0.3300  0.5669 -0.3982
   58CHL1  H18A 6726   1.884   0.762   8.914 -0.8217 -0.6328  1.2791
   58CHL1  H18B 6727   1.912   0.783   9.087  0.6146  1.9714  0.4038
   58CHL1  H18C 6728   1.843   0.914   8.992 -0.0047  0.2320 -0.3205
   58CHL1   C12 6729   2.174   0.778   9.016 -0.2384  0.2134  0.6413
   58CHL1  H12A 6730   2.166   0.685   8.956 -0.7498  0.9456 -0.4664
   58CHL1  H12B 6731   2.275   0.824   9.007 -0.2912  0.2263  0.0075
   58CHL1   C11 6732   2.167   0.724   9.155 -0.4423 -0.1908 -0.1923
   58CHL1  H11A 6733   2.083   0.655   9.174  0.1665 -1.1987 -1.0601
   58CHL1  H11B 6734   2.257   0.660   9.170 -1.1988 -1.5255 -1.2334
   58CHL1    C9 6735   2.168   0.832   9.263 -0.3941 -0.1252 -0.4930
   58CHL1    H9 6736   2.272   0.871   9.258 -0.4116  0.5845  2.6105
   58CHL1   C10 6737   2.156   0.779   9.413 -0.7354  0.3494 -0.6911
   58CHL1   C19 6738   2.031   0.683   9.423 -0.8066  0.8039  0.3945
   58CHL1  H19A 6739   2.020   0.654   9.529 -0.1406 -1.1590 -0.0234
   58CHL1  H19B 6740   1.935   0.721   9.382 -1.3601  0.1056  1.0139
   58CHL1  H19C 6741   2.054   0.590   9.367 -1.1314  1.7409 -1.3696
   58CHL1    C1 6742   2.287   0.703   9.456  0.5285 -0.1876  0.8869
   58CHL1   H1A 6743   2.299   0.607   9.401  2.1207 -0.5648  1.8595
   58CHL1   H1B 6744   2.377   0.764   9.432 -0.2662  0.1905 -1.4964
   58CHL1    C2 6745   2.304   0.668   9.609  0.2798 -0.3699  0.0997
   58CHL1   H2A 6746   2.405   0.627   9.634  1.2815  0.6985 -1.9115
   58CHL1   H2B 6747   2.220   0.598   9.625  0.7650 -1.3115 -1.2548
   58CHL1   C20 6748   2.037   0.903   8.718  0.0518  0.0619 -0.1385
   58CHL1   H20 6749   1.956   0.832   8.745  1.1519 -1.1960 -0.0153
   58CHL1   C21 6750   2.158   0.809   8.680 -0.0869 -0.2365 -0.1070
   58CHL1  H21A 6751   2.254   0.864   8.667 -0.7345  1.1735  0.8089
   58CHL1  H21B 6752   2.131   0.763   8.583  1.8131  0.7850 -1.1812
   58CHL1  H21C 6753   2.160   0.724   8.752  0.4707  0.7559  1.0834
   58CHL1   C22 6754   1.990   0.997   8.608 -0.4761  0.4302 -0.5513
   58CHL1  H22A 6755   1.997   1.105   8.634 -0.5096  0.2823  0.0960
   58CHL1  H22B 6756   2.056   0.993   8.519 -0.0516 -2.8672 -0.1957
   58CHL1   C23 6757   1.844   0.960   8.570 -0.2744 -0.1416  0.6632
   58CHL1  H23A 6758   1.851   0.852   8.544 -0.5301 -0.5839  2.2993
   58CHL1  H23B 6759   1.774   0.978   8.655 -0.9605  1.7497 -0.2537
   58CHL1   C24 6760   1.788   1.039   8.451 -0.1914  0.3108 -0.4010
   58CHL1  H24A 6761   1.688   1.078   8.480 -0.8567 -1.8570  0.3973
   58CHL1  H24B 6762   1.854   1.127   8.436  1.7638 -1.3260 -2.2254
   58CHL1   C25 6763   1.768   0.958   8.315  0.3248  0.3325 -0.2710
   58CHL1   H25 6764   1.708   0.866   8.331  2.6705 -1.2855 -0.1476
   58CHL1   C26 6765   1.700   1.053   8.215 -0.1557  0.4107 -0.1554
   58CHL1  H26A 6766   1.759   1.146   8.200  0.5123  0.1693  0.8721
   58CHL1  H26B 6767   1.696   0.997   8.119  0.0070  2.2525 -1.2783
   58CHL1  H26C 6768   1.596   1.079   8.244 -0.9887 -1.0200 -1.6151
   58CHL1   C27 6769   1.905   0.917   8.261 -0.4811 -0.0911 -0.1131
   58CHL1  H27A 6770   1.892   0.868   8.162 -1.5860  2.7612 -1.5107
   58CHL1  H27B 6771   1.979   1.000   8.252  2.2627 -2.2199  1.4628
   58CHL1  H27C 6772   1.949   0.837   8.323  1.2899  0.2815 -0.8161
   59CHL1    C3 6773   3.198   0.493   9.588  0.1283  0.3220  0.1139
   59CHL1    H3 6774   3.144   0.573   9.535  1.0579 -1.7446 -4.4488
   59CHL1    O3 6775   3.207   0.512   9.729 -0.1065  0.4115  0.4242
   59CHL1   H3' 6776   3.273   0.450   9.761 -0.3842  1.0415  2.3222
   59CHL1    C4 6777   3.138   0.353   9.562 -0.0648 -0.4465 -0.6125
   59CHL1   H4A 6778   3.214   0.282   9.601 -0.1716  0.1344  0.7048
   59CHL1   H4B 6779   3.040   0.334   9.610  0.9935 -1.3107  1.3035
   59CHL1    C5 6780   3.133   0.328   9.414  0.1217 -0.0660  1.1081
   59CHL1    C6 6781   3.019   0.307   9.351 -0.4104  0.9226 -0.1532
   59CHL1    H6 6782   2.930   0.287   9.414  1.3134  0.6448  2.3441
   59CHL1    C7 6783   2.999   0.295   9.206  0.5907 -0.3757 -0.5338
   59CHL1   H7A 6784   2.924   0.216   9.183 -0.1326 -1.0854  3.4065
   59CHL1   H7B 6785   2.971   0.397   9.171  0.8493 -0.4281 -0.8910
   59CHL1    C8 6786   3.133   0.264   9.131 -0.0826 -0.1282  0.0725
   59CHL1    H8 6787   3.157   0.157   9.148  0.1379  0.3534  3.5905
   59CHL1   C14 6788   3.110   0.296   8.985 -0.1014  0.2687 -0.0828
   59CHL1   H14 6789   3.083   0.403   8.982 -1.6243 -0.0593  1.1720
   59CHL1   C15 6790   2.999   0.221   8.912  1.1677 -0.2313 -0.6122
   59CHL1  H15A 6791   2.990   0.112   8.932 -0.3686  0.0209  0.2405
   59CHL1  H15B 6792   2.907   0.266   8.955  1.7158 -0.5774  0.9571
   59CHL1   C16 6793   3.021   0.244   8.762 -0.1421  0.1655  0.0925
   59CHL1  H16A 6794   2.997   0.156   8.699  0.6744  0.3711 -0.5278
   59CHL1  H16B 6795   2.963   0.327   8.718 -2.3022 -1.2824  0.0624
   59CHL1   C17 6796   3.169   0.293   8.751  0.1918 -0.2252 -1.1365
   59CHL1   H17 6797   3.168   0.403   8.736  1.3668  0.2633  1.6911
   59CHL1   C13 6798   3.230   0.281   8.898  0.1921 -0.0932  0.2192
   59CHL1   C18 6799   3.281   0.137   8.903  0.0052 -0.3091 -0.2497
   59CHL1  H18A 6800   3.387   0.128   8.870  0.0669 -0.6612  0.0495
   59CHL1  H18B 6801   3.277   0.088   9.002  2.7579 -1.9353 -0.8290
   59CHL1  H18C 6802   3.218   0.080   8.831 -1.5755  1.4480 -0.3179
   59CHL1   C12 6803   3.339   0.382   8.940 -0.2154 -0.3693  0.2304
   59CHL1  H12A 6804   3.433   0.364   8.885 -0.0384  0.9024  0.0808
   59CHL1  H12B 6805   3.306   0.487   8.925  0.0574  0.0010  1.9550
   59CHL1   C11 6806   3.369   0.362   9.090 -0.0603 -0.3940  0.0136
   59CHL1  H11A 6807   3.416   0.262   9.103 -2.1339 -1.4595 -0.1482
   59CHL1  H11B 6808   3.436   0.446   9.117 -0.3908  0.3568 -1.3579
   59CHL1    C9 6809   3.240   0.360   9.182 -0.9587  0.3534 -0.2413
   59CHL1    H9 6810   3.200   0.462   9.166 -0.5475  0.5795  0.1546
   59CHL1   C10 6811   3.264   0.344   9.332 -0.5916 -0.3041 -0.2115
   59CHL1   C19 6812   3.364   0.230   9.357 -0.7870  0.0927 -0.0975
   59CHL1  H19A 6813   3.463   0.245   9.308 -0.5173 -2.2015 -0.3726
   59CHL1  H19B 6814   3.388   0.216   9.465  1.7914 -0.1205 -0.6279
   59CHL1  H19C 6815   3.320   0.137   9.315 -0.0450 -1.3315  2.0815
   59CHL1    C1 6816   3.329   0.473   9.383  0.8674  0.0919  0.7811
   59CHL1   H1A 6817   3.431   0.483   9.340 -0.1374  1.0798 -1.5959
   59CHL1   H1B 6818   3.274   0.562   9.344  1.5320 -0.1230 -0.7268
   59CHL1    C2 6819   3.341   0.497   9.532  0.0200  0.3344 -0.4243
   59CHL1   H2A 6820   3.384   0.594   9.563 -1.2210  1.0689 -0.9301
   59CHL1   H2B 6821   3.411   0.425   9.581 -0.4583 -0.0109 -0.2434
   59CHL1   C20 6822   3.238   0.252   8.628 -0.1373 -0.0743  0.1706
   59CHL1   H20 6823   3.241   0.142   8.617  0.3974 -0.0743  0.3213
   59CHL1   C21 6824   3.383   0.307   8.615  0.0135  0.0671 -0.8757
   59CHL1  H21A 6825   3.445   0.253   8.690  0.7313  0.0253 -1.4854
   59CHL1  H21B 6826   3.368   0.415   8.635 -0.6067 -0.4395  1.7624
   59CHL1  H21C 6827   3.426   0.278   8.517 -0.8861  0.0040 -1.2577
   59CHL1   C22 6828   3.158   0.298   8.508  0.4296 -0.4178 -0.5959
   59CHL1  H22A 6829   3.065   0.237   8.512  0.8885 -1.0425  2.1023
   59CHL1  H22B 6830   3.145   0.407   8.520  0.4371 -0.7446  4.4073
   59CHL1   C23 6831   3.216   0.266   8.373  0.0104 -0.0134  0.0114
   59CHL1  H23A 6832   3.300   0.337   8.353 -2.0071  2.2885 -0.8720
   59CHL1  H23B 6833   3.256   0.163   8.377 -0.6250 -0.2484  0.3939
   59CHL1   C24 6834   3.111   0.260   8.264  0.2718 -0.4334 -0.1037
   59CHL1  H24A 6835   3.057   0.164   8.278  0.6444 -0.9988 -2.2991
   59CHL1  H24B 6836   3.038   0.344   8.268  2.0048  1.4200 -3.4691
   59CHL1   C25 6837   3.164   0.268   8.125  0.9127  0.9774 -0.0977
   59CHL1   H25 6838   3.264   0.220   8.132  0.1085 -1.3269 -2.5887
   59CHL1   C26 6839   3.084   0.186   8.026  0.0273 -0.3582  1.1162
   59CHL1  H26A 6840   2.976   0.214   8.025  0.1376  0.4439 -2.5456
   59CHL1  H26B 6841   3.112   0.209   7.921 -0.1612  0.5776  1.2625
   59CHL1  H26C 6842   3.094   0.077   8.040  1.3095 -0.7004 -1.6911
   59CHL1   C27 6843   3.185   0.411   8.074 -0.7633  0.2939  0.3361
   59CHL1  H27A 6844   3.252   0.408   7.985  1.0089  1.5986  1.5663
   59CHL1  H27B 6845   3.091   0.452   8.030  0.3818 -0.6260 -3.3935
   59CHL1  H27C 6846   3.249   0.471   8.142 -1.0670  0.0848  0.8101
   60CHL1    C3 6847   1.020   5.611   9.369  0.6999 -0.1862 -0.3151
   60CHL1    H3 6848   1.127   5.633   9.390  0.5020  2.2559 -1.6027
   60CHL1    O3 6849   0.960   5.554   9.483  0.1214  0.0445  0.0481
   60CHL1   H3' 6850   0.943   5.630   9.540  1.8913  1.2609 -0.9603
   60CHL1    C4 6851   0.949   5.744   9.318 -0.7331  0.4906 -0.3930
   60CHL1   H4A 6852   0.839   5.731   9.329 -0.7853 -0.0862 -1.5033
   60CHL1   H4B 6853   0.972   5.824   9.392 -0.3637 -0.9894  1.1535
   60CHL1    C5 6854   0.978   5.781   9.170  0.9254 -0.2588 -0.2999
   60CHL1    C6 6855   1.022   5.902   9.141 -0.3423 -1.1198 -0.8683
   60CHL1    H6 6856   1.028   5.974   9.223  2.0617 -2.9598  0.7138
   60CHL1    C7 6857   1.058   5.958   9.007 -0.0462  0.5100 -0.5072
   60CHL1   H7A 6858   1.013   6.059   8.999 -2.0762 -0.2701  0.3559
   60CHL1   H7B 6859   1.168   5.964   8.995  0.3159 -0.6300  1.6943
   60CHL1    C8 6860   0.996   5.864   8.901 -0.0999 -0.6877  0.5411
   60CHL1    H8 6861   0.889   5.892   8.890 -0.1874 -1.9141 -2.7142
   60CHL1   C14 6862   1.051   5.890   8.763 -0.7070  0.1744  1.0582
   60CHL1   H14 6863   1.158   5.860   8.765 -0.8642 -0.6204 -0.5712
   60CHL1   C15 6864   1.058   6.033   8.714  0.9057  0.2804 -0.1328
   60CHL1  H15A 6865   0.961   6.089   8.712 -0.3077 -1.6107  1.5465
   60CHL1  H15B 6866   1.132   6.097   8.766 -0.6253 -0.2408  2.9313
   60CHL1   C16 6867   1.094   6.029   8.561 -0.3094 -0.2150 -0.3134
   60CHL1  H16A 6868   1.024   6.091   8.500  0.3511  2.8198  1.8035
   60CHL1  H16B 6869   1.202   6.051   8.548 -0.3200  0.4742  0.6622
   60CHL1   C17 6870   1.069   5.881   8.526  0.3543  0.2567 -0.3767
   60CHL1   H17 6871   1.164   5.824   8.534 -0.3713 -0.8422  0.6460
   60CHL1   C13 6872   0.994   5.814   8.647 -0.1122 -0.2034  0.3825
   60CHL1   C18 6873   0.845   5.840   8.642 -0.2617  0.3515  0.9524
   60CHL1  H18A 6874   0.783   5.807   8.728  0.8940  1.5919  2.3096
   60CHL1  H18B 6875   0.825   5.949   8.638 -2.6353 -0.0657  0.4248
   60CHL1  H18C 6876   0.805   5.780   8.557  0.9814  0.3747  0.3238
   60CHL1   C12 6877   1.024   5.665   8.673 -0.2831  0.5815 -0.4240
   60CHL1  H12A 6878   0.983   5.594   8.597  1.7109 -3.6340  2.0611
   60CHL1  H12B 6879   1.134   5.649   8.671 -0.4053 -0.3365 -0.3246
   60CHL1   C11 6880   0.963   5.623   8.814 -0.5344 -0.1146  0.7017
   60CHL1  H11A 6881   0.853   5.624   8.800 -0.4321 -1.4717 -0.3744
   60CHL1  H11B 6882   1.000   5.519   8.826 -1.2639 -0.3899  0.6204
   60CHL1    C9 6883   1.015   5.711   8.929  0.1245  0.0325  0.0786
   60CHL1    H9 6884   1.126   5.705   8.931  0.0400 -2.1189 -0.1188
   60CHL1   C10 6885   0.962   5.668   9.071 -0.2663 -0.2082  0.0341
   60CHL1   C19 6886   0.817   5.627   9.051 -0.4794  0.7519 -0.3482
   60CHL1  H19A 6887   0.771   5.622   9.152 -1.7045 -2.4109 -0.9277
   60CHL1  H19B 6888   0.760   5.699   8.988 -0.5726  0.8433 -0.1619
   60CHL1  H19C 6889   0.818   5.522   9.014 -1.6784  0.5605  0.1213
   60CHL1    C1 6890   1.050   5.547   9.119  0.2781 -0.4381  0.2204
   60CHL1   H1A 6891   1.047   5.464   9.045  5.3378 -0.8829  0.1222
   60CHL1   H1B 6892   1.158   5.573   9.126  0.0591  0.3684  0.7077
   60CHL1    C2 6893   1.009   5.502   9.259 -0.2780 -0.3580  0.2159
   60CHL1   H2A 6894   1.074   5.419   9.293 -0.2748  0.7737  3.3187
   60CHL1   H2B 6895   0.901   5.475   9.257 -1.0003  2.1139  1.5824
   60CHL1   C20 6896   1.031   5.854   8.379 -0.2252  0.1903 -0.6266
   60CHL1   H20 6897   1.010   5.747   8.358  0.6217  0.1560 -1.3851
   60CHL1   C21 6898   1.152   5.876   8.298 -1.2278  0.6977  0.3565
   60CHL1  H21A 6899   1.132   5.843   8.194 -1.9881  0.9531  0.4171
   60CHL1  H21B 6900   1.239   5.821   8.338 -0.7050  0.9644 -0.3842
   60CHL1  H21C 6901   1.190   5.980   8.286  3.5301 -1.0518 -2.6955
   60CHL1   C22 6902   0.902   5.932   8.332 -0.1761  0.6950 -0.2372
   60CHL1  H22A 6903   0.825   5.937   8.412 -1.1544  1.0976 -1.1811
   60CHL1  H22B 6904   0.918   6.038   8.302 -1.0178  0.9802  0.2927
   60CHL1   C23 6905   0.837   5.873   8.214 -0.1159  0.2212 -0.4334
   60CHL1  H23A 6906   0.912   5.863   8.132 -1.8225  0.1145 -2.0528
   60CHL1  H23B 6907   0.798   5.772   8.239  0.7043 -0.2503 -1.0055
   60CHL1   C24 6908   0.707   5.940   8.176  0.6326 -0.6723  0.3703
   60CHL1  H24A 6909   0.662   5.954   8.277  1.9078  2.3187  0.6137
   60CHL1  H24B 6910   0.740   6.042   8.148  0.2665 -0.1414  1.7657
   60CHL1   C25 6911   0.608   5.877   8.073 -0.6737 -0.1931 -0.3008
   60CHL1   H25 6912   0.659   5.857   7.977 -0.7261  1.8233 -0.7924
   60CHL1   C26 6913   0.539   5.756   8.137  0.0209  0.4808 -0.1728
   60CHL1  H26A 6914   0.463   5.699   8.080 -0.7976 -0.0976  1.4110
   60CHL1  H26B 6915   0.617   5.679   8.153 -0.8363 -0.7593 -1.7202
   60CHL1  H26C 6916   0.493   5.774   8.237 -0.6258 -1.4848 -0.0782
   60CHL1   C27 6917   0.495   5.972   8.037  0.5829  0.1797 -0.3189
   60CHL1  H27A 6918   0.446   5.950   7.939  2.3154  0.5049 -1.2947
   60CHL1  H27B 6919   0.406   5.968   8.104 -1.8453 -4.9614 -3.2206
   60CHL1  H27C 6920   0.532   6.077   8.039 -1.2416  0.8531  0.3000
   61CHL1    C3 6921   5.693   5.894   9.461  0.1350 -0.5600 -1.1625
   61CHL1    H3 6922   5.735   5.997   9.465 -1.2227  0.0369 -1.5932
   61CHL1    O3 6923   5.703   5.818   9.580  0.2788  0.3373 -0.2138
   61CHL1   H3' 6924   5.691   5.725   9.561 -0.4980  0.8289 -2.3859
   61CHL1    C4 6925   5.542   5.902   9.428  0.0512 -0.3113  0.5820
   61CHL1   H4A 6926   5.494   5.803   9.443 -1.1921  0.6526  3.9395
   61CHL1   H4B 6927   5.487   5.962   9.503 -1.8415 -0.0926 -0.9097
   61CHL1    C5 6928   5.506   5.945   9.285 -0.5317 -0.1819  0.3730
   61CHL1    C6 6929   5.413   6.040   9.259 -0.7308  0.1608  0.3140
   61CHL1    H6 6930   5.358   6.091   9.340 -0.0833  0.6071  0.4850
   61CHL1    C7 6931   5.384   6.089   9.115  0.3515  0.1293  0.2149
   61CHL1   H7A 6932   5.277   6.102   9.088  0.8537  0.2652 -1.8430
   61CHL1   H7B 6933   5.426   6.188   9.089  2.0463 -1.4050 -3.6715
   61CHL1    C8 6934   5.429   5.985   9.006 -0.2614  0.2665 -0.1008
   61CHL1    H8 6935   5.370   5.891   9.014 -1.3375  0.8409 -1.0768
   61CHL1   C14 6936   5.417   6.047   8.873  0.4762 -0.8992 -0.3083
   61CHL1   H14 6937   5.481   6.138   8.880 -0.1740 -0.5400  1.7560
   61CHL1   C15 6938   5.292   6.122   8.834  0.5469  0.0168  0.1759
   61CHL1  H15A 6939   5.202   6.060   8.851  0.5079 -0.3565 -1.2579
   61CHL1  H15B 6940   5.275   6.219   8.885  2.3422  1.9436 -2.5558
   61CHL1   C16 6941   5.307   6.148   8.686  0.7241  0.2151 -0.0924
   61CHL1  H16A 6942   5.211   6.122   8.638  1.5150 -0.0898 -1.5513
   61CHL1  H16B 6943   5.332   6.254   8.663  2.1527 -0.7826 -3.9053
   61CHL1   C17 6944   5.431   6.066   8.634  0.2103  0.5660 -0.4901
   61CHL1   H17 6945   5.516   6.137   8.640  1.1151 -0.4359 -0.9934
   61CHL1   C13 6946   5.466   5.963   8.752  0.3742  0.4847  0.1955
   61CHL1   C18 6947   5.376   5.831   8.734 -0.0426 -0.1999  0.6900
   61CHL1  H18A 6948   5.274   5.864   8.704 -0.1212 -0.7431  0.3582
   61CHL1  H18B 6949   5.419   5.761   8.659  2.0069 -0.8117  2.3310
   61CHL1  H18C 6950   5.359   5.782   8.832 -3.5225 -1.6964 -0.5310
   61CHL1   C12 6951   5.612   5.943   8.775 -0.1795  0.3854  0.1890
   61CHL1  H12A 6952   5.649   5.874   8.696  0.0301 -0.7021  1.2162
   61CHL1  H12B 6953   5.665   6.040   8.790 -0.3277  0.5262 -0.1709
   61CHL1   C11 6954   5.630   5.870   8.909  0.2127  0.1833  0.0622
   61CHL1  H11A 6955   5.591   5.766   8.899 -0.3749  0.1117  2.4831
   61CHL1  H11B 6956   5.739   5.861   8.924  0.6398  1.2993 -2.0851
   61CHL1    C9 6957   5.575   5.944   9.034 -0.1462  0.3536 -0.0545
   61CHL1    H9 6958   5.631   6.039   9.031 -1.5445  1.2599  1.1302
   61CHL1   C10 6959   5.599   5.871   9.171  0.5336 -0.0678 -0.4351
   61CHL1   C19 6960   5.554   5.729   9.153 -0.0730  0.1185 -0.0057
   61CHL1  H19A 6961   5.542   5.675   9.249 -1.3603  2.0136  0.9747
   61CHL1  H19B 6962   5.455   5.729   9.101  0.1826 -0.4619 -0.5049
   61CHL1  H19C 6963   5.627   5.663   9.102 -0.2502 -1.0587  1.2098
   61CHL1    C1 6964   5.750   5.890   9.214  1.4213 -0.2901 -0.4064
   61CHL1   H1A 6965   5.824   5.852   9.140  2.8827  2.6090 -0.5545
   61CHL1   H1B 6966   5.781   5.996   9.224 -0.3155  0.1072  1.3502
   61CHL1    C2 6967   5.769   5.817   9.349 -0.2425  0.0582 -0.0757
   61CHL1   H2A 6968   5.876   5.825   9.376 -0.6019 -0.6962  1.7185
   61CHL1   H2B 6969   5.743   5.709   9.339  2.7914 -0.7555  0.0896
   61CHL1   C20 6970   5.412   6.005   8.489 -0.2357  0.2430 -0.4327
   61CHL1   H20 6971   5.324   5.938   8.502  0.8018 -0.9496  0.7541
   61CHL1   C21 6972   5.530   5.911   8.452 -0.2149 -0.2465  0.4297
   61CHL1  H21A 6973   5.525   5.872   8.348  2.4765 -2.1748  0.9332
   61CHL1  H21B 6974   5.535   5.821   8.516 -1.0502 -1.0974 -0.6608
   61CHL1  H21C 6975   5.628   5.962   8.465  0.0611  0.1242 -2.4384
   61CHL1   C22 6976   5.368   6.108   8.376  1.1115 -0.0836  0.2311
   61CHL1  H22A 6977   5.275   6.153   8.417  1.3311  0.5131  0.0922
   61CHL1  H22B 6978   5.443   6.187   8.355  0.8672 -0.5358 -3.0011
   61CHL1   C23 6979   5.341   6.048   8.230 -0.7688 -0.0141 -0.4005
   61CHL1  H23A 6980   5.439   6.013   8.194 -0.7874 -1.6437  0.9967
   61CHL1  H23B 6981   5.273   5.961   8.239 -2.2594  1.0136 -1.2600
   61CHL1   C24 6982   5.294   6.161   8.132  0.1229  0.2041 -0.5122
   61CHL1  H24A 6983   5.190   6.182   8.165 -0.5249 -0.7842 -1.8194
   61CHL1  H24B 6984   5.355   6.254   8.138  1.6040 -0.8269  2.2743
   61CHL1   C25 6985   5.277   6.123   7.988  0.3362 -0.0415  0.3272
   61CHL1   H25 6986   5.241   6.222   7.951  0.3265 -0.1662 -0.0005
   61CHL1   C26 6987   5.414   6.076   7.927  0.3390 -0.8890 -0.0240
   61CHL1  H26A 6988   5.436   5.970   7.949 -2.4910 -1.0674  2.6130
   61CHL1  H26B 6989   5.390   6.078   7.819  1.4143  2.8215 -0.3438
   61CHL1  H26C 6990   5.495   6.151   7.936  1.4908 -1.7203 -2.6040
   61CHL1   C27 6991   5.161   6.015   7.956  0.6219 -0.3695  0.4113
   61CHL1  H27A 6992   5.143   6.018   7.847 -0.4444  1.4633  0.6001
   61CHL1  H27B 6993   5.203   5.916   7.986  2.1032  0.1600  0.1730
   61CHL1  H27C 6994   5.065   6.043   8.004  0.7080 -1.3889  1.2211
   62CHL1    C3 6995   0.217   3.051   9.193  0.1666  0.0036  0.3738
   62CHL1    H3 6996   0.130   3.118   9.177 -0.6472 -1.3377 -1.1522
   62CHL1    O3 6997   0.171   2.957   9.294 -0.3661 -0.2541 -0.0366
   62CHL1   H3' 6998   0.159   2.993   9.382  0.2743 -2.3965  0.9943
   62CHL1    C4 6999   0.256   2.983   9.064 -0.4172 -0.7483 -0.4035
   62CHL1   H4A 7000   0.341   2.914   9.079 -0.6767 -1.0047 -0.1109
   62CHL1   H4B 7001   0.171   2.922   9.026 -0.2096 -0.9429 -0.5545
   62CHL1    C5 7002   0.316   3.080   8.965 -0.0960  0.1313  0.7273
   62CHL1    C6 7003   0.267   3.074   8.842  0.2034  0.1074  0.2555
   62CHL1    H6 7004   0.192   2.997   8.819 -0.7905  1.1706 -0.2102
   62CHL1    C7 7005   0.314   3.165   8.729 -0.3257  0.1966  0.3599
   62CHL1   H7A 7006   0.329   3.116   8.630  0.3507  0.0516  0.5231
   62CHL1   H7B 7007   0.232   3.238   8.718  0.3603  0.8112 -1.0237
   62CHL1    C8 7008   0.452   3.233   8.763  0.4624  0.4365  0.4155
   62CHL1    H8 7009   0.530   3.155   8.751 -0.1305 -0.5411  2.5193
   62CHL1   C14 7010   0.480   3.335   8.651  0.0377 -0.9681 -0.3596
   62CHL1   H14 7011   0.404   3.415   8.646 -1.2892 -2.1306  0.5575
   62CHL1   C15 7012   0.495   3.290   8.501 -0.3001  0.5649 -0.0223
   62CHL1  H15A 7013   0.531   3.185   8.493 -0.8584  0.0533  2.9927
   62CHL1  H15B 7014   0.394   3.298   8.456  0.5786  1.5314 -1.9360
   62CHL1   C16 7015   0.588   3.395   8.438 -0.6460  0.3241 -0.0945
   62CHL1  H16A 7016   0.686   3.350   8.409 -0.9344  0.8181 -2.0007
   62CHL1  H16B 7017   0.543   3.441   8.348 -2.2473 -1.7005 -0.4121
   62CHL1   C17 7018   0.620   3.499   8.551 -0.0111 -0.0516 -0.0912
   62CHL1   H17 7019   0.537   3.573   8.554  1.3422  1.6207 -1.8098
   62CHL1   C13 7020   0.607   3.410   8.679 -0.0793 -0.0216 -0.2475
   62CHL1   C18 7021   0.730   3.311   8.683  1.0032  0.7351 -0.0462
   62CHL1  H18A 7022   0.725   3.248   8.774 -1.1658  0.6927 -0.1477
   62CHL1  H18B 7023   0.730   3.246   8.593 -0.1240  0.8778 -0.1696
   62CHL1  H18C 7024   0.828   3.363   8.683  2.3193 -1.5925 -0.9603
   62CHL1   C12 7025   0.597   3.486   8.806 -0.2668 -0.1936  0.0576
   62CHL1  H12A 7026   0.689   3.545   8.825 -0.1612 -0.2361 -0.3207
   62CHL1  H12B 7027   0.523   3.569   8.796 -0.8182 -0.7737 -0.8754
   62CHL1   C11 7028   0.560   3.396   8.927 -0.1677 -0.0384 -0.5035
   62CHL1  H11A 7029   0.657   3.361   8.969  0.0789  1.6065  0.3840
   62CHL1  H11B 7030   0.517   3.468   8.999 -1.1187  1.2022 -2.2401
   62CHL1    C9 7031   0.445   3.289   8.906  0.0660  0.1037  0.6754
   62CHL1    H9 7032   0.355   3.354   8.915  0.5275  0.5744  2.1447
   62CHL1   C10 7033   0.422   3.179   9.009 -0.4667 -0.2370  0.0795
   62CHL1   C19 7034   0.559   3.105   9.026  1.0243  0.0297  0.6862
   62CHL1  H19A 7035   0.601   3.060   8.934 -0.2806 -0.3309  0.2355
   62CHL1  H19B 7036   0.635   3.171   9.072 -0.8875  1.2027  2.3608
   62CHL1  H19C 7037   0.552   3.026   9.103 -0.5005 -1.0051 -0.4385
   62CHL1    C1 7038   0.376   3.245   9.142  0.2839  0.0261 -0.6625
   62CHL1   H1A 7039   0.470   3.296   9.173  0.0491  0.2708 -0.3429
   62CHL1   H1B 7040   0.294   3.317   9.118  1.2606  1.3277 -0.1871
   62CHL1    C2 7041   0.326   3.142   9.249  0.5809 -0.7981 -0.1115
   62CHL1   H2A 7042   0.290   3.195   9.340  1.0873 -1.0737  0.2548
   62CHL1   H2B 7043   0.408   3.073   9.280 -0.4544 -1.4509  1.2554
   62CHL1   C20 7044   0.745   3.577   8.512  0.2552  0.0262 -0.1791
   62CHL1   H20 7045   0.828   3.504   8.503  0.3251  0.2141 -1.0824
   62CHL1   C21 7046   0.792   3.683   8.617  0.5196  0.2133  0.0976
   62CHL1  H21A 7047   0.720   3.763   8.645  0.1326 -0.9010  2.5344
   62CHL1  H21B 7048   0.884   3.733   8.581 -0.3304  1.4144 -0.4747
   62CHL1  H21C 7049   0.812   3.625   8.710  0.1705 -0.1178 -0.0311
   62CHL1   C22 7050   0.720   3.656   8.374  0.2382  0.2791 -0.0930
   62CHL1  H22A 7051   0.723   3.573   8.300  2.9194  0.4973 -0.3556
   62CHL1  H22B 7052   0.617   3.695   8.388 -1.6494 -3.9910 -0.5266
   62CHL1   C23 7053   0.834   3.753   8.329 -0.7451  0.2713  0.5407
   62CHL1  H23A 7054   0.831   3.838   8.400 -2.1767  1.0464 -0.3728
   62CHL1  H23B 7055   0.936   3.708   8.331  0.8590  3.2745 -2.6407
   62CHL1   C24 7056   0.807   3.801   8.180 -0.1915  0.1102  0.3258
   62CHL1  H24A 7057   0.822   3.724   8.102  1.0031 -0.4948  1.1267
   62CHL1  H24B 7058   0.700   3.830   8.166 -0.0121  0.4449 -0.4128
   62CHL1   C25 7059   0.889   3.927   8.145 -0.1410 -0.4927 -0.0210
   62CHL1   H25 7060   0.860   3.994   8.229 -1.0662 -1.6924  0.6402
   62CHL1   C26 7061   1.040   3.911   8.152 -0.2192 -0.7254 -0.0987
   62CHL1  H26A 7062   1.079   3.833   8.083  0.9932 -0.5734  0.3818
   62CHL1  H26B 7063   1.085   4.007   8.120 -2.7618  0.5511 -0.1013
   62CHL1  H26C 7064   1.083   3.883   8.251  0.1882 -0.5229 -0.2143
   62CHL1   C27 7065   0.849   3.972   8.005 -0.0500 -0.3353 -0.4240
   62CHL1  H27A 7066   0.920   3.916   7.940  0.8767  0.1335  0.1766
   62CHL1  H27B 7067   0.741   3.953   7.982 -0.0924  1.2347 -1.6870
   62CHL1  H27C 7068   0.878   4.079   8.002 -0.7523 -0.0605  1.4430
   63CHL1    C3 7069   1.417   5.793   9.406  0.6901 -0.2117 -0.0872
   63CHL1    H3 7070   1.346   5.710   9.387 -0.1782  0.7254 -1.0345
   63CHL1    O3 7071   1.419   5.809   9.546  0.5823  0.6316  1.0069
   63CHL1   H3' 7072   1.489   5.874   9.557  1.3847  0.0471 -0.3347
   63CHL1    C4 7073   1.555   5.762   9.356  0.3785 -0.5220  0.1299
   63CHL1   H4A 7074   1.630   5.839   9.384  1.6139 -0.3965 -3.1620
   63CHL1   H4B 7075   1.609   5.678   9.406  0.2556  0.3972  1.9107
   63CHL1    C5 7076   1.555   5.754   9.202  0.5279 -0.6487 -0.3492
   63CHL1    C6 7077   1.590   5.645   9.134  0.4839  0.6679 -0.1040
   63CHL1    H6 7078   1.626   5.561   9.196 -1.0328 -0.2381 -0.3844
   63CHL1    C7 7079   1.583   5.621   8.988 -0.7917  0.0798  0.8109
   63CHL1   H7A 7080   1.661   5.542   8.979 -1.3311 -0.2881 -0.9357
   63CHL1   H7B 7081   1.486   5.572   8.966  0.2930 -1.0123 -2.0583
   63CHL1    C8 7082   1.597   5.756   8.911  0.1904 -0.5053  0.3884
   63CHL1    H8 7083   1.695   5.805   8.921  0.7009 -0.5478 -3.1885
   63CHL1   C14 7084   1.577   5.742   8.763  0.6436 -0.9005 -0.1883
   63CHL1   H14 7085   1.468   5.720   8.756 -0.1021  2.7090 -1.9131
   63CHL1   C15 7086   1.648   5.631   8.682 -0.1354  0.1434  0.2011
   63CHL1  H15A 7087   1.757   5.644   8.699 -0.0913 -0.8513  0.7179
   63CHL1  H15B 7088   1.629   5.523   8.699  1.9468 -0.3369 -0.2299
   63CHL1   C16 7089   1.625   5.667   8.533 -0.5780 -0.2669  0.6813
   63CHL1  H16A 7090   1.725   5.677   8.486 -0.9271  0.4163  0.0628
   63CHL1  H16B 7091   1.562   5.601   8.470  1.2258 -0.6298 -0.8324
   63CHL1   C17 7092   1.563   5.815   8.530 -0.3883  1.0791 -0.1965
   63CHL1   H17 7093   1.453   5.806   8.522 -0.4174  0.6545  0.5742
   63CHL1   C13 7094   1.588   5.872   8.676  0.2737 -0.1825  0.3135
   63CHL1   C18 7095   1.731   5.940   8.688  0.4963  0.5122  0.0402
   63CHL1  H18A 7096   1.738   6.039   8.637 -2.9470  0.8498  0.0046
   63CHL1  H18B 7097   1.758   5.948   8.796  0.1312 -0.8989  0.2517
   63CHL1  H18C 7098   1.806   5.874   8.640  1.4172  1.8926 -0.4803
   63CHL1   C12 7099   1.469   5.964   8.734  0.2698 -0.1213 -1.1006
   63CHL1  H12A 7100   1.470   6.060   8.679  0.6320 -0.8074 -2.3496
   63CHL1  H12B 7101   1.376   5.905   8.717  0.8663 -1.7282  0.7924
   63CHL1   C11 7102   1.480   5.987   8.883  0.5112  0.3513  0.5534
   63CHL1  H11A 7103   1.570   6.050   8.900  2.0143 -1.5221 -0.1003
   63CHL1  H11B 7104   1.388   6.038   8.919 -1.2926 -1.7840 -0.7354
   63CHL1    C9 7105   1.488   5.851   8.971 -0.4765  0.2825  0.2753
   63CHL1    H9 7106   1.393   5.797   8.950 -0.8642  0.5617  1.2522
   63CHL1   C10 7107   1.510   5.878   9.129  0.5417 -0.2802  0.0831
   63CHL1   C19 7108   1.622   5.979   9.154  0.2063  0.2501 -0.3548
   63CHL1  H19A 7109   1.603   6.079   9.110  1.3011 -0.0491 -1.5973
   63CHL1  H19B 7110   1.632   5.998   9.263 -1.9976 -0.9898  0.1257
   63CHL1  H19C 7111   1.720   5.938   9.120  1.5992  0.6953  2.8003
   63CHL1    C1 7112   1.376   5.918   9.190  0.0438 -0.1142  0.6131
   63CHL1   H1A 7113   1.336   6.017   9.160 -0.9098 -0.2192  1.4922
   63CHL1   H1B 7114   1.302   5.848   9.146 -0.2334  0.1402  0.6687
   63CHL1    C2 7115   1.359   5.918   9.347 -0.3616  0.3028  0.2532
   63CHL1   H2A 7116   1.250   5.928   9.365 -0.8599 -1.4012 -1.4268
   63CHL1   H2B 7117   1.426   5.997   9.386 -1.4464 -0.3714  3.7893
   63CHL1   C20 7118   1.598   5.914   8.408 -0.4075  0.4444 -0.1038
   63CHL1   H20 7119   1.709   5.908   8.401 -0.4310 -1.6220  0.5198
   63CHL1   C21 7120   1.552   6.063   8.423 -0.4116 -0.4094 -0.5711
   63CHL1  H21A 7121   1.593   6.114   8.333  1.0414 -0.5351 -0.0170
   63CHL1  H21B 7122   1.592   6.113   8.514  0.6035 -0.8825 -0.7322
   63CHL1  H21C 7123   1.442   6.061   8.434 -0.2957  0.4535  1.0725
   63CHL1   C22 7124   1.546   5.862   8.271  0.1095  1.0884  0.4503
   63CHL1  H22A 7125   1.541   5.752   8.285  1.7321  1.0771  1.1843
   63CHL1  H22B 7126   1.447   5.905   8.245 -0.4330  0.6799  1.7391
   63CHL1   C23 7127   1.647   5.883   8.163  0.1067 -0.0599  0.0584
   63CHL1  H23A 7128   1.668   5.990   8.146 -1.4955  0.2122 -0.4273
   63CHL1  H23B 7129   1.751   5.846   8.176  0.5528  0.3061 -2.0545
   63CHL1   C24 7130   1.619   5.815   8.025  0.0051  0.9013 -0.6387
   63CHL1  H24A 7131   1.698   5.854   7.958  1.3664 -2.2128 -1.0379
   63CHL1  H24B 7132   1.642   5.706   8.027 -0.7166  0.7375 -1.1787
   63CHL1   C25 7133   1.475   5.815   7.964 -0.7769 -0.1774 -0.3255
   63CHL1   H25 7134   1.411   5.761   8.037  0.5088 -1.1615  0.1195
   63CHL1   C26 7135   1.415   5.954   7.955  0.0170 -0.4227 -1.0942
   63CHL1  H26A 7136   1.481   6.025   7.899  0.0022 -1.1242 -2.0208
   63CHL1  H26B 7137   1.311   5.960   7.918 -0.6659 -0.5057  0.7046
   63CHL1  H26C 7138   1.410   5.996   8.058  1.6033  1.4053 -1.6928
   63CHL1   C27 7139   1.478   5.721   7.838 -0.5240 -0.3886 -0.6389
   63CHL1  H27A 7140   1.493   5.612   7.856  0.0921 -0.1349  0.4638
   63CHL1  H27B 7141   1.371   5.728   7.808 -1.7785 -4.1164  2.1763
   63CHL1  H27C 7142   1.540   5.754   7.752  0.8947 -2.2853 -0.4204
   64CHL1    C3 7143   0.515   4.383   9.279 -0.0424 -0.3643 -0.7400
   64CHL1    H3 7144   0.626   4.378   9.273  0.0975 -2.9359  1.6713
   64CHL1    O3 7145   0.475   4.330   9.406 -0.0822 -0.4349  0.6222
   64CHL1   H3' 7146   0.379   4.329   9.397 -0.1157  0.3557  0.8304
   64CHL1    C4 7147   0.469   4.526   9.263 -0.4337 -0.9246 -0.9147
   64CHL1   H4A 7148   0.359   4.537   9.267 -0.3521 -0.3023  1.7680
   64CHL1   H4B 7149   0.507   4.576   9.355 -1.2766 -1.9597  0.0227
   64CHL1    C5 7150   0.510   4.589   9.129  0.2465  0.3968 -0.0816
   64CHL1    C6 7151   0.562   4.710   9.121 -0.9410  0.5316 -0.2378
   64CHL1    H6 7152   0.586   4.758   9.217  0.3629 -2.3903  1.0470
   64CHL1    C7 7153   0.615   4.775   8.996  0.0817  0.3329 -0.2369
   64CHL1   H7A 7154   0.603   4.886   9.004  0.7514  0.5422 -1.7215
   64CHL1   H7B 7155   0.724   4.756   8.988  0.2889  1.4271 -0.2397
   64CHL1    C8 7156   0.545   4.715   8.870 -0.2880  0.1906 -0.3431
   64CHL1    H8 7157   0.443   4.757   8.858 -1.8417 -3.0897  0.2698
   64CHL1   C14 7158   0.639   4.748   8.759 -0.8755  0.7992  0.0316
   64CHL1   H14 7159   0.735   4.704   8.792 -0.6670  0.9976 -0.3070
   64CHL1   C15 7160   0.677   4.895   8.736 -0.1135 -0.1839 -0.5727
   64CHL1  H15A 7161   0.595   4.970   8.734 -0.6430 -0.7025  0.5186
   64CHL1  H15B 7162   0.754   4.921   8.812 -1.2286  2.3500 -0.2239
   64CHL1   C16 7163   0.732   4.898   8.589 -0.8746  0.2966  0.0824
   64CHL1  H16A 7164   0.682   4.991   8.554  0.4542  1.6335  1.5555
   64CHL1  H16B 7165   0.840   4.918   8.569 -0.8858 -0.9063 -1.3531
   64CHL1   C17 7166   0.704   4.760   8.529  0.9359 -0.3361 -0.1240
   64CHL1   H17 7167   0.790   4.705   8.572 -0.0628  0.6514  3.5109
   64CHL1   C13 7168   0.590   4.708   8.619  0.4094 -0.1543 -0.6333
   64CHL1   C18 7169   0.457   4.779   8.587  0.1678 -0.4066  0.3799
   64CHL1  H18A 7170   0.420   4.719   8.502  1.2445 -0.0899 -0.3310
   64CHL1  H18B 7171   0.391   4.769   8.676  0.6747  0.1314  0.8258
   64CHL1  H18C 7172   0.469   4.881   8.545 -1.7104 -1.8322 -4.2570
   64CHL1   C12 7173   0.582   4.553   8.627 -0.2555 -0.4404 -0.1251
   64CHL1  H12A 7174   0.540   4.518   8.530 -2.3956 -0.4351  0.7481
   64CHL1  H12B 7175   0.682   4.504   8.633 -0.2254 -0.3719 -0.0618
   64CHL1   C11 7176   0.496   4.509   8.738 -0.6614 -0.2029 -0.1457
   64CHL1  H11A 7177   0.395   4.548   8.715  0.1263  2.6793  0.8757
   64CHL1  H11B 7178   0.476   4.401   8.756  1.1057 -0.8209 -1.5168
   64CHL1    C9 7179   0.540   4.563   8.880 -0.0015 -0.3822  0.7642
   64CHL1    H9 7180   0.645   4.534   8.898  1.2378  1.0903 -3.0885
   64CHL1   C10 7181   0.466   4.500   9.008  0.2800 -0.2580 -0.5632
   64CHL1   C19 7182   0.306   4.512   8.992  0.3819  0.1718  0.2671
   64CHL1  H19A 7183   0.269   4.444   8.912  1.5376  1.2356 -1.2306
   64CHL1  H19B 7184   0.246   4.492   9.084  1.5512 -0.2336  0.9552
   64CHL1  H19C 7185   0.275   4.613   8.959 -0.4587 -0.0656  0.2990
   64CHL1    C1 7186   0.519   4.357   9.033  0.2263  0.5690  0.0631
   64CHL1   H1A 7187   0.481   4.289   8.954  0.6280  1.5962 -1.0507
   64CHL1   H1B 7188   0.629   4.345   9.021 -0.0992 -2.8811 -0.5274
   64CHL1    C2 7189   0.470   4.297   9.167 -0.3818  0.0639 -0.1711
   64CHL1   H2A 7190   0.514   4.196   9.181  0.9306  0.5431 -0.6702
   64CHL1   H2B 7191   0.360   4.286   9.167 -0.3600 -0.1438  0.3265
   64CHL1   C20 7192   0.704   4.755   8.375 -0.8474  0.3089 -0.3060
   64CHL1   H20 7193   0.809   4.773   8.343  0.0597 -2.7134  0.6173
   64CHL1   C21 7194   0.632   4.874   8.310  0.1251 -0.1829  0.6154
   64CHL1  H21A 7195   0.526   4.863   8.340  0.0312  2.2551  1.3521
   64CHL1  H21B 7196   0.638   4.856   8.200  0.2791 -0.2349  0.6322
   64CHL1  H21C 7197   0.669   4.972   8.347 -1.9267  0.2608  1.6482
   64CHL1   C22 7198   0.662   4.619   8.321  0.1114 -0.6574 -0.0093
   64CHL1  H22A 7199   0.688   4.537   8.392 -1.7447 -0.8317  0.5179
   64CHL1  H22B 7200   0.551   4.619   8.312  0.2399  0.3451 -1.9714
   64CHL1   C23 7201   0.722   4.585   8.177 -0.4222  0.3744  0.3199
   64CHL1  H23A 7202   0.712   4.676   8.114  0.2371  0.0809 -0.2238
   64CHL1  H23B 7203   0.833   4.571   8.182 -0.3088  1.0041 -0.2986
   64CHL1   C24 7204   0.667   4.460   8.107  0.8315  0.5214  0.1187
   64CHL1  H24A 7205   0.684   4.383   8.186  2.9813  0.7480 -0.0518
   64CHL1  H24B 7206   0.557   4.471   8.099  0.7034 -0.9549 -0.5470
   64CHL1   C25 7207   0.722   4.433   7.961 -0.1281 -0.0798  0.5448
   64CHL1   H25 7208   0.688   4.518   7.898  1.2028  0.5782  0.6703
   64CHL1   C26 7209   0.872   4.432   7.954 -1.1303  0.0571 -0.7572
   64CHL1  H26A 7210   0.907   4.532   7.989 -0.6228  0.0864 -1.3367
   64CHL1  H26B 7211   0.919   4.347   8.007 -1.7451 -0.7134 -1.4286
   64CHL1  H26C 7212   0.903   4.415   7.849 -1.1693 -0.7701 -0.6392
   64CHL1   C27 7213   0.667   4.302   7.915 -0.1194  0.3863  0.3791
   64CHL1  H27A 7214   0.570   4.291   7.969 -0.7794  1.2019 -0.6203
   64CHL1  H27B 7215   0.655   4.291   7.806 -0.1670  1.0110  0.3215
   64CHL1  H27C 7216   0.742   4.227   7.948 -1.2923 -1.5057 -1.0576
   65CHL1    C3 7217   2.568   6.680   9.460  0.3284  0.4065 -0.3757
   65CHL1    H3 7218   2.505   6.770   9.442  2.5026  1.8741 -0.9944
   65CHL1    O3 7219   2.589   6.662   9.595  0.5799 -0.2947 -0.3688
   65CHL1   H3' 7220   2.642   6.582   9.595  1.0579  0.0189 -0.3512
   65CHL1    C4 7221   2.521   6.555   9.391  0.1239 -0.1932  0.9715
   65CHL1   H4A 7222   2.600   6.477   9.396 -0.4365 -1.1617 -2.5063
   65CHL1   H4B 7223   2.430   6.507   9.434 -0.0055 -1.0404 -0.2082
   65CHL1    C5 7224   2.499   6.571   9.246 -0.3397  0.8631 -0.0955
   65CHL1    C6 7225   2.380   6.534   9.182 -0.1847 -0.4361  0.1067
   65CHL1    H6 7226   2.299   6.495   9.246  1.5387 -1.5380  1.7204
   65CHL1    C7 7227   2.361   6.536   9.033  0.7945  0.3443  0.7872
   65CHL1   H7A 7228   2.317   6.444   8.990 -1.6334  2.2136 -1.0456
   65CHL1   H7B 7229   2.285   6.615   9.013 -0.5696 -1.0611  0.2021
   65CHL1    C8 7230   2.497   6.568   8.960  0.4349  0.3245  0.2164
   65CHL1    H8 7231   2.545   6.470   8.940 -0.2303 -0.5877  2.7008
   65CHL1   C14 7232   2.463   6.634   8.830  0.2053 -0.3812  0.0731
   65CHL1   H14 7233   2.400   6.725   8.843 -2.0100 -1.1663 -3.6899
   65CHL1   C15 7234   2.378   6.544   8.737 -0.9921 -0.0092 -0.4067
   65CHL1  H15A 7235   2.430   6.448   8.717  0.8734  1.0249 -0.7380
   65CHL1  H15B 7236   2.271   6.524   8.763 -0.9809  0.1764 -0.2244
   65CHL1   C16 7237   2.379   6.625   8.610 -0.2696 -0.4071 -0.3846
   65CHL1  H16A 7238   2.385   6.556   8.523 -2.3375 -1.1008 -0.0277
   65CHL1  H16B 7239   2.288   6.689   8.618 -0.1759 -0.4626  1.3392
   65CHL1   C17 7240   2.509   6.722   8.612  0.3828  0.4213  0.1585
   65CHL1   H17 7241   2.474   6.827   8.610  2.3248  1.0897 -0.9214
   65CHL1   C13 7242   2.580   6.678   8.740  0.5082  0.9169  0.0794
   65CHL1   C18 7243   2.681   6.560   8.715  0.4285 -0.2233  0.2629
   65CHL1  H18A 7244   2.695   6.498   8.807  0.1348 -1.5253 -0.5357
   65CHL1  H18B 7245   2.649   6.478   8.647  1.0289 -1.0054  0.8882
   65CHL1  H18C 7246   2.783   6.598   8.692 -0.4060  3.3119  1.8102
   65CHL1   C12 7247   2.647   6.793   8.823 -0.6367  0.0188  0.0812
   65CHL1  H12A 7248   2.734   6.839   8.770  0.7353  1.4920  3.3538
   65CHL1  H12B 7249   2.573   6.876   8.827  0.6400  1.2624 -0.8178
   65CHL1   C11 7250   2.688   6.744   8.960 -0.3693  0.6636  0.8489
   65CHL1  H11A 7251   2.769   6.671   8.943 -1.5625 -0.4826 -0.0536
   65CHL1  H11B 7252   2.728   6.830   9.019  1.3608 -0.4773  1.3972
   65CHL1    C9 7253   2.578   6.666   9.037  0.2556 -0.4868 -0.9478
   65CHL1    H9 7254   2.505   6.744   9.068  1.0631  0.3647 -1.1512
   65CHL1   C10 7255   2.627   6.617   9.176 -0.2493  0.3635 -0.2427
   65CHL1   C19 7256   2.726   6.499   9.157 -0.5946 -0.6187 -0.1329
   65CHL1  H19A 7257   2.759   6.465   9.257  0.5939  0.8428  0.0051
   65CHL1  H19B 7258   2.676   6.420   9.096  2.3723 -2.0384 -0.9204
   65CHL1  H19C 7259   2.811   6.534   9.095 -1.6439  0.4038 -1.0654
   65CHL1    C1 7260   2.700   6.735   9.255 -0.0010  0.4043  0.3632
   65CHL1   H1A 7261   2.802   6.763   9.221  0.7187 -0.6856  1.5570
   65CHL1   H1B 7262   2.634   6.820   9.227 -1.6810 -1.4018 -1.4158
   65CHL1    C2 7263   2.706   6.716   9.409 -1.1874 -0.1140 -0.0598
   65CHL1   H2A 7264   2.747   6.803   9.465  2.0178 -1.6530  0.2292
   65CHL1   H2B 7265   2.782   6.639   9.434 -1.1028 -0.5317 -1.5006
   65CHL1   C20 7266   2.587   6.704   8.472  0.2375 -0.1182  0.1638
   65CHL1   H20 7267   2.602   6.595   8.455  1.1818  0.0529 -0.1504
   65CHL1   C21 7268   2.721   6.786   8.471 -0.1272  0.3765 -0.3451
   65CHL1  H21A 7269   2.769   6.771   8.372  0.2619  2.0988 -0.4561
   65CHL1  H21B 7270   2.785   6.745   8.552 -2.4621 -0.6781  1.0934
   65CHL1  H21C 7271   2.698   6.894   8.486 -2.3532  0.2433 -2.2117
   65CHL1   C22 7272   2.490   6.748   8.351  0.3309  0.0692 -0.7693
   65CHL1  H22A 7273   2.544   6.726   8.256  0.4883 -1.0851 -0.4288
   65CHL1  H22B 7274   2.392   6.696   8.359 -0.4205  1.6161  0.6813
   65CHL1   C23 7275   2.459   6.895   8.346 -0.1479  0.0371 -0.4786
   65CHL1  H23A 7276   2.401   6.927   8.435 -0.7780 -1.1221 -0.4498
   65CHL1  H23B 7277   2.552   6.956   8.336 -0.2887 -0.0042 -2.4607
   65CHL1   C24 7278   2.371   6.936   8.230  0.9422 -0.9790 -0.2563
   65CHL1  H24A 7279   2.415   6.885   8.141  1.1520 -1.9586  0.4022
   65CHL1  H24B 7280   2.272   6.887   8.243  0.0686  0.5296 -0.9153
   65CHL1   C25 7281   2.358   7.092   8.221  0.3342 -0.4998 -0.2275
   65CHL1   H25 7282   2.458   7.138   8.210 -0.0640  0.1232 -1.5084
   65CHL1   C26 7283   2.282   7.122   8.090  0.2450  0.0126  0.2511
   65CHL1  H26A 7284   2.340   7.068   8.012  2.3194  1.0921  0.9818
   65CHL1  H26B 7285   2.177   7.086   8.093 -0.0177  0.7938  0.7927
   65CHL1  H26C 7286   2.287   7.230   8.067 -2.0544 -0.3895 -2.7493
   65CHL1   C27 7287   2.272   7.130   8.346 -0.1428 -0.3447  0.1634
   65CHL1  H27A 7288   2.243   7.237   8.347  0.7899 -0.0977  0.7077
   65CHL1  H27B 7289   2.176   7.073   8.348  0.2591 -1.0293  0.0986
   65CHL1  H27C 7290   2.337   7.107   8.433  0.6547 -0.3198 -0.4136
   66CHL1    C3 7291   6.748   5.284   9.336  0.2871 -0.0084  0.2429
   66CHL1    H3 7292   6.734   5.386   9.296  2.7105  1.3981  2.5947
   66CHL1    O3 7293   6.743   5.301   9.478  0.1625  0.9835  0.1876
   66CHL1   H3' 7294   6.741   5.209   9.508 -0.4391  0.5964 -0.9859
   66CHL1    C4 7295   6.641   5.188   9.281 -0.2763 -0.0199 -0.6178
   66CHL1   H4A 7296   6.669   5.086   9.315  1.3698 -0.1615 -2.2286
   66CHL1   H4B 7297   6.544   5.215   9.327  0.6780  0.9520  0.9137
   66CHL1    C5 7298   6.653   5.174   9.128  0.3758 -0.7049 -0.2472
   66CHL1    C6 7299   6.543   5.199   9.043  0.4149  0.2239 -0.5909
   66CHL1    H6 7300   6.454   5.245   9.088  0.7658 -0.0149  0.3743
   66CHL1    C7 7301   6.556   5.198   8.894  0.1767  0.0929 -0.0626
   66CHL1   H7A 7302   6.465   5.148   8.854 -1.8754  1.8968  2.0756
   66CHL1   H7B 7303   6.556   5.298   8.847  0.8734 -0.2257 -0.7573
   66CHL1    C8 7304   6.678   5.116   8.843 -0.0509 -0.9815  0.1074
   66CHL1    H8 7305   6.670   5.007   8.862 -0.1484 -0.7420  1.5979
   66CHL1   C14 7306   6.696   5.146   8.694  0.1219  0.1699  0.2297
   66CHL1   H14 7307   6.706   5.255   8.679  1.8568 -0.1211 -1.1497
   66CHL1   C15 7308   6.582   5.105   8.598 -0.1465 -0.6094 -0.1602
   66CHL1  H15A 7309   6.528   5.015   8.635  0.8806 -0.3217  2.2655
   66CHL1  H15B 7310   6.504   5.183   8.592  0.6135  0.0506 -1.8939
   66CHL1   C16 7311   6.655   5.092   8.471 -0.3245  0.0501 -0.3172
   66CHL1  H16A 7312   6.630   4.992   8.429 -2.3814 -0.1419  1.2183
   66CHL1  H16B 7313   6.632   5.171   8.396  1.2247  0.8593  0.0280
   66CHL1   C17 7314   6.803   5.127   8.493 -0.6687 -0.2631  0.0893
   66CHL1   H17 7315   6.812   5.237   8.482  1.6979 -0.4165 -0.1502
   66CHL1   C13 7316   6.828   5.082   8.636 -0.0532  0.0578 -0.4645
   66CHL1   C18 7317   6.821   4.926   8.644 -0.6176 -0.6456 -0.5565
   66CHL1  H18A 7318   6.732   4.884   8.591 -1.0765  0.1668 -0.4486
   66CHL1  H18B 7319   6.913   4.879   8.603  0.0945 -0.9721  1.3088
   66CHL1  H18C 7320   6.828   4.878   8.744  0.5959  0.4307 -0.1024
   66CHL1   C12 7321   6.945   5.143   8.714  0.8875 -0.6269  0.0144
   66CHL1  H12A 7322   7.042   5.133   8.661  0.5226 -0.2671 -0.7474
   66CHL1  H12B 7323   6.917   5.249   8.699  0.2755 -0.9141 -1.0432
   66CHL1   C11 7324   6.942   5.117   8.861  0.3435  0.1739 -0.7595
   66CHL1  H11A 7325   6.969   5.011   8.882  0.2340  0.3228  0.1519
   66CHL1  H11B 7326   7.016   5.186   8.907 -0.1408 -0.6369  1.3581
   66CHL1    C9 7327   6.806   5.155   8.924 -0.8107 -0.6431  0.2687
   66CHL1    H9 7328   6.811   5.265   8.905  0.0305 -0.4788  1.3333
   66CHL1   C10 7329   6.796   5.140   9.080 -0.2987 -0.2834  0.8190
   66CHL1   C19 7330   6.834   4.997   9.117  0.3305 -0.1924  1.3342
   66CHL1  H19A 7331   6.833   4.968   9.224 -0.5294 -0.6582  1.2083
   66CHL1  H19B 7332   6.767   4.934   9.055 -1.1186  1.0037  1.6235
   66CHL1  H19C 7333   6.936   4.984   9.075 -0.5223 -0.4404 -0.8286
   66CHL1    C1 7334   6.898   5.236   9.148 -0.2108  0.3344 -0.1690
   66CHL1   H1A 7335   6.999   5.199   9.120  0.4153 -0.6585  2.9890
   66CHL1   H1B 7336   6.880   5.338   9.109 -1.2483  0.2746  0.1087
   66CHL1    C2 7337   6.891   5.243   9.308 -0.0251 -0.2083  0.6121
   66CHL1   H2A 7338   6.974   5.310   9.338  1.2725 -0.1194 -2.7125
   66CHL1   H2B 7339   6.917   5.143   9.350  0.1084  0.3908  2.0142
   66CHL1   C20 7340   6.904   5.075   8.386 -0.1242  0.0458  0.0110
   66CHL1   H20 7341   6.971   5.011   8.447 -1.2353  0.2993  1.5399
   66CHL1   C21 7342   6.985   5.196   8.331  0.4141  0.2533 -0.0705
   66CHL1  H21A 7343   6.920   5.265   8.273 -0.0756  0.1754  0.3751
   66CHL1  H21B 7344   7.074   5.163   8.272  0.6274  0.0831  0.3463
   66CHL1  H21C 7345   7.023   5.253   8.418  1.1520 -0.3601  0.0267
   66CHL1   C22 7346   6.844   4.984   8.276  0.7956  0.5119  0.2007
   66CHL1  H22A 7347   6.789   4.902   8.328 -0.6728  1.3080 -0.0320
   66CHL1  H22B 7348   6.761   5.036   8.223  1.0710  0.7327 -0.0166
   66CHL1   C23 7349   6.942   4.935   8.172 -0.7814  0.4715  0.0055
   66CHL1  H23A 7350   6.973   5.015   8.101 -1.7706  0.5411 -0.3656
   66CHL1  H23B 7351   7.034   4.901   8.224 -1.5600 -0.2400  0.9593
   66CHL1   C24 7352   6.891   4.820   8.094 -0.1202 -0.3880  0.0385
   66CHL1  H24A 7353   6.839   4.744   8.156  1.3726 -1.1834  0.3616
   66CHL1  H24B 7354   6.813   4.864   8.029 -2.5307 -1.5400  2.0172
   66CHL1   C25 7355   7.006   4.751   8.010 -0.2203  0.2168 -0.2231
   66CHL1   H25 7356   7.091   4.735   8.080  1.4115  1.5981 -1.7661
   66CHL1   C26 7357   6.959   4.612   7.961 -0.4303 -0.0173 -0.0763
   66CHL1  H26A 7358   7.040   4.566   7.900  1.7324  2.6970  0.5174
   66CHL1  H26B 7359   6.931   4.547   8.046  0.6041  0.9207  1.0165
   66CHL1  H26C 7360   6.868   4.633   7.899 -1.2731 -0.3037  1.0375
   66CHL1   C27 7361   7.055   4.837   7.891 -0.0467  0.2682 -0.9790
   66CHL1  H27A 7362   7.142   4.784   7.848  0.5172  0.2332  0.1721
   66CHL1  H27B 7363   6.975   4.850   7.815 -2.1186 -0.5549  0.9332
   66CHL1  H27C 7364   7.090   4.934   7.933 -2.6931  1.3722 -1.1240
   67CHL1    C3 7365   6.220   6.860   9.365 -0.3049 -0.2481 -0.2663
   67CHL1    H3 7366   6.330   6.873   9.370 -0.5637  1.6451  2.3824
   67CHL1    O3 7367   6.157   6.920   9.481  0.2238 -0.1895  0.4331
   67CHL1   H3' 7368   6.148   7.013   9.461 -1.1535 -0.4075 -0.1128
   67CHL1    C4 7369   6.182   6.952   9.246 -0.0324 -0.2598 -0.0253
   67CHL1   H4A 7370   6.072   6.962   9.240  0.0586  0.2653 -0.9893
   67CHL1   H4B 7371   6.221   7.055   9.262 -1.5515  0.3202  0.0696
   67CHL1    C5 7372   6.223   6.896   9.116 -0.3010  0.6798  0.0870
   67CHL1    C6 7373   6.285   6.970   9.024 -0.0831 -0.4240 -0.5183
   67CHL1    H6 7374   6.297   7.076   9.050  0.2599 -0.6948  0.4628
   67CHL1    C7 7375   6.316   6.928   8.881  0.0953 -0.7048  0.2720
   67CHL1   H7A 7376   6.297   7.009   8.808 -1.2203  0.1981  1.5573
   67CHL1   H7B 7377   6.425   6.906   8.869 -0.1987 -1.8004 -0.4958
   67CHL1    C8 7378   6.234   6.804   8.854  0.1867  0.7578 -1.1765
   67CHL1    H8 7379   6.129   6.839   8.839 -0.0281  0.0904 -1.2856
   67CHL1   C14 7380   6.274   6.752   8.721  0.2034  0.7230  0.4204
   67CHL1   H14 7381   6.377   6.712   8.738 -0.8277 -1.6648  1.5649
   67CHL1   C15 7382   6.283   6.847   8.596 -0.7188 -0.1946 -0.2432
   67CHL1  H15A 7383   6.200   6.921   8.597 -0.6289 -0.0912 -0.2984
   67CHL1  H15B 7384   6.377   6.904   8.610  0.0031 -1.4751  0.2328
   67CHL1   C16 7385   6.278   6.756   8.477 -0.0420  0.4603 -0.0787
   67CHL1  H16A 7386   6.202   6.807   8.413  2.0647  2.6920 -0.9537
   67CHL1  H16B 7387   6.374   6.756   8.422  0.2288 -4.5498 -0.0329
   67CHL1   C17 7388   6.247   6.607   8.527 -0.8943  0.0582 -0.0630
   67CHL1   H17 7389   6.346   6.556   8.526  0.1611  1.9398 -2.1868
   67CHL1   C13 7390   6.196   6.622   8.668  0.1028  0.5655  0.9651
   67CHL1   C18 7391   6.042   6.654   8.654 -0.4470 -0.0504 -0.4865
   67CHL1  H18A 7392   6.004   6.689   8.752  0.0389  1.8954 -0.9318
   67CHL1  H18B 7393   6.035   6.746   8.592 -0.6218 -0.4824 -1.1245
   67CHL1  H18C 7394   5.973   6.570   8.630  1.1430 -1.7940  0.7560
   67CHL1   C12 7395   6.221   6.510   8.769  0.0089 -0.0595 -0.4218
   67CHL1  H12A 7396   6.178   6.414   8.732 -0.5721 -0.3302  0.8710
   67CHL1  H12B 7397   6.331   6.497   8.769  0.4044  2.7369 -1.4571
   67CHL1   C11 7398   6.189   6.549   8.916  0.1526  0.0747  0.4309
   67CHL1  H11A 7399   6.078   6.537   8.925  0.3017 -1.2792  0.6107
   67CHL1  H11B 7400   6.229   6.469   8.982  0.6939 -0.0686 -0.0708
   67CHL1    C9 7401   6.242   6.696   8.955  0.2288  0.0366  0.3448
   67CHL1    H9 7402   6.349   6.679   8.978  0.9330  0.4733 -2.2460
   67CHL1   C10 7403   6.185   6.754   9.092 -0.7805  0.1805 -0.3471
   67CHL1   C19 7404   6.030   6.757   9.077 -0.0472  0.4536  0.2733
   67CHL1  H19A 7405   5.986   6.657   9.060  1.3558 -0.0950 -0.3039
   67CHL1  H19B 7406   5.981   6.787   9.172  1.7708  0.3544  1.3073
   67CHL1  H19C 7407   5.996   6.829   9.001  1.0174  0.0126 -0.6525
   67CHL1    C1 7408   6.220   6.659   9.217  0.3307 -0.3490  0.2891
   67CHL1   H1A 7409   6.178   6.559   9.195  1.3961 -0.8286  0.3823
   67CHL1   H1B 7410   6.331   6.654   9.216  0.3849  0.0532 -2.3844
   67CHL1    C2 7411   6.178   6.712   9.348  1.0340 -0.2549  0.7386
   67CHL1   H2A 7412   6.218   6.651   9.432  0.2878  0.0749  1.3527
   67CHL1   H2B 7413   6.068   6.707   9.364  0.8656  2.3506  0.8132
   67CHL1   C20 7414   6.163   6.524   8.429  0.1930 -0.0574 -0.1446
   67CHL1   H20 7415   6.059   6.562   8.422  0.0749 -0.0883  1.1901
   67CHL1   C21 7416   6.157   6.369   8.469  0.2815 -0.1847 -0.2346
   67CHL1  H21A 7417   6.262   6.338   8.491  0.0397  0.3545  1.9638
   67CHL1  H21B 7418   6.101   6.319   8.388  0.3280  0.5795 -0.7482
   67CHL1  H21C 7419   6.102   6.359   8.565  0.9163  1.0172  0.2890
   67CHL1   C22 7420   6.211   6.538   8.284 -0.7345  0.1949 -0.2014
   67CHL1  H22A 7421   6.221   6.646   8.259 -3.1637  0.5310  0.0325
   67CHL1  H22B 7422   6.317   6.505   8.284 -0.4226  1.0801  1.3297
   67CHL1   C23 7423   6.129   6.480   8.173 -0.2536 -0.3850  1.1192
   67CHL1  H23A 7424   6.131   6.369   8.168  1.1286 -0.3165 -1.9096
   67CHL1  H23B 7425   6.021   6.498   8.188 -0.3518  0.8715 -0.7472
   67CHL1   C24 7426   6.161   6.537   8.035  0.0949  0.5179  0.9653
   67CHL1  H24A 7427   6.119   6.640   8.044 -1.3763 -0.2189  3.3001
   67CHL1  H24B 7428   6.271   6.544   8.024  0.4750 -0.6350  3.3666
   67CHL1   C25 7429   6.083   6.475   7.924 -0.1298  0.6407  0.4984
   67CHL1   H25 7430   5.976   6.473   7.954 -0.9545  0.4823 -2.2033
   67CHL1   C26 7431   6.085   6.560   7.806 -0.1791  0.1676 -0.0563
   67CHL1  H26A 7432   6.053   6.666   7.823 -1.1758  0.1968 -1.8506
   67CHL1  H26B 7433   6.184   6.564   7.756  0.8776  1.0045  2.0122
   67CHL1  H26C 7434   6.012   6.519   7.732  1.9904 -1.7981 -1.2207
   67CHL1   C27 7435   6.123   6.329   7.889  0.7156  0.2010 -0.1573
   67CHL1  H27A 7436   6.232   6.325   7.866  0.5796 -0.9936 -0.6833
   67CHL1  H27B 7437   6.107   6.256   7.971 -2.9358 -0.4996 -1.3046
   67CHL1  H27C 7438   6.064   6.306   7.798 -0.1412 -1.0384  0.6836
   68CHL1    C3 7439   0.861   0.529   9.108 -0.2189 -0.7021 -0.0209
   68CHL1    H3 7440   0.937   0.602   9.072  0.3949  0.3751  3.1349
   68CHL1    O3 7441   0.854   0.541   9.247 -0.4880  0.4776 -0.7709
   68CHL1   H3' 7442   0.806   0.463   9.277  3.3915 -1.4127  1.3368
   68CHL1    C4 7443   0.729   0.539   9.047  0.3055 -0.0055  0.4715
   68CHL1   H4A 7444   0.660   0.466   9.094  2.0752 -1.7708  0.4497
   68CHL1   H4B 7445   0.689   0.640   9.072  1.8638  2.2844 -4.8791
   68CHL1    C5 7446   0.736   0.532   8.891 -0.4189 -0.5204 -0.3999
   68CHL1    C6 7447   0.712   0.639   8.814  0.4287  0.0881 -0.3887
   68CHL1    H6 7448   0.669   0.729   8.860  0.3020 -0.6860  1.0728
   68CHL1    C7 7449   0.709   0.625   8.665 -0.5322 -0.9261 -0.2766
   68CHL1   H7A 7450   0.612   0.665   8.629  0.0641 -0.3080 -1.2148
   68CHL1   H7B 7451   0.783   0.697   8.625 -1.0268 -0.2953 -0.0614
   68CHL1    C8 7452   0.724   0.481   8.614  0.6113  0.1694  0.4378
   68CHL1    H8 7453   0.624   0.437   8.632 -0.9860  2.1682 -2.7256
   68CHL1   C14 7454   0.759   0.475   8.466  0.3393  0.4435 -0.2833
   68CHL1   H14 7455   0.861   0.517   8.459  0.6634 -0.6155 -2.9799
   68CHL1   C15 7456   0.675   0.557   8.360  0.3509 -0.9715 -0.8899
   68CHL1  H15A 7457   0.567   0.557   8.387  0.3565  0.7316 -0.8087
   68CHL1  H15B 7458   0.707   0.663   8.362  0.8790 -1.1277 -0.8966
   68CHL1   C16 7459   0.702   0.489   8.226  0.3314  0.3090  0.4504
   68CHL1  H16A 7460   0.608   0.448   8.184  0.9618 -1.1365  0.4130
   68CHL1  H16B 7461   0.746   0.568   8.161  0.5849  0.5087  0.8649
   68CHL1   C17 7462   0.795   0.373   8.251 -0.3091 -0.7211  0.1484
   68CHL1   H17 7463   0.902   0.400   8.240 -0.7796  1.4268  0.3483
   68CHL1   C13 7464   0.774   0.337   8.400 -0.3483  0.0479  0.0333
   68CHL1   C18 7465   0.640   0.261   8.412 -0.4680 -0.7107  0.0903
   68CHL1  H18A 7466   0.564   0.299   8.340  0.0590 -1.5087 -0.9186
   68CHL1  H18B 7467   0.645   0.155   8.380  0.7042 -0.7292  0.2972
   68CHL1  H18C 7468   0.603   0.267   8.517  1.5447 -2.4668  0.9879
   68CHL1   C12 7469   0.891   0.281   8.484 -0.0419  1.0495  0.3174
   68CHL1  H12A 7470   0.920   0.176   8.463  1.1104  1.4037  0.0903
   68CHL1  H12B 7471   0.985   0.340   8.481 -0.1838  1.2596 -0.1117
   68CHL1   C11 7472   0.860   0.269   8.637 -0.2101 -0.0801 -0.2845
   68CHL1  H11A 7473   0.778   0.194   8.640  0.1415 -0.4421  0.3730
   68CHL1  H11B 7474   0.953   0.228   8.683 -1.0017  0.5095  1.9731
   68CHL1    C9 7475   0.827   0.407   8.689  0.2930  0.2464  0.0063
   68CHL1    H9 7476   0.910   0.479   8.672  1.4324 -0.9172  0.4564
   68CHL1   C10 7477   0.797   0.403   8.840 -0.0409  0.3617  0.3037
   68CHL1   C19 7478   0.683   0.299   8.861 -0.8500 -0.0147 -0.4799
   68CHL1  H19A 7479   0.631   0.284   8.764  2.1847 -0.3980 -2.1663
   68CHL1  H19B 7480   0.734   0.201   8.870  2.6830  1.8154  1.2386
   68CHL1  H19C 7481   0.612   0.321   8.944  0.5339  1.5642  0.3428
   68CHL1    C1 7482   0.929   0.382   8.916 -0.9593  0.5231  0.1288
   68CHL1   H1A 7483   0.981   0.291   8.879 -0.5962  0.5330  0.6066
   68CHL1   H1B 7484   1.005   0.457   8.887 -2.0557  1.2928 -0.8572
   68CHL1    C2 7485   0.925   0.393   9.071 -0.0401 -0.2947  0.0471
   68CHL1   H2A 7486   1.025   0.386   9.118 -1.2581  0.9645  3.0818
   68CHL1   H2B 7487   0.860   0.306   9.099  0.9011 -1.8157 -2.1823
   68CHL1   C20 7488   0.774   0.270   8.148 -0.2214  0.3945  0.2227
   68CHL1   H20 7489   0.670   0.231   8.142 -0.2692  0.4673  0.5973
   68CHL1   C21 7490   0.869   0.145   8.172 -0.4887  0.1085 -0.5866
   68CHL1  H21A 7491   0.866   0.089   8.076  3.8884 -2.3868  0.4674
   68CHL1  H21B 7492   0.834   0.090   8.262  0.8498  1.5556  0.8852
   68CHL1  H21C 7493   0.973   0.179   8.191  0.1605 -1.5026 -1.0534
   68CHL1   C22 7494   0.810   0.321   8.000  0.0743  0.4853  0.1348
   68CHL1  H22A 7495   0.793   0.230   7.938  0.9682  0.3008  0.1491
   68CHL1  H22B 7496   0.737   0.402   7.982  0.4063  0.5045 -1.1848
   68CHL1   C23 7497   0.949   0.372   7.972  0.0191 -0.1805 -0.3970
   68CHL1  H23A 7498   0.951   0.477   8.005  2.8695 -0.6477  1.2147
   68CHL1  H23B 7499   1.018   0.316   8.038 -1.3430  0.0382  1.2675
   68CHL1   C24 7500   1.003   0.361   7.828  0.4593 -0.1297  0.9437
   68CHL1  H24A 7501   1.037   0.258   7.801  1.5398  0.4609 -0.0637
   68CHL1  H24B 7502   0.923   0.385   7.755 -1.3526  0.2031  2.9559
   68CHL1   C25 7503   1.120   0.455   7.803  0.7641  0.6237  0.0590
   68CHL1   H25 7504   1.094   0.557   7.838 -1.7692 -0.2817  1.0468
   68CHL1   C26 7505   1.240   0.405   7.884 -0.5814 -0.0169 -0.4283
   68CHL1  H26A 7506   1.268   0.301   7.855  0.1132 -0.2894  1.1630
   68CHL1  H26B 7507   1.320   0.482   7.874  0.5918 -1.3552 -1.7910
   68CHL1  H26C 7508   1.206   0.400   7.989 -0.0858  0.3890 -0.2462
   68CHL1   C27 7509   1.157   0.465   7.651  0.4150 -0.3802  0.4284
   68CHL1  H27A 7510   1.186   0.366   7.609 -1.6600 -1.3664  1.1924
   68CHL1  H27B 7511   1.072   0.507   7.593 -0.5432 -1.7820  0.7422
   68CHL1  H27C 7512   1.250   0.525   7.647  0.0360  0.3509  1.9228
   69CHL1    C3 7513   4.010   4.884   6.310 -0.1479  0.0698 -0.5916
   69CHL1    H3 7514   4.115   4.855   6.331  0.0336 -0.7876 -2.4642
   69CHL1    O3 7515   3.987   4.837   6.177  0.5516  0.0582 -0.3430
   69CHL1   H3' 7516   3.893   4.853   6.169  0.6135  1.3926  0.9172
   69CHL1    C4 7517   3.922   4.806   6.410 -0.1324 -0.8289 -0.0220
   69CHL1   H4A 7518   3.818   4.800   6.373  0.2966  2.4121 -2.1607
   69CHL1   H4B 7519   3.952   4.699   6.410  2.2829 -0.2386 -1.3028
   69CHL1    C5 7520   3.925   4.870   6.554  0.3330  0.1479 -0.3711
   69CHL1    C6 7521   3.954   4.798   6.670  0.4083 -0.3865  0.5487
   69CHL1    H6 7522   3.973   4.690   6.671  0.2630 -0.5198 -2.1596
   69CHL1    C7 7523   3.950   4.858   6.807 -0.4071 -0.1239 -0.0886
   69CHL1   H7A 7524   3.909   4.786   6.880 -0.9248  0.4458  0.1881
   69CHL1   H7B 7525   4.049   4.875   6.855 -1.2353  0.3524  1.5373
   69CHL1    C8 7526   3.876   4.992   6.817  0.0986 -0.1819  1.1406
   69CHL1    H8 7527   3.769   4.974   6.798  0.0089 -1.3494  2.5792
   69CHL1   C14 7528   3.899   5.056   6.951 -0.0226 -0.0657 -0.3089
   69CHL1   H14 7529   4.004   5.089   6.942  1.4283 -4.1519 -0.4232
   69CHL1   C15 7530   3.884   4.967   7.079 -0.0796 -0.0083  0.3145
   69CHL1  H15A 7531   3.809   4.886   7.066 -2.2003  1.9987 -0.5197
   69CHL1  H15B 7532   3.976   4.912   7.110 -0.1076 -0.3334 -0.1599
   69CHL1   C16 7533   3.836   5.068   7.185 -0.3892  0.1294 -0.2119
   69CHL1  H16A 7534   3.729   5.046   7.205  0.2042 -0.8406  2.2626
   69CHL1  H16B 7535   3.898   5.048   7.275 -1.3713 -0.7881  0.2773
   69CHL1   C17 7536   3.855   5.206   7.121 -0.2233 -0.2091 -0.6371
   69CHL1   H17 7537   3.963   5.229   7.122  0.1309 -1.8032 -0.9707
   69CHL1   C13 7538   3.817   5.183   6.972 -0.2627  0.3909  0.5326
   69CHL1   C18 7539   3.667   5.158   6.954 -0.6035  0.2499 -0.6887
   69CHL1  H18A 7540   3.635   5.070   7.014 -0.7635  0.7962  0.0398
   69CHL1  H18B 7541   3.610   5.242   6.999 -3.5569 -2.0974  0.2987
   69CHL1  H18C 7542   3.636   5.142   6.849 -0.7559 -3.7028 -0.2051
   69CHL1   C12 7543   3.869   5.283   6.867 -0.7259  0.1378  0.5243
   69CHL1  H12A 7544   3.811   5.377   6.873 -1.0382  0.0555 -0.7878
   69CHL1  H12B 7545   3.977   5.294   6.890 -0.5142 -1.5984  0.4906
   69CHL1   C11 7546   3.864   5.230   6.721  0.1558 -0.5389 -0.2451
   69CHL1  H11A 7547   3.763   5.237   6.675  1.1051 -1.8573 -2.7257
   69CHL1  H11B 7548   3.915   5.312   6.664 -1.0156  0.3678 -0.0221
   69CHL1    C9 7549   3.919   5.086   6.702 -0.3547 -0.3944 -0.0999
   69CHL1    H9 7550   4.028   5.101   6.713 -0.4085 -0.4337  0.5612
   69CHL1   C10 7551   3.891   5.027   6.568 -0.0667  0.6092  0.4955
   69CHL1   C19 7552   3.740   5.046   6.525 -0.8911  0.4115  0.9905
   69CHL1  H19A 7553   3.712   4.985   6.437  0.9552 -0.0495  0.6851
   69CHL1  H19B 7554   3.679   5.005   6.609  0.0751 -0.3383  1.3464
   69CHL1  H19C 7555   3.718   5.152   6.501  0.4463  0.3522 -0.5946
   69CHL1    C1 7556   3.985   5.086   6.463  0.7371  0.3725  0.6736
   69CHL1   H1A 7557   3.959   5.194   6.462  0.4721  0.3305  1.8863
   69CHL1   H1B 7558   4.089   5.075   6.502  0.6187  1.0254  1.2042
   69CHL1    C2 7559   3.975   5.032   6.316 -0.4836  0.2586  0.7434
   69CHL1   H2A 7560   4.041   5.093   6.251  1.0433  1.8888  3.5721
   69CHL1   H2B 7561   3.876   5.040   6.267 -0.3471 -0.4417  0.3503
   69CHL1   C20 7562   3.779   5.311   7.202  0.2953  0.3451  0.9252
   69CHL1   H20 7563   3.672   5.302   7.176  0.7520  1.0664 -1.4644
   69CHL1   C21 7564   3.816   5.457   7.154  0.2076 -0.5083 -0.5399
   69CHL1  H21A 7565   3.926   5.468   7.157  0.1688 -0.2842  0.2329
   69CHL1  H21B 7566   3.763   5.535   7.212  1.5139 -0.3639  0.4937
   69CHL1  H21C 7567   3.788   5.476   7.048  0.5454  2.6058 -0.1413
   69CHL1   C22 7568   3.779   5.301   7.356  0.0510 -0.3308  0.3367
   69CHL1  H22A 7569   3.721   5.386   7.400 -0.1132 -0.1272 -0.2682
   69CHL1  H22B 7570   3.732   5.203   7.382 -0.5980 -0.0950  0.0942
   69CHL1   C23 7571   3.920   5.315   7.416 -0.0502 -0.0580 -0.0129
   69CHL1  H23A 7572   3.991   5.258   7.352 -0.1884  1.1848 -1.3246
   69CHL1  H23B 7573   3.955   5.419   7.401 -1.3396  0.2916 -0.7896
   69CHL1   C24 7574   3.928   5.270   7.560 -0.0926  0.3624  0.1505
   69CHL1  H24A 7575   3.895   5.164   7.565  0.0830  0.3328  0.7566
   69CHL1  H24B 7576   4.035   5.281   7.586  0.0317 -0.5302  0.0334
   69CHL1   C25 7577   3.843   5.349   7.664 -0.2066  0.4538  0.1362
   69CHL1   H25 7578   3.739   5.346   7.626  0.4904 -0.3662 -1.8345
   69CHL1   C26 7579   3.861   5.289   7.805  0.5074  0.8385 -1.0439
   69CHL1  H26A 7580   3.968   5.304   7.831  0.2522  0.7946  0.0628
   69CHL1  H26B 7581   3.802   5.349   7.878  3.4192  0.5726  1.7218
   69CHL1  H26C 7582   3.839   5.181   7.823  2.7007  0.8380  2.4694
   69CHL1   C27 7583   3.901   5.494   7.669  0.4711  0.3654 -0.1323
   69CHL1  H27A 7584   4.012   5.493   7.663  0.4354  0.8326 -1.0922
   69CHL1  H27B 7585   3.862   5.547   7.580 -2.6311  0.6458  1.2626
   69CHL1  H27C 7586   3.879   5.543   7.766  1.0453  0.1965  0.0882
   70CHL1    C3 7587   4.644   2.608   6.273 -0.2355  0.7201 -0.2253
   70CHL1    H3 7588   4.739   2.632   6.325 -0.1192 -1.1524  0.5104
   70CHL1    O3 7589   4.651   2.614   6.129  0.2447  0.3356 -0.1371
   70CHL1   H3' 7590   4.574   2.563   6.100 -0.1447 -0.4601  2.0711
   70CHL1    C4 7591   4.611   2.473   6.319  0.1772  0.0306  0.2248
   70CHL1   H4A 7592   4.522   2.434   6.265  0.5394  1.6152 -1.5828
   70CHL1   H4B 7593   4.704   2.420   6.289  0.2549  2.2112 -4.0022
   70CHL1    C5 7594   4.598   2.462   6.466  0.2237  0.3690  0.1976
   70CHL1    C6 7595   4.670   2.375   6.533 -0.4229  0.3287 -0.3218
   70CHL1    H6 7596   4.741   2.308   6.482 -0.0527  2.8384 -3.4324
   70CHL1    C7 7597   4.653   2.357   6.679 -0.4975  0.1383  0.2666
   70CHL1   H7A 7598   4.639   2.249   6.700 -0.9754 -0.0039 -0.7312
   70CHL1   H7B 7599   4.751   2.385   6.724 -0.4487  0.1716  0.1397
   70CHL1    C8 7600   4.546   2.436   6.752  0.5206 -0.4924 -0.2925
   70CHL1    H8 7601   4.449   2.387   6.729  0.3376  0.2081 -1.0840
   70CHL1   C14 7602   4.567   2.460   6.908  0.3059  0.6805  0.7689
   70CHL1   H14 7603   4.656   2.526   6.909  0.4971  0.4182  1.0604
   70CHL1   C15 7604   4.603   2.339   6.989  0.0413  0.5307 -0.1617
   70CHL1  H15A 7605   4.534   2.255   6.969 -0.3536  1.0528 -1.0702
   70CHL1  H15B 7606   4.707   2.302   6.971 -0.5713 -2.6209  2.0922
   70CHL1   C16 7607   4.600   2.392   7.131  0.4765 -0.1255  0.5670
   70CHL1  H16A 7608   4.557   2.313   7.196  0.1077 -1.1083 -0.8167
   70CHL1  H16B 7609   4.702   2.414   7.167  0.5074 -1.7908  1.6083
   70CHL1   C17 7610   4.509   2.528   7.130 -0.7789 -0.0110 -0.6032
   70CHL1   H17 7611   4.582   2.611   7.126 -1.0193  0.5161  2.7720
   70CHL1   C13 7612   4.452   2.524   6.986 -0.0945 -0.2230 -0.1988
   70CHL1   C18 7613   4.327   2.435   6.976  0.1985 -0.4311 -0.8241
   70CHL1  H18A 7614   4.242   2.499   7.008  1.2737  1.4107 -1.4813
   70CHL1  H18B 7615   4.308   2.419   6.867  3.2035 -3.0082 -1.0818
   70CHL1  H18C 7616   4.340   2.340   7.031  3.1641  0.2274 -0.2383
   70CHL1   C12 7617   4.437   2.662   6.921 -0.1259 -0.5906 -0.0247
   70CHL1  H12A 7618   4.353   2.714   6.973  0.8252 -1.3063  2.3351
   70CHL1  H12B 7619   4.526   2.723   6.944 -1.7141  0.9235  2.6580
   70CHL1   C11 7620   4.414   2.647   6.765  0.4071 -0.7729  0.5592
   70CHL1  H11A 7621   4.316   2.595   6.753 -0.5121  1.3235 -1.8722
   70CHL1  H11B 7622   4.413   2.750   6.723  1.0230 -1.3923 -1.0532
   70CHL1    C9 7623   4.523   2.569   6.686  0.3483 -0.7324 -0.2014
   70CHL1    H9 7624   4.614   2.630   6.705  0.9373 -0.9402 -2.1039
   70CHL1   C10 7625   4.502   2.566   6.531 -0.2870  0.4052 -0.5483
   70CHL1   C19 7626   4.352   2.523   6.504 -0.2076 -0.0458 -0.1443
   70CHL1  H19A 7627   4.316   2.432   6.556 -0.1222  0.2107  0.3660
   70CHL1  H19B 7628   4.292   2.614   6.522 -0.3546 -0.2318  0.3064
   70CHL1  H19C 7629   4.345   2.489   6.398  0.5505  0.0357 -0.2322
   70CHL1    C1 7630   4.528   2.705   6.474 -0.4830  0.3272 -0.3108
   70CHL1   H1A 7631   4.456   2.780   6.513  2.2907  3.9794 -1.6711
   70CHL1   H1B 7632   4.623   2.741   6.520 -1.7362  1.4807  1.5249
   70CHL1    C2 7633   4.546   2.718   6.321  0.6680  0.2549 -0.1399
   70CHL1   H2A 7634   4.599   2.814   6.299 -0.4858  1.1300  0.7551
   70CHL1   H2B 7635   4.459   2.705   6.253  1.0187  1.9979 -0.9818
   70CHL1   C20 7636   4.409   2.536   7.250 -0.5150  0.9497  0.0642
   70CHL1   H20 7637   4.346   2.445   7.255  1.1352 -0.4091 -2.0154
   70CHL1   C21 7638   4.330   2.670   7.233  0.3043  0.5145  0.0123
   70CHL1  H21A 7639   4.262   2.665   7.320 -1.3617 -0.2912 -1.2669
   70CHL1  H21B 7640   4.264   2.664   7.143 -0.0590 -0.6904  0.3388
   70CHL1  H21C 7641   4.406   2.751   7.229 -1.2341  2.0650  0.8334
   70CHL1   C22 7642   4.492   2.544   7.384  0.4050  0.0382 -0.1166
   70CHL1  H22A 7643   4.424   2.571   7.467  0.1253  0.9892 -0.6393
   70CHL1  H22B 7644   4.529   2.441   7.403 -0.3543 -0.3460 -0.6894
   70CHL1   C23 7645   4.622   2.633   7.384 -0.1458  0.7316  0.2981
   70CHL1  H23A 7646   4.705   2.572   7.343  0.9841  2.3260  0.1446
   70CHL1  H23B 7647   4.619   2.718   7.313  3.2948 -0.8491 -2.0377
   70CHL1   C24 7648   4.673   2.693   7.519 -0.1998 -0.5039  0.2249
   70CHL1  H24A 7649   4.733   2.785   7.504 -1.4927  0.5134  1.0403
   70CHL1  H24B 7650   4.582   2.717   7.579  0.0225  1.7343 -0.2417
   70CHL1   C25 7651   4.762   2.580   7.585  0.5919  0.3550 -0.4686
   70CHL1   H25 7652   4.716   2.481   7.564 -1.4989  1.7619 -3.2140
   70CHL1   C26 7653   4.907   2.578   7.522  0.3435  0.1352 -0.1738
   70CHL1  H26A 7654   4.905   2.535   7.419 -1.6137  1.9004 -0.9309
   70CHL1  H26B 7655   4.956   2.677   7.511  1.1804 -0.3742 -1.2999
   70CHL1  H26C 7656   4.972   2.516   7.587  0.2649  0.0004 -0.2233
   70CHL1   C27 7657   4.773   2.591   7.743 -0.0111  0.1464  0.8156
   70CHL1  H27A 7658   4.666   2.580   7.773 -0.4449  0.3408 -0.5880
   70CHL1  H27B 7659   4.828   2.500   7.774 -1.2668 -1.1940 -0.6985
   70CHL1  H27C 7660   4.825   2.685   7.770 -0.6791  1.1250 -1.0471
   71CHL1    C3 7661   1.788   3.728   6.178 -0.0574  0.4142 -0.5431
   71CHL1    H3 7662   1.889   3.772   6.191  0.7067 -1.2230 -0.5905
   71CHL1    O3 7663   1.750   3.730   6.041  0.3231 -0.1393 -0.6950
   71CHL1   H3' 7664   1.668   3.680   6.037 -0.1720 -0.2495  4.3396
   71CHL1    C4 7665   1.813   3.574   6.217  0.3026 -0.2920  0.1369
   71CHL1   H4A 7666   1.714   3.529   6.193 -2.2924  3.8946  1.8693
   71CHL1   H4B 7667   1.895   3.527   6.159  1.0254  1.5157 -0.3584
   71CHL1    C5 7668   1.847   3.562   6.361 -0.2560 -0.2103 -0.9095
   71CHL1    C6 7669   1.966   3.511   6.400  0.3685 -0.8934  0.8885
   71CHL1    H6 7670   2.044   3.490   6.326  1.3861  1.6351  1.1675
   71CHL1    C7 7671   2.013   3.482   6.544  0.1177 -0.0013 -0.4897
   71CHL1   H7A 7672   2.042   3.376   6.557  1.6250  0.3595 -0.6596
   71CHL1   H7B 7673   2.103   3.546   6.559 -0.3362  0.5000  0.1191
   71CHL1    C8 7674   1.895   3.504   6.643 -0.4195 -0.3321  0.1814
   71CHL1    H8 7675   1.837   3.409   6.645 -0.7579 -0.2771 -2.8541
   71CHL1   C14 7676   1.949   3.522   6.787 -0.5716 -0.4689  0.4670
   71CHL1   H14 7677   1.997   3.622   6.789 -1.6109  0.0292  1.5962
   71CHL1   C15 7678   2.047   3.409   6.833 -0.5019  0.1690 -0.7460
   71CHL1  H15A 7679   1.999   3.310   6.816  0.0318  0.1514 -2.2701
   71CHL1  H15B 7680   2.147   3.422   6.786 -0.1413  1.1282  0.2382
   71CHL1   C16 7681   2.046   3.433   6.983  0.3019 -0.2798 -0.7345
   71CHL1  H16A 7682   2.023   3.334   7.029 -1.4055  0.1763 -0.5411
   71CHL1  H16B 7683   2.138   3.464   7.036 -0.4244 -1.1330  1.1599
   71CHL1   C17 7684   1.931   3.533   7.016  0.2557 -0.9054 -0.6018
   71CHL1   H17 7685   1.972   3.637   7.015 -0.0270 -0.7921 -0.4110
   71CHL1   C13 7686   1.838   3.528   6.894 -0.5222 -0.0619 -0.0924
   71CHL1   C18 7687   1.749   3.405   6.901 -0.3017  0.5526  0.5665
   71CHL1  H18A 7688   1.698   3.384   6.805  0.8350 -0.0144  0.0607
   71CHL1  H18B 7689   1.796   3.310   6.937 -0.5513  0.7090  1.3186
   71CHL1  H18C 7690   1.669   3.435   6.972 -1.4580  1.4097 -1.0614
   71CHL1   C12 7691   1.753   3.646   6.861  0.6827 -1.2944 -0.6191
   71CHL1  H12A 7692   1.662   3.642   6.924  1.3956 -1.0043  0.4662
   71CHL1  H12B 7693   1.809   3.741   6.876 -0.5779 -0.9526  2.5592
   71CHL1   C11 7694   1.697   3.642   6.722 -0.0874  0.0905 -0.1946
   71CHL1  H11A 7695   1.622   3.560   6.720 -0.3332  0.2488  1.2979
   71CHL1  H11B 7696   1.640   3.734   6.697  0.5343  0.1686 -1.4075
   71CHL1    C9 7697   1.802   3.622   6.612 -0.2754  0.2996  0.7882
   71CHL1    H9 7698   1.869   3.710   6.620 -1.8427  1.5078  1.0837
   71CHL1   C10 7699   1.743   3.615   6.466 -0.4260 -0.3351 -0.4093
   71CHL1   C19 7700   1.613   3.540   6.470 -0.4058  0.1297 -0.7162
   71CHL1  H19A 7701   1.640   3.445   6.521 -0.6165 -0.8406 -2.3405
   71CHL1  H19B 7702   1.527   3.592   6.518  0.8230  0.7237  0.9238
   71CHL1  H19C 7703   1.576   3.498   6.374 -1.0740  1.5311 -1.0936
   71CHL1    C1 7704   1.727   3.769   6.425 -0.3766  0.3585  0.0103
   71CHL1   H1A 7705   1.658   3.810   6.502 -0.8958 -3.1755  1.6160
   71CHL1   H1B 7706   1.817   3.832   6.441 -0.0581 -0.0442 -0.1777
   71CHL1    C2 7707   1.681   3.784   6.280  0.0604  0.1433  0.1867
   71CHL1   H2A 7708   1.687   3.891   6.249  2.0264  0.1357  0.3784
   71CHL1   H2B 7709   1.584   3.731   6.278 -0.8170  1.6682  0.4150
   71CHL1   C20 7710   1.873   3.511   7.158 -0.0872 -0.4494 -0.6875
   71CHL1   H20 7711   1.808   3.422   7.164 -1.0555  0.3452  1.6997
   71CHL1   C21 7712   1.786   3.638   7.199 -0.8313  0.1211  0.4391
   71CHL1  H21A 7713   1.707   3.604   7.270  0.7222 -0.3378  2.0369
   71CHL1  H21B 7714   1.747   3.685   7.107 -1.0980 -1.9532 -0.5631
   71CHL1  H21C 7715   1.841   3.718   7.253 -0.7667 -0.7982  1.8115
   71CHL1   C22 7716   1.984   3.504   7.263 -0.2672  0.0950  1.0129
   71CHL1  H22A 7717   2.035   3.407   7.244 -0.1014 -0.1032  2.3438
   71CHL1  H22B 7718   2.045   3.594   7.240  0.9952 -1.3246 -1.5607
   71CHL1   C23 7719   1.942   3.509   7.407 -0.0048 -0.0284 -0.6090
   71CHL1  H23A 7720   1.913   3.615   7.427 -0.5218 -0.0840 -1.0464
   71CHL1  H23B 7721   1.862   3.436   7.426  0.4849 -1.2928 -3.0221
   71CHL1   C24 7722   2.059   3.492   7.504  0.2065  0.1138 -0.3822
   71CHL1  H24A 7723   2.089   3.386   7.520  0.7808  0.6193  2.3056
   71CHL1  H24B 7724   2.150   3.539   7.460  0.0521  0.5334 -0.2604
   71CHL1   C25 7725   2.028   3.564   7.634 -0.4992  0.2429 -0.6612
   71CHL1   H25 7726   2.042   3.673   7.616  2.7990 -0.1928 -1.3982
   71CHL1   C26 7727   1.881   3.553   7.694 -0.0890  0.0323 -0.3339
   71CHL1  H26A 7728   1.868   3.444   7.713  2.2046 -0.3845 -0.7935
   71CHL1  H26B 7729   1.872   3.608   7.790  0.3200 -0.1141 -0.2064
   71CHL1  H26C 7730   1.810   3.597   7.621  0.7087  0.1563 -1.0478
   71CHL1   C27 7731   2.143   3.540   7.735  0.1558 -0.6884  0.6850
   71CHL1  H27A 7732   2.236   3.560   7.678 -0.1128  0.1185  0.5213
   71CHL1  H27B 7733   2.132   3.604   7.824  1.8770 -0.1192  0.5257
   71CHL1  H27C 7734   2.135   3.432   7.759 -0.4108 -1.0669 -1.0602
   72CHL1    C3 7735   4.734   3.245   6.487  0.2638 -0.4287 -0.7910
   72CHL1    H3 7736   4.810   3.326   6.486 -0.7989  0.6540  1.0737
   72CHL1    O3 7737   4.668   3.244   6.362 -0.4771 -0.1398 -0.2666
   72CHL1   H3' 7738   4.620   3.161   6.372  1.1137 -1.0178  0.3689
   72CHL1    C4 7739   4.803   3.102   6.501  0.9549 -0.2405  0.0606
   72CHL1   H4A 7740   4.739   3.012   6.489  0.4455 -0.1074  1.6040
   72CHL1   H4B 7741   4.883   3.090   6.425  1.0679  0.3785  0.0778
   72CHL1    C5 7742   4.866   3.092   6.640 -0.5801  0.5223  0.3579
   72CHL1    C6 7743   4.997   3.063   6.651 -0.6353  0.0135  0.2170
   72CHL1    H6 7744   5.057   3.038   6.562 -2.9046 -1.5246 -0.9906
   72CHL1    C7 7745   5.045   3.019   6.785 -0.3614  0.0502 -0.2653
   72CHL1   H7A 7746   5.102   2.924   6.779  1.7000  1.1839  0.5284
   72CHL1   H7B 7747   5.117   3.095   6.819  0.9242 -1.6340  0.9392
   72CHL1    C8 7748   4.942   2.996   6.900  0.7802  0.2307  0.0468
   72CHL1    H8 7749   4.889   2.899   6.891  1.0071  0.0353  0.7435
   72CHL1   C14 7750   5.013   2.998   7.038  0.7738  0.7978 -0.1398
   72CHL1   H14 7751   5.043   3.105   7.039  1.6290  0.5694 -0.3195
   72CHL1   C15 7752   5.142   2.919   7.053 -0.1752 -0.3440 -0.1088
   72CHL1  H15A 7753   5.129   2.819   7.006 -3.7384  0.2252 -0.5812
   72CHL1  H15B 7754   5.226   2.978   7.012 -0.1320  0.3508  0.9360
   72CHL1   C16 7755   5.150   2.915   7.205 -0.0262  0.0959 -0.0901
   72CHL1  H16A 7756   5.150   2.810   7.241  1.9505  0.0609 -0.1044
   72CHL1  H16B 7757   5.236   2.973   7.244 -0.4908  2.1138 -1.8559
   72CHL1   C17 7758   5.027   2.994   7.264 -0.1994  0.3704 -0.1304
   72CHL1   H17 7759   5.061   3.100   7.259  3.2514 -0.6702 -1.2057
   72CHL1   C13 7760   4.918   2.972   7.161 -0.1789 -0.8446 -0.2995
   72CHL1   C18 7761   4.861   2.830   7.166  0.4947  0.3748 -0.6305
   72CHL1  H18A 7762   4.797   2.819   7.076  1.0173  2.2449 -1.2694
   72CHL1  H18B 7763   4.943   2.756   7.170 -0.5459 -0.7841  0.9276
   72CHL1  H18C 7764   4.804   2.817   7.261  1.3562 -0.5324 -0.2251
   72CHL1   C12 7765   4.809   3.080   7.157 -0.1202 -0.3916 -0.8107
   72CHL1  H12A 7766   4.736   3.061   7.239 -1.1246  1.3473 -1.2484
   72CHL1  H12B 7767   4.858   3.178   7.175  1.3421 -1.2527  0.1433
   72CHL1   C11 7768   4.740   3.094   7.021  1.2225 -0.0368 -0.2741
   72CHL1  H11A 7769   4.681   3.002   7.003  1.2154 -0.5818  2.1542
   72CHL1  H11B 7770   4.669   3.180   7.019  0.6204 -0.4912  0.8077
   72CHL1    C9 7771   4.839   3.109   6.898 -0.9493  0.2493  0.3713
   72CHL1    H9 7772   4.892   3.206   6.904 -0.4523  0.3763 -3.7307
   72CHL1   C10 7773   4.770   3.112   6.756 -0.2396  0.4491  0.0416
   72CHL1   C19 7774   4.655   3.010   6.748 -0.3717  0.1751 -0.1369
   72CHL1  H19A 7775   4.614   2.990   6.647 -0.6386 -1.8960  0.3295
   72CHL1  H19B 7776   4.684   2.909   6.784 -1.4154  0.5314  1.8418
   72CHL1  H19C 7777   4.572   3.051   6.810 -0.6142 -1.9469  1.0327
   72CHL1    C1 7778   4.711   3.258   6.737  0.4668  0.2328  0.0378
   72CHL1   H1A 7779   4.644   3.277   6.824  0.4559 -0.9138  0.3019
   72CHL1   H1B 7780   4.796   3.329   6.749 -0.3350  1.0119  1.4014
   72CHL1    C2 7781   4.641   3.280   6.603  0.1698  0.3281 -0.0393
   72CHL1   H2A 7782   4.612   3.385   6.582 -1.8356 -0.1072  0.3498
   72CHL1   H2B 7783   4.542   3.230   6.594  0.5860 -0.5443  0.1375
   72CHL1   C20 7784   4.997   2.958   7.410 -0.5033 -0.5494  0.0362
   72CHL1   H20 7785   4.978   2.848   7.415 -0.6651 -0.4746  1.4120
   72CHL1   C21 7786   4.873   3.025   7.465 -0.3447 -0.2641 -0.5384
   72CHL1  H21A 7787   4.860   3.012   7.575 -2.2763 -2.6249 -0.9673
   72CHL1  H21B 7788   4.782   2.993   7.409 -1.2463  0.6823  0.3128
   72CHL1  H21C 7789   4.888   3.134   7.445 -0.6419 -0.1588 -0.2051
   72CHL1   C22 7790   5.128   2.973   7.497  0.2828 -0.6926 -0.5677
   72CHL1  H22A 7791   5.198   2.896   7.459 -0.8238 -2.4165  0.7248
   72CHL1  H22B 7792   5.172   3.075   7.502 -1.2886  0.0234 -0.5357
   72CHL1   C23 7793   5.112   2.926   7.644 -0.0673  0.0567  0.4219
   72CHL1  H23A 7794   5.033   2.984   7.696 -0.4269 -0.1993  0.1691
   72CHL1  H23B 7795   5.066   2.825   7.644  0.0603 -0.0398 -1.1210
   72CHL1   C24 7796   5.236   2.910   7.732 -0.3863  0.2673 -0.0383
   72CHL1  H24A 7797   5.314   2.862   7.669  0.7371  2.3523 -0.3158
   72CHL1  H24B 7798   5.269   3.012   7.761  1.3261 -0.2497 -0.0569
   72CHL1   C25 7799   5.206   2.832   7.859 -0.9094  1.2514 -0.3429
   72CHL1   H25 7800   5.174   2.732   7.824 -4.4129  2.2759 -0.5569
   72CHL1   C26 7801   5.336   2.831   7.942  0.7376 -1.2649 -0.6078
   72CHL1  H26A 7802   5.422   2.850   7.874 -1.3246  1.7251 -2.6270
   72CHL1  H26B 7803   5.337   2.917   8.012 -2.8410 -1.9564  0.5141
   72CHL1  H26C 7804   5.354   2.742   8.006  3.4562  0.2224  0.8552
   72CHL1   C27 7805   5.084   2.871   7.941  0.4702  0.0723  0.6580
   72CHL1  H27A 7806   5.070   2.829   8.043  0.0131  0.6826  0.8520
   72CHL1  H27B 7807   5.102   2.976   7.972  1.3955  1.2369 -3.2164
   72CHL1  H27C 7808   4.983   2.870   7.896  0.6900  0.8680  0.1299
   73CHL1    C3 7809   2.794   5.008   5.963 -0.2254 -0.0915 -0.8469
   73CHL1    H3 7810   2.864   5.078   6.011 -1.8172  1.0304 -0.0609
   73CHL1    O3 7811   2.805   5.009   5.822 -0.1484 -0.0087 -0.0062
   73CHL1   H3' 7812   2.724   4.964   5.798 -1.1204  1.9089 -0.4402
   73CHL1    C4 7813   2.813   4.870   6.017 -0.5214  0.1147 -0.5355
   73CHL1   H4A 7814   2.746   4.796   5.969 -0.5092  0.5312 -1.2147
   73CHL1   H4B 7815   2.920   4.844   6.002 -0.2700  1.2328 -0.7886
   73CHL1    C5 7816   2.786   4.866   6.168 -0.4136  0.0153 -0.2814
   73CHL1    C6 7817   2.877   4.828   6.257  1.0066  0.1045  0.1956
   73CHL1    H6 7818   2.973   4.788   6.222  1.6905  2.1629 -0.3749
   73CHL1    C7 7819   2.844   4.804   6.406 -0.2932 -0.0219  0.3497
   73CHL1   H7A 7820   2.869   4.705   6.450 -0.9800 -1.1800 -1.7276
   73CHL1   H7B 7821   2.897   4.879   6.469  1.0293 -1.2412  0.7347
   73CHL1    C8 7822   2.693   4.824   6.453 -0.6224 -0.4024 -0.7060
   73CHL1    H8 7823   2.635   4.733   6.428  1.2059 -1.6638 -0.5106
   73CHL1   C14 7824   2.690   4.861   6.598 -0.0803 -0.7880  0.3548
   73CHL1   H14 7825   2.739   4.961   6.600 -1.2765 -0.1929  1.2709
   73CHL1   C15 7826   2.759   4.772   6.697  0.1412 -0.3676 -0.0758
   73CHL1  H15A 7827   2.742   4.664   6.675  1.2424 -0.5361 -0.1428
   73CHL1  H15B 7828   2.867   4.796   6.684 -0.5037  2.3555 -0.8657
   73CHL1   C16 7829   2.703   4.813   6.835  0.2561  0.0228 -0.4977
   73CHL1  H16A 7830   2.685   4.722   6.896  0.8748  0.5781  0.5366
   73CHL1  H16B 7831   2.769   4.879   6.895  0.3459 -0.7687  0.2943
   73CHL1   C17 7832   2.576   4.902   6.805 -0.0094 -0.3600 -0.0438
   73CHL1   H17 7833   2.612   5.007   6.817 -0.9162 -0.2563  2.1481
   73CHL1   C13 7834   2.551   4.890   6.653 -0.2260  0.0918 -0.3189
   73CHL1   C18 7835   2.473   4.756   6.636  0.5622 -0.5193 -0.4345
   73CHL1  H18A 7836   2.459   4.725   6.531  0.0773  0.9719 -0.8423
   73CHL1  H18B 7837   2.526   4.675   6.690 -0.3566  0.0092  1.3839
   73CHL1  H18C 7838   2.369   4.765   6.675 -0.2623  1.0460 -2.7780
   73CHL1   C12 7839   2.495   5.014   6.580 -0.0465 -0.2251  0.6527
   73CHL1  H12A 7840   2.392   5.028   6.620 -0.1215  1.0968  0.0448
   73CHL1  H12B 7841   2.560   5.098   6.614 -1.0308  0.0106  2.0683
   73CHL1   C11 7842   2.496   4.995   6.426  0.1663 -0.2720  0.0624
   73CHL1  H11A 7843   2.427   4.911   6.404 -1.2394  0.2638  2.1581
   73CHL1  H11B 7844   2.474   5.092   6.376 -2.4146 -1.5158 -1.4172
   73CHL1    C9 7845   2.631   4.940   6.370  0.6060 -0.8511  0.3183
   73CHL1    H9 7846   2.704   5.021   6.391  1.5329 -1.3271 -0.9295
   73CHL1   C10 7847   2.649   4.926   6.223  0.0468 -0.3151  0.0200
   73CHL1   C19 7848   2.537   4.838   6.159 -0.5291 -1.0698 -0.4225
   73CHL1  H19A 7849   2.527   4.743   6.215 -0.6537 -0.0450  1.4097
   73CHL1  H19B 7850   2.435   4.880   6.175  0.1230  0.9868 -1.3075
   73CHL1  H19C 7851   2.549   4.832   6.049  1.9623  1.1742 -0.3904
   73CHL1    C1 7852   2.627   5.060   6.158 -0.1620 -0.4106  0.0605
   73CHL1   H1A 7853   2.525   5.099   6.172  0.1811  1.3375 -2.0024
   73CHL1   H1B 7854   2.696   5.122   6.219 -1.7490  1.0087  0.4565
   73CHL1    C2 7855   2.654   5.069   6.004  0.0632  0.3182 -0.2576
   73CHL1   H2A 7856   2.643   5.172   5.964 -2.9407  1.2649  2.5444
   73CHL1   H2B 7857   2.569   5.019   5.953  2.2690 -2.1083 -1.8259
   73CHL1   C20 7858   2.463   4.889   6.917 -0.3317  0.0380 -0.1053
   73CHL1   H20 7859   2.427   4.785   6.906  1.2682 -0.4968 -0.5429
   73CHL1   C21 7860   2.340   4.974   6.890  0.4375 -0.1805 -0.5514
   73CHL1  H21A 7861   2.259   4.952   6.964  0.2772 -0.4414 -0.8037
   73CHL1  H21B 7862   2.298   4.958   6.789 -0.0358 -1.9371 -0.1122
   73CHL1  H21C 7863   2.385   5.076   6.893  2.9717 -1.0939 -3.1753
   73CHL1   C22 7864   2.507   4.906   7.065 -0.1967 -0.1248  0.4089
   73CHL1  H22A 7865   2.414   4.897   7.126 -0.7791 -0.8358 -0.5510
   73CHL1  H22B 7866   2.575   4.823   7.096 -0.0309 -0.9049 -1.8517
   73CHL1   C23 7867   2.558   5.042   7.101  0.3431  0.0966 -0.0511
   73CHL1  H23A 7868   2.663   5.043   7.065  0.6963 -1.3295  0.8616
   73CHL1  H23B 7869   2.495   5.123   7.058 -0.0088 -0.3901 -0.4494
   73CHL1   C24 7870   2.574   5.057   7.252 -0.1582 -0.3498  0.1741
   73CHL1  H24A 7871   2.485   5.022   7.308  0.7247 -2.0377  0.6142
   73CHL1  H24B 7872   2.650   4.983   7.285  0.6516 -0.7633 -2.4386
   73CHL1   C25 7873   2.616   5.214   7.288  0.0235  0.1745  0.6627
   73CHL1   H25 7874   2.693   5.233   7.211 -2.6195  0.7385 -2.0483
   73CHL1   C26 7875   2.501   5.310   7.248  0.2321  0.3322  0.4725
   73CHL1  H26A 7876   2.532   5.415   7.267  1.4424  0.0238  0.2351
   73CHL1  H26B 7877   2.471   5.300   7.142 -0.5880  2.2156  0.4874
   73CHL1  H26C 7878   2.414   5.287   7.314 -0.2447  1.5996  0.3115
   73CHL1   C27 7879   2.668   5.232   7.428 -0.7207 -0.3081  0.6986
   73CHL1  H27A 7880   2.595   5.187   7.498 -1.1249  0.0624  0.5177
   73CHL1  H27B 7881   2.766   5.179   7.432  0.2813  1.4921  1.9094
   73CHL1  H27C 7882   2.679   5.341   7.448 -0.4416 -0.5346  1.8593
   74CHL1    C3 7883   1.615   4.600   6.224 -0.1892 -0.6118  1.0538
   74CHL1    H3 7884   1.515   4.598   6.271 -1.0304 -0.3619 -0.6658
   74CHL1    O3 7885   1.586   4.595   6.080  0.2774 -0.4188 -0.1740
   74CHL1   H3' 7886   1.675   4.597   6.043 -0.0058  2.0942 -0.8890
   74CHL1    C4 7887   1.689   4.732   6.258 -0.4299 -0.8089 -0.0890
   74CHL1   H4A 7888   1.794   4.746   6.224 -0.9269 -0.1230 -1.3609
   74CHL1   H4B 7889   1.637   4.826   6.231  1.8534  0.5493 -0.0030
   74CHL1    C5 7890   1.709   4.731   6.408 -0.1696 -0.3843 -0.3417
   74CHL1    C6 7891   1.655   4.830   6.490  0.1492 -0.2812  0.0748
   74CHL1    H6 7892   1.593   4.908   6.442 -0.6965 -0.5019  0.7682
   74CHL1    C7 7893   1.685   4.839   6.641  0.5000  0.3221  0.3775
   74CHL1   H7A 7894   1.716   4.943   6.663  0.2833  0.6853 -0.9717
   74CHL1   H7B 7895   1.593   4.814   6.698 -0.5799 -1.6664 -2.0257
   74CHL1    C8 7896   1.804   4.752   6.688 -0.2742 -0.7532  0.3602
   74CHL1    H8 7897   1.897   4.798   6.649  0.0240 -0.5450  1.2799
   74CHL1   C14 7898   1.824   4.745   6.839 -0.5360  0.2486  0.6091
   74CHL1   H14 7899   1.730   4.698   6.874  0.4088 -1.2593  1.2580
   74CHL1   C15 7900   1.812   4.881   6.912 -0.3526  0.6270 -0.1893
   74CHL1  H15A 7901   1.867   4.964   6.863 -2.8203  2.7524  0.4372
   74CHL1  H15B 7902   1.710   4.922   6.928 -0.5311 -0.1576  0.8166
   74CHL1   C16 7903   1.867   4.835   7.053 -0.9543  0.1919 -0.7127
   74CHL1  H16A 7904   1.926   4.918   7.096 -2.0064  1.4986 -1.7074
   74CHL1  H16B 7905   1.782   4.825   7.124  0.8094 -0.1906  1.4643
   74CHL1   C17 7906   1.926   4.688   7.050 -0.2140  0.6945  0.2914
   74CHL1   H17 7907   1.844   4.619   7.080  1.0430 -0.6251  0.7782
   74CHL1   C13 7908   1.939   4.659   6.894 -0.1709 -0.1023  0.2784
   74CHL1   C18 7909   2.070   4.730   6.839 -0.6171  0.1388 -0.4535
   74CHL1  H18A 7910   2.093   4.818   6.903  1.6252 -0.3909 -0.4509
   74CHL1  H18B 7911   2.158   4.663   6.844 -1.3841 -1.1056 -2.4169
   74CHL1  H18C 7912   2.067   4.751   6.730  0.0804 -1.0715 -0.7157
   74CHL1   C12 7913   1.911   4.512   6.839  0.6859  1.2635  0.2708
   74CHL1  H12A 7914   1.993   4.446   6.875 -0.4951  0.2698  1.2450
   74CHL1  H12B 7915   1.817   4.465   6.875  0.9873 -0.5972 -1.1846
   74CHL1   C11 7916   1.912   4.509   6.688 -0.0095 -0.3349 -0.1773
   74CHL1  H11A 7917   2.016   4.540   6.665 -0.1959 -0.3215 -1.0219
   74CHL1  H11B 7918   1.895   4.403   6.658 -2.0750  0.0397 -0.4884
   74CHL1    C9 7919   1.800   4.607   6.627 -0.2575  0.1511 -0.2953
   74CHL1    H9 7920   1.708   4.560   6.670  0.7457 -1.5818  0.0624
   74CHL1   C10 7921   1.794   4.609   6.467 -0.4291  0.4506  0.3843
   74CHL1   C19 7922   1.939   4.613   6.409  0.2142 -0.1046 -0.1005
   74CHL1  H19A 7923   1.992   4.516   6.419  0.2090  0.0858  2.7223
   74CHL1  H19B 7924   1.931   4.631   6.300  2.3093 -1.5985 -0.5643
   74CHL1  H19C 7925   2.006   4.684   6.463  2.2065 -1.3626 -0.8345
   74CHL1    C1 7926   1.732   4.482   6.415 -0.2413 -0.3626  0.8859
   74CHL1   H1A 7927   1.791   4.392   6.441 -0.0307  0.1490  2.2333
   74CHL1   H1B 7928   1.638   4.470   6.472 -1.5555  0.7888 -0.9219
   74CHL1    C2 7929   1.703   4.477   6.264 -0.6942  0.9513 -0.3237
   74CHL1   H2A 7930   1.644   4.387   6.238 -2.5895  1.7454  1.0156
   74CHL1   H2B 7931   1.796   4.481   6.203  0.1197 -1.0508  0.7265
   74CHL1   C20 7932   2.039   4.672   7.143 -0.6636  0.4136 -0.2950
   74CHL1   H20 7933   2.126   4.730   7.107  0.4850 -0.6669  0.6654
   74CHL1   C21 7934   2.095   4.533   7.128  0.1392  0.6531  1.0046
   74CHL1  H21A 7935   2.141   4.521   7.028  1.7024  1.2395  1.6229
   74CHL1  H21B 7936   2.011   4.461   7.124  0.3750  0.3785  1.0237
   74CHL1  H21C 7937   2.160   4.500   7.212 -0.4618  0.4821  1.4081
   74CHL1   C22 7938   2.011   4.711   7.290  0.1415  0.5312 -0.4323
   74CHL1  H22A 7939   1.926   4.781   7.308 -1.1456 -1.3763  1.3575
   74CHL1  H22B 7940   1.977   4.619   7.342 -0.4049  0.7571 -0.3803
   74CHL1   C23 7941   2.127   4.763   7.369 -0.1711  0.2419 -0.0451
   74CHL1  H23A 7942   2.210   4.690   7.363 -0.3461 -0.0187  0.6189
   74CHL1  H23B 7943   2.166   4.855   7.320 -2.9245  2.5377  1.7025
   74CHL1   C24 7944   2.082   4.791   7.514 -0.4611  0.3874 -0.4903
   74CHL1  H24A 7945   2.021   4.883   7.516  1.9020  2.0431 -0.5525
   74CHL1  H24B 7946   2.024   4.706   7.555  0.0187  0.7634  1.0433
   74CHL1   C25 7947   2.193   4.816   7.620 -0.0790  0.5898 -0.9467
   74CHL1   H25 7948   2.245   4.717   7.621  0.4677  0.8656  0.7959
   74CHL1   C26 7949   2.287   4.918   7.575 -1.0290  0.3335  0.2322
   74CHL1  H26A 7950   2.334   4.873   7.485  0.3361 -0.4942  1.3332
   74CHL1  H26B 7951   2.242   5.019   7.559 -0.9035  0.4303  0.4982
   74CHL1  H26C 7952   2.375   4.932   7.641 -0.6953  0.6654 -0.2736
   74CHL1   C27 7953   2.133   4.845   7.758  0.3366  0.3353 -0.7451
   74CHL1  H27A 7954   2.060   4.764   7.782  1.5278 -0.6695 -0.4179
   74CHL1  H27B 7955   2.208   4.840   7.840  1.8398  1.7227 -1.9882
   74CHL1  H27C 7956   2.080   4.943   7.764 -0.4192 -0.0569 -0.8429
   75CHL1    C3 7957   5.117   5.083   6.417  0.4471  0.1863 -0.2221
   75CHL1    H3 7958   5.100   5.192   6.435 -0.2469  0.8558 -4.0849
   75CHL1    O3 7959   5.095   5.053   6.282  0.4526  0.2444  0.5500
   75CHL1   H3' 7960   5.073   4.959   6.282 -1.9605  0.7104 -1.3397
   75CHL1    C4 7961   5.261   5.040   6.456 -1.2809 -0.1156 -0.6181
   75CHL1   H4A 7962   5.269   4.929   6.448  0.1830 -0.3055  2.3312
   75CHL1   H4B 7963   5.330   5.084   6.381 -0.0488  1.7291  1.4855
   75CHL1    C5 7964   5.291   5.096   6.594 -0.1161 -0.2668 -0.7831
   75CHL1    C6 7965   5.390   5.179   6.618  0.2674  0.2411  0.4410
   75CHL1    H6 7966   5.443   5.213   6.528 -0.7300 -0.4246 -0.4161
   75CHL1    C7 7967   5.414   5.242   6.752  0.0924  0.0519 -0.8193
   75CHL1   H7A 7968   5.524   5.244   6.767  0.0575 -0.1842 -0.5189
   75CHL1   H7B 7969   5.368   5.342   6.763  1.8753  0.7501  0.9270
   75CHL1    C8 7970   5.355   5.159   6.870  0.2939  0.1027  0.0604
   75CHL1    H8 7971   5.411   5.064   6.879  1.5606  1.0047  3.3516
   75CHL1   C14 7972   5.348   5.229   7.008 -0.1279 -0.1592  0.5107
   75CHL1   H14 7973   5.269   5.307   6.994  1.0143  1.1907  1.3540
   75CHL1   C15 7974   5.471   5.312   7.053 -0.4899 -0.4625 -0.1308
   75CHL1  H15A 7975   5.563   5.252   7.041  0.9844  1.0929  2.4694
   75CHL1  H15B 7976   5.492   5.411   7.006 -0.0904  1.1839  3.1817
   75CHL1   C16 7977   5.451   5.328   7.205  0.3895  0.1209  0.5650
   75CHL1  H16A 7978   5.536   5.302   7.272  1.3542 -1.5502 -1.1929
   75CHL1  H16B 7979   5.426   5.435   7.221 -0.8193 -0.0930  0.1894
   75CHL1   C17 7980   5.322   5.251   7.245 -0.1766  0.0177  0.2283
   75CHL1   H17 7981   5.229   5.311   7.232 -1.3193 -1.4286  1.3060
   75CHL1   C13 7982   5.305   5.151   7.131 -0.1889  0.6952  0.4022
   75CHL1   C18 7983   5.411   5.039   7.161 -0.5395 -0.0819  0.0083
   75CHL1  H18A 7984   5.434   4.981   7.069 -4.6270 -0.9815 -0.6380
   75CHL1  H18B 7985   5.504   5.091   7.191  0.6327 -2.5281  0.8217
   75CHL1  H18C 7986   5.381   4.973   7.245  1.0608 -0.5534  0.2226
   75CHL1   C12 7987   5.158   5.109   7.097 -0.3736 -0.4245 -0.2302
   75CHL1  H12A 7988   5.106   5.052   7.177  0.4393 -1.0778 -0.1507
   75CHL1  H12B 7989   5.103   5.205   7.093  0.4571  0.1903  1.7253
   75CHL1   C11 7990   5.159   5.043   6.961  0.3901  0.3032  0.1655
   75CHL1  H11A 7991   5.206   4.943   6.963  0.4449  0.2543 -1.8566
   75CHL1  H11B 7992   5.049   5.034   6.943  0.5693 -3.0082  0.0725
   75CHL1    C9 7993   5.216   5.110   6.840  0.1760 -0.7886 -0.3375
   75CHL1    H9 7994   5.153   5.201   6.832 -0.6996 -1.3546  0.0722
   75CHL1   C10 7995   5.189   5.043   6.702 -0.3655 -0.1861  0.1129
   75CHL1   C19 7996   5.223   4.892   6.722 -0.6118 -0.2596  0.2952
   75CHL1  H19A 7997   5.222   4.839   6.625 -1.4139 -0.1296  0.2295
   75CHL1  H19B 7998   5.321   4.859   6.763 -0.9989 -1.7618  0.0530
   75CHL1  H19C 7999   5.143   4.854   6.789 -0.2636  0.7731  1.3471
   75CHL1    C1 8000   5.041   5.066   6.657  0.1734  0.2523 -0.1453
   75CHL1   H1A 8001   4.968   5.017   6.725  0.3357  0.5680  0.2539
   75CHL1   H1B 8002   5.016   5.174   6.655 -0.1635  0.1708 -1.4175
   75CHL1    C2 8003   5.017   5.019   6.507 -0.1423 -0.2269 -0.3200
   75CHL1   H2A 8004   4.921   5.063   6.472  0.1574 -0.7207 -1.8295
   75CHL1   H2B 8005   5.013   4.908   6.502 -0.5666 -0.2992  1.0076
   75CHL1   C20 8006   5.319   5.204   7.395 -0.4961 -0.4111 -0.6044
   75CHL1   H20 8007   5.420   5.162   7.417 -0.8928 -0.8221  0.5311
   75CHL1   C21 8008   5.198   5.117   7.427 -0.0301  0.4972  0.3660
   75CHL1  H21A 8009   5.104   5.156   7.384 -1.5632 -1.3113  1.8840
   75CHL1  H21B 8010   5.175   5.103   7.535 -1.7809 -0.6186 -0.1050
   75CHL1  H21C 8011   5.215   5.015   7.385 -0.5485  0.3986  0.3922
   75CHL1   C22 8012   5.321   5.327   7.498  0.0335  0.0803  0.8007
   75CHL1  H22A 8013   5.385   5.406   7.453 -0.6774  0.3293  0.1898
   75CHL1  H22B 8014   5.217   5.362   7.515 -0.2231 -1.0214  1.5804
   75CHL1   C23 8015   5.366   5.300   7.638  0.3625  0.4370 -0.1910
   75CHL1  H23A 8016   5.305   5.217   7.679 -1.2800  1.0438 -1.2947
   75CHL1  H23B 8017   5.468   5.257   7.629  0.8274  1.4479  0.1544
   75CHL1   C24 8018   5.374   5.431   7.722  0.0740  1.3671  0.7414
   75CHL1  H24A 8019   5.450   5.494   7.670  0.2950  1.4230  1.1335
   75CHL1  H24B 8020   5.280   5.491   7.718 -1.0114 -0.2660  0.8856
   75CHL1   C25 8021   5.419   5.405   7.867  0.5445  0.0162 -0.7388
   75CHL1   H25 8022   5.346   5.345   7.926  0.7492 -0.6481 -1.1426
   75CHL1   C26 8023   5.557   5.340   7.873  0.2605  0.2453  0.1026
   75CHL1  H26A 8024   5.565   5.237   7.831 -2.3777  0.1895 -0.4248
   75CHL1  H26B 8025   5.634   5.407   7.830  1.3094 -1.2657 -0.4995
   75CHL1  H26C 8026   5.592   5.324   7.977  1.5036 -2.7448 -0.6622
   75CHL1   C27 8027   5.431   5.549   7.929  0.3723  1.1801 -0.2370
   75CHL1  H27A 8028   5.460   5.540   8.036  1.3370  0.5680 -0.5385
   75CHL1  H27B 8029   5.511   5.612   7.883  1.5605 -0.2297 -0.1648
   75CHL1  H27C 8030   5.334   5.602   7.916 -0.6868 -0.2953  1.2719
   76CHL1    C3 8031   2.708   0.905   6.261 -0.2094 -0.1890 -0.1030
   76CHL1    H3 8032   2.718   0.795   6.279  0.4784  0.1543  1.7984
   76CHL1    O3 8033   2.786   0.931   6.144 -0.1678 -0.8545  0.0303
   76CHL1   H3' 8034   2.774   1.026   6.134 -0.0835 -0.8332  0.1262
   76CHL1    C4 8035   2.561   0.939   6.228 -0.4143  0.0080  0.5693
   76CHL1   H4A 8036   2.563   1.046   6.201  2.2116  0.6494  2.9631
   76CHL1   H4B 8037   2.528   0.886   6.135 -0.5710 -0.2253  0.7571
   76CHL1    C5 8038   2.470   0.921   6.343  0.0408  0.2225 -0.6689
   76CHL1    C6 8039   2.360   0.844   6.333 -0.2547  0.0740 -0.2721
   76CHL1    H6 8040   2.342   0.803   6.232 -1.6836 -1.5564  0.5992
   76CHL1    C7 8041   2.269   0.804   6.442 -0.2770  0.3677 -0.0284
   76CHL1   H7A 8042   2.161   0.807   6.417 -0.1372 -1.5994 -1.0678
   76CHL1   H7B 8043   2.299   0.704   6.482  0.8932  1.0888  0.9555
   76CHL1    C8 8044   2.290   0.903   6.562  0.8065  0.0155 -0.6334
   76CHL1    H8 8045   2.252   1.005   6.537  2.3760  0.4163 -1.5434
   76CHL1   C14 8046   2.210   0.837   6.671  0.3709  0.4128 -0.4496
   76CHL1   H14 8047   2.235   0.729   6.682  1.7016  0.8345  1.0653
   76CHL1   C15 8048   2.058   0.835   6.662 -0.2993 -0.4551  0.0200
   76CHL1  H15A 8049   2.015   0.932   6.632  1.7062  0.3081 -0.5724
   76CHL1  H15B 8050   2.020   0.766   6.583 -0.3379  0.5657 -0.8759
   76CHL1   C16 8051   2.020   0.789   6.799  0.0508  0.1385 -1.1639
   76CHL1  H16A 8052   1.928   0.836   6.841  0.4534 -0.9149  1.0967
   76CHL1  H16B 8053   2.003   0.679   6.792 -0.4495  0.1960 -0.9137
   76CHL1   C17 8054   2.136   0.825   6.891  0.2551  0.1857 -0.4808
   76CHL1   H17 8055   2.190   0.728   6.895 -0.8726 -0.4579 -0.4259
   76CHL1   C13 8056   2.234   0.904   6.807 -1.0015 -0.0090  0.1385
   76CHL1   C18 8057   2.189   1.053   6.810  0.3017  0.0255  0.3839
   76CHL1  H18A 8058   2.221   1.106   6.902  0.6744 -2.2044  1.5912
   76CHL1  H18B 8059   2.251   1.102   6.732 -1.1037 -0.1467 -0.8748
   76CHL1  H18C 8060   2.082   1.075   6.791  0.4257  0.1120 -0.2336
   76CHL1   C12 8061   2.387   0.893   6.843 -0.2112 -0.3158 -0.5756
   76CHL1  H12A 8062   2.405   0.940   6.941 -2.1481  0.2828 -0.4724
   76CHL1  H12B 8063   2.411   0.784   6.841  1.1282 -0.1433  2.3293
   76CHL1   C11 8064   2.476   0.951   6.733  0.2731 -1.0127  0.1681
   76CHL1  H11A 8065   2.469   1.061   6.747 -0.2854 -0.6773 -2.2693
   76CHL1  H11B 8066   2.578   0.919   6.761  0.9622  1.8904  1.3863
   76CHL1    C9 8067   2.437   0.905   6.592 -0.7218 -0.7905 -0.3825
   76CHL1    H9 8068   2.470   0.798   6.587  0.8337 -0.3365 -0.4539
   76CHL1   C10 8069   2.522   0.972   6.480  0.6319 -0.3669 -0.2514
   76CHL1   C19 8070   2.502   1.130   6.485  0.1893  1.1332 -0.1992
   76CHL1  H19A 8071   2.565   1.158   6.572  3.8550 -0.5291 -2.1031
   76CHL1  H19B 8072   2.554   1.176   6.398 -0.8077  0.6147 -1.1019
   76CHL1  H19C 8073   2.394   1.158   6.482  0.3907  2.0539  0.8292
   76CHL1    C1 8074   2.667   0.944   6.504  0.3790 -0.0200 -0.4875
   76CHL1   H1A 8075   2.703   0.988   6.600  1.0459  0.9487 -1.1604
   76CHL1   H1B 8076   2.670   0.836   6.527 -0.6370  0.1563  0.6090
   76CHL1    C2 8077   2.757   0.979   6.386 -0.4309  0.1131  0.8193
   76CHL1   H2A 8078   2.856   0.941   6.416 -0.1130  0.5413  0.3399
   76CHL1   H2B 8079   2.761   1.087   6.358 -1.2586 -0.2268 -0.7396
   76CHL1   C20 8080   2.091   0.866   7.032 -0.2730  0.2313 -0.0066
   76CHL1   H20 8081   2.016   0.948   7.032 -1.7008 -0.9634 -2.4510
   76CHL1   C21 8082   2.213   0.914   7.113  0.7578 -0.0331 -0.3445
   76CHL1  H21A 8083   2.183   0.927   7.220 -1.0843  0.8386 -0.9347
   76CHL1  H21B 8084   2.257   1.011   7.082  1.2149  0.5492  1.8882
   76CHL1  H21C 8085   2.296   0.840   7.109  1.0273  0.2358  0.1090
   76CHL1   C22 8086   2.017   0.745   7.094  0.3995 -0.4695 -0.2209
   76CHL1  H22A 8087   1.919   0.722   7.046 -1.5161 -1.1250  3.5973
   76CHL1  H22B 8088   2.101   0.672   7.091  0.5426 -0.4001  1.2239
   76CHL1   C23 8089   1.976   0.768   7.241 -0.3907  0.3586  0.5350
   76CHL1  H23A 8090   2.067   0.786   7.302 -0.8122 -0.8547  1.5846
   76CHL1  H23B 8091   1.917   0.861   7.245 -1.4814 -0.3217  0.6447
   76CHL1   C24 8092   1.904   0.653   7.311 -0.0942  0.0915 -0.3064
   76CHL1  H24A 8093   1.884   0.670   7.419 -0.7220 -3.4717  0.2679
   76CHL1  H24B 8094   1.812   0.626   7.254 -1.2422  1.7943  0.6612
   76CHL1   C25 8095   1.988   0.515   7.304  0.1025 -0.0035  0.4163
   76CHL1   H25 8096   1.999   0.500   7.195 -2.3538 -0.2097  0.1407
   76CHL1   C26 8097   2.125   0.531   7.382 -0.3749  0.5033  0.2031
   76CHL1  H26A 8098   2.104   0.579   7.480 -3.1266  1.7875 -0.8988
   76CHL1  H26B 8099   2.185   0.438   7.392 -1.7462 -0.4741 -0.3988
   76CHL1  H26C 8100   2.190   0.600   7.324 -0.9149 -0.6411 -1.8852
   76CHL1   C27 8101   1.898   0.409   7.367 -0.2222  1.0052  0.0064
   76CHL1  H27A 8102   1.932   0.306   7.341 -3.1824  0.1277 -0.8163
   76CHL1  H27B 8103   1.905   0.408   7.478  2.0409  2.1021 -0.0794
   76CHL1  H27C 8104   1.791   0.407   7.337 -0.6118 -0.9326  1.2768
   77CHL1    C3 8105   1.903   5.734   6.250 -0.8813  0.8934  0.6323
   77CHL1    H3 8106   1.881   5.625   6.253  1.1350  0.3791 -1.4150
   77CHL1    O3 8107   1.858   5.789   6.127 -0.3018 -0.2447  0.3695
   77CHL1   H3' 8108   1.901   5.874   6.120 -1.1202  0.3392  1.9272
   77CHL1    C4 8109   1.823   5.810   6.363 -0.0054  0.4674 -0.4973
   77CHL1   H4A 8110   1.834   5.920   6.345 -0.8374  0.2716 -2.4164
   77CHL1   H4B 8111   1.714   5.791   6.352 -0.3198  1.5837  0.3891
   77CHL1    C5 8112   1.870   5.788   6.501  0.4772  0.1052  0.1384
   77CHL1    C6 8113   1.790   5.749   6.602  0.0509  0.8086 -0.6533
   77CHL1    H6 8114   1.687   5.736   6.568 -0.0737 -0.0556  0.0267
   77CHL1    C7 8115   1.835   5.727   6.755  0.1603 -0.2697  1.4052
   77CHL1   H7A 8116   1.767   5.787   6.819 -1.1458 -1.1753  0.9262
   77CHL1   H7B 8117   1.837   5.623   6.793  0.0973  0.5682  3.8299
   77CHL1    C8 8118   1.972   5.792   6.779  0.0746  0.3966  0.4022
   77CHL1    H8 8119   1.958   5.901   6.793  1.4045  0.3992  1.9748
   77CHL1   C14 8120   2.034   5.728   6.906 -0.4314 -0.2661 -0.4513
   77CHL1   H14 8121   2.047   5.618   6.893 -2.6207 -1.0553  2.8646
   77CHL1   C15 8122   1.948   5.728   7.038  0.2448 -0.1311  0.2228
   77CHL1  H15A 8123   1.896   5.825   7.057  0.1647 -0.3017  0.9100
   77CHL1  H15B 8124   1.883   5.639   7.026  1.5075 -1.1541  0.6536
   77CHL1   C16 8125   2.054   5.705   7.143  0.0502 -0.3178 -0.0866
   77CHL1  H16A 8126   2.059   5.785   7.221  2.2219 -0.0057 -0.4690
   77CHL1  H16B 8127   2.038   5.605   7.189 -0.9760  0.1847  0.6814
   77CHL1   C17 8128   2.191   5.704   7.070 -0.0620 -0.1800  0.7031
   77CHL1   H17 8129   2.209   5.599   7.040  0.5511  0.6864 -2.3016
   77CHL1   C13 8130   2.174   5.785   6.940  0.2002 -0.1172  0.7101
   77CHL1   C18 8131   2.163   5.938   6.975  0.4027  0.2838  0.3956
   77CHL1  H18A 8132   2.092   5.957   7.058 -1.0999 -2.0714 -0.2278
   77CHL1  H18B 8133   2.261   5.989   6.984 -0.0184  1.4301 -1.0568
   77CHL1  H18C 8134   2.114   5.989   6.890 -0.2082  2.2756  1.8786
   77CHL1   C12 8135   2.277   5.762   6.829  0.8472 -0.4840  0.5372
   77CHL1  H12A 8136   2.368   5.822   6.849 -0.0421  0.2485  2.6257
   77CHL1  H12B 8137   2.305   5.655   6.822  0.7236 -0.4268 -1.9011
   77CHL1   C11 8138   2.217   5.798   6.689  0.3364 -0.1292 -0.5626
   77CHL1  H11A 8139   2.245   5.905   6.697 -0.3083 -0.0964  2.1010
   77CHL1  H11B 8140   2.287   5.764   6.610 -0.8989 -0.8699 -1.3858
   77CHL1    C9 8141   2.066   5.746   6.661 -0.3896 -0.2023  1.1130
   77CHL1    H9 8142   2.072   5.635   6.660 -0.4368 -0.2002  0.6389
   77CHL1   C10 8143   2.026   5.798   6.516 -0.3266 -0.9408 -0.4033
   77CHL1   C19 8144   2.072   5.946   6.499 -0.5600 -0.2335 -0.3967
   77CHL1  H19A 8145   2.182   5.953   6.491 -0.4454 -1.0125  0.3939
   77CHL1  H19B 8146   2.028   5.992   6.408 -1.5900  0.2387  0.3214
   77CHL1  H19C 8147   2.033   6.008   6.582  0.7166 -3.7456  3.1339
   77CHL1    C1 8148   2.092   5.714   6.409 -0.1578  0.0723 -0.1312
   77CHL1   H1A 8149   2.203   5.721   6.413 -0.1398  2.6372 -2.3530
   77CHL1   H1B 8150   2.065   5.609   6.437 -0.8800  0.5185  0.9047
   77CHL1    C2 8151   2.057   5.748   6.261  0.0702 -0.5224  0.0786
   77CHL1   H2A 8152   2.107   5.679   6.190 -0.7290 -1.8362  0.7531
   77CHL1   H2B 8153   2.087   5.852   6.238 -0.1363 -0.5674 -0.4092
   77CHL1   C20 8154   2.309   5.745   7.169 -0.0178 -0.5266  0.3119
   77CHL1   H20 8155   2.312   5.855   7.184  0.2024 -0.4414 -0.3301
   77CHL1   C21 8156   2.440   5.703   7.095  0.0937  0.5326 -0.1521
   77CHL1  H21A 8157   2.522   5.707   7.170  0.0764  0.3730 -0.1242
   77CHL1  H21B 8158   2.470   5.777   7.017 -1.8110  0.6350 -0.8586
   77CHL1  H21C 8159   2.450   5.600   7.056  1.4794  0.4544  0.3593
   77CHL1   C22 8160   2.299   5.655   7.295  0.5704 -0.2598  0.2927
   77CHL1  H22A 8161   2.204   5.689   7.343  0.8057 -0.2344  0.7404
   77CHL1  H22B 8162   2.294   5.548   7.267 -0.1379 -0.7611  2.1853
   77CHL1   C23 8163   2.398   5.675   7.411  0.1058  0.3032 -0.3091
   77CHL1  H23A 8164   2.490   5.623   7.376 -0.4552 -0.7043 -0.3164
   77CHL1  H23B 8165   2.420   5.783   7.429 -1.7869  0.8639 -1.0986
   77CHL1   C24 8166   2.327   5.621   7.543 -0.0868  0.0505  0.3206
   77CHL1  H24A 8167   2.237   5.682   7.566  0.9741  1.1242  1.8862
   77CHL1  H24B 8168   2.291   5.521   7.511  1.4917 -0.7677  0.9942
   77CHL1   C25 8169   2.406   5.617   7.674 -0.3592  0.1579  0.3109
   77CHL1   H25 8170   2.332   5.573   7.743 -0.0770 -1.4012 -0.3253
   77CHL1   C26 8171   2.527   5.520   7.651 -0.0375 -0.2523 -0.0063
   77CHL1  H26A 8172   2.581   5.503   7.747 -0.2185 -0.7717  0.0058
   77CHL1  H26B 8173   2.487   5.421   7.619  1.2317 -1.3415  1.5995
   77CHL1  H26C 8174   2.594   5.563   7.574 -1.0023  0.2710 -0.5762
   77CHL1   C27 8175   2.465   5.757   7.724  0.1010  1.0613 -0.2002
   77CHL1  H27A 8176   2.381   5.828   7.739 -1.3940 -0.7027  0.2410
   77CHL1  H27B 8177   2.496   5.747   7.830 -3.8390 -1.0837  0.9510
   77CHL1  H27C 8178   2.541   5.804   7.658 -0.7722  2.1098 -0.4842
   78CHL1    C3 8179   4.765   1.466   6.303 -0.7480  0.1385  0.2290
   78CHL1    H3 8180   4.871   1.469   6.269 -1.2735  1.8322 -1.3920
   78CHL1    O3 8181   4.699   1.498   6.186  0.3526 -0.0296 -0.2239
   78CHL1   H3' 8182   4.747   1.466   6.109 -1.1129  0.2468 -1.2929
   78CHL1    C4 8183   4.739   1.319   6.344  0.0043 -0.7660 -0.5369
   78CHL1   H4A 8184   4.630   1.310   6.367  0.1003  0.9063  0.8548
   78CHL1   H4B 8185   4.750   1.242   6.265  1.2789 -1.4702  0.2926
   78CHL1    C5 8186   4.810   1.267   6.464 -0.0677  0.1629 -0.0606
   78CHL1    C6 8187   4.878   1.151   6.471  0.4088 -0.2577  0.1013
   78CHL1    H6 8188   4.886   1.087   6.382  0.2126  0.1786 -0.2367
   78CHL1    C7 8189   4.927   1.088   6.596 -0.9810  0.3264 -0.7286
   78CHL1   H7A 8190   4.873   0.992   6.605  0.5814 -0.5657 -0.5364
   78CHL1   H7B 8191   5.037   1.072   6.597 -0.7309  1.8789 -0.1246
   78CHL1    C8 8192   4.891   1.173   6.722 -0.5088 -0.1637  0.3208
   78CHL1    H8 8193   4.788   1.138   6.745 -0.4816 -0.9613 -0.7287
   78CHL1   C14 8194   4.974   1.132   6.841  0.1216  0.0688 -0.7875
   78CHL1   H14 8195   5.072   1.175   6.812 -0.0677  0.0410 -1.4642
   78CHL1   C15 8196   5.003   0.989   6.887  0.9166 -0.2670  0.4387
   78CHL1  H15A 8197   4.902   0.946   6.902  0.7240  0.1140  0.2611
   78CHL1  H15B 8198   5.074   0.941   6.817  2.5291  0.1560  1.6979
   78CHL1   C16 8199   5.070   1.005   7.025 -0.1597  0.1314 -0.1052
   78CHL1  H16A 8200   5.035   0.921   7.089 -1.0062 -0.0962 -0.8473
   78CHL1  H16B 8201   5.180   0.992   7.014  0.0424  0.9797  0.7526
   78CHL1   C17 8202   5.050   1.151   7.080  0.5254 -0.0182  0.4195
   78CHL1   H17 8203   5.134   1.210   7.037 -1.4047  1.2403 -1.8742
   78CHL1   C13 8204   4.943   1.205   6.975  0.4243 -0.3998  0.5008
   78CHL1   C18 8205   4.807   1.160   7.036 -0.5703  0.1042  0.2129
   78CHL1  H18A 8206   4.725   1.197   6.971  0.6475  0.5057 -1.1566
   78CHL1  H18B 8207   4.784   1.052   7.025 -0.6832  0.3401 -2.3955
   78CHL1  H18C 8208   4.789   1.196   7.140 -2.5090  3.0609 -1.0126
   78CHL1   C12 8209   4.947   1.355   6.953 -1.0109 -0.9373  0.5228
   78CHL1  H12A 8210   4.906   1.412   7.039  0.8960 -1.2470  1.6808
   78CHL1  H12B 8211   5.052   1.383   6.932 -0.4471 -2.2245  1.5016
   78CHL1   C11 8212   4.851   1.397   6.837 -0.7111 -0.5125  0.9115
   78CHL1  H11A 8213   4.745   1.397   6.872 -0.5088  1.4321  1.6457
   78CHL1  H11B 8214   4.865   1.507   6.829  1.3605 -0.7973 -0.0682
   78CHL1    C9 8215   4.879   1.325   6.701  0.7180  0.4192 -0.5860
   78CHL1    H9 8216   4.983   1.346   6.667  1.9081 -0.8189  2.0157
   78CHL1   C10 8217   4.782   1.362   6.585 -0.7579  0.0597  0.1092
   78CHL1   C19 8218   4.632   1.357   6.630 -0.4068 -0.6403 -0.2478
   78CHL1  H19A 8219   4.624   1.440   6.704  4.0318 -0.6208  0.5037
   78CHL1  H19B 8220   4.557   1.368   6.549  0.5762 -0.9889 -1.2254
   78CHL1  H19C 8221   4.629   1.262   6.688  2.9644 -0.5157  0.3745
   78CHL1    C1 8222   4.815   1.509   6.546 -0.7246 -0.3898 -0.2559
   78CHL1   H1A 8223   4.805   1.569   6.639 -0.3634  2.1588 -1.7895
   78CHL1   H1B 8224   4.922   1.514   6.517 -1.2450  2.4164 -2.0302
   78CHL1    C2 8225   4.741   1.559   6.421  0.7521 -0.2765 -0.4481
   78CHL1   H2A 8226   4.777   1.662   6.401  0.1074  0.2376  0.8904
   78CHL1   H2B 8227   4.631   1.560   6.436  0.9408 -0.6890  1.1177
   78CHL1   C20 8228   5.040   1.158   7.228 -0.2907  0.1152  0.3113
   78CHL1   H20 8229   4.953   1.096   7.259  0.3501  0.0955  2.2419
   78CHL1   C21 8230   5.020   1.297   7.295 -0.3561  0.8332 -0.5295
   78CHL1  H21A 8231   4.977   1.291   7.397  0.7892 -1.0560 -0.1145
   78CHL1  H21B 8232   4.944   1.348   7.231 -0.5960  3.0354  1.3905
   78CHL1  H21C 8233   5.109   1.363   7.290  1.2789 -1.3109 -1.9181
   78CHL1   C22 8234   5.172   1.096   7.285 -0.4308  0.1839  0.3268
   78CHL1  H22A 8235   5.221   1.018   7.224  1.7322 -0.4445  2.7400
   78CHL1  H22B 8236   5.247   1.177   7.281  1.6996 -1.7267 -0.4869
   78CHL1   C23 8237   5.152   1.039   7.432 -0.2023  0.0224  0.4353
   78CHL1  H23A 8238   5.246   1.058   7.489 -0.5879  1.1827  0.7105
   78CHL1  H23B 8239   5.071   1.106   7.469  0.9518  1.3068  0.7532
   78CHL1   C24 8240   5.115   0.888   7.420 -0.7758 -0.0079 -0.7129
   78CHL1  H24A 8241   5.029   0.880   7.350 -3.3874 -0.4788  2.2759
   78CHL1  H24B 8242   5.192   0.823   7.374 -0.5830 -0.8475  0.7439
   78CHL1   C25 8243   5.065   0.832   7.557 -0.7320 -0.5866 -0.4568
   78CHL1   H25 8244   4.969   0.874   7.596 -0.2766 -0.6269  0.7365
   78CHL1   C26 8245   5.025   0.681   7.539  0.0778 -0.2795  0.1409
   78CHL1  H26A 8246   4.998   0.634   7.636 -0.1895 -0.4016  0.0080
   78CHL1  H26B 8247   4.929   0.675   7.484  0.7362  0.2156 -1.0961
   78CHL1  H26C 8248   5.099   0.624   7.480  0.2682  0.3390 -0.2303
   78CHL1   C27 8249   5.171   0.855   7.659 -0.6763  0.1467 -0.1621
   78CHL1  H27A 8250   5.166   0.779   7.739 -1.1962  0.5150  0.1640
   78CHL1  H27B 8251   5.273   0.845   7.617 -0.4480 -1.1771  0.6644
   78CHL1  H27C 8252   5.177   0.957   7.702  0.4202  0.1050 -0.1802
   79CHL1    C3 8253   4.174   6.585   6.133 -0.1305 -0.0740 -0.0378
   79CHL1    H3 8254   4.275   6.630   6.136 -0.2189  0.1025  0.3391
   79CHL1    O3 8255   4.135   6.584   5.994  0.2787  0.4055 -0.8729
   79CHL1   H3' 8256   4.104   6.674   5.982  0.8673  0.8921  0.9208
   79CHL1    C4 8257   4.180   6.439   6.184 -0.6830  0.1589  0.5893
   79CHL1   H4A 8258   4.082   6.394   6.156 -0.0445 -1.2318  0.5362
   79CHL1   H4B 8259   4.255   6.380   6.128 -0.5543  0.1050  0.8175
   79CHL1    C5 8260   4.194   6.429   6.331 -0.0810  0.0138 -0.6707
   79CHL1    C6 8261   4.300   6.364   6.386  0.1785  0.1409  0.5814
   79CHL1    H6 8262   4.370   6.310   6.320 -0.1775  0.7630 -0.3422
   79CHL1    C7 8263   4.327   6.357   6.530  0.0177 -0.1864  0.0420
   79CHL1   H7A 8264   4.367   6.256   6.554  1.4075  0.2697 -0.3353
   79CHL1   H7B 8265   4.412   6.426   6.549  1.6060 -2.1170  0.2390
   79CHL1    C8 8266   4.204   6.389   6.622  0.3072 -0.8066  0.0902
   79CHL1    H8 8267   4.129   6.309   6.608 -0.1820 -1.5876  5.1867
   79CHL1   C14 8268   4.241   6.393   6.769 -0.1308  0.7327  0.9341
   79CHL1   H14 8269   4.307   6.482   6.775 -0.6949  1.0919  2.0696
   79CHL1   C15 8270   4.314   6.271   6.831  0.2879 -0.7273  0.3109
   79CHL1  H15A 8271   4.263   6.178   6.797 -1.4049  0.1690  0.2847
   79CHL1  H15B 8272   4.424   6.265   6.819  0.0342 -0.9514 -2.7243
   79CHL1   C16 8273   4.275   6.271   6.982  0.4485 -0.0743  0.5287
   79CHL1  H16A 8274   4.218   6.184   7.019  0.1015  0.0483  0.2862
   79CHL1  H16B 8275   4.369   6.274   7.041 -0.4834  5.0051  2.2265
   79CHL1   C17 8276   4.197   6.406   6.996 -0.4586 -0.3642 -0.3696
   79CHL1   H17 8277   4.275   6.485   6.994 -0.4855 -0.3172  0.3341
   79CHL1   C13 8278   4.125   6.426   6.862 -0.0334 -0.2324  0.7533
   79CHL1   C18 8279   4.010   6.324   6.847  0.3921 -0.3858  0.0227
   79CHL1  H18A 8280   3.974   6.321   6.742 -0.1984  0.8030  0.1743
   79CHL1  H18B 8281   4.044   6.223   6.878  0.4368 -0.4716 -0.3055
   79CHL1  H18C 8282   3.928   6.348   6.918 -0.7788 -4.0886  0.1406
   79CHL1   C12 8283   4.082   6.565   6.817  0.0107 -0.5883  0.5837
   79CHL1  H12A 8284   3.996   6.602   6.877  1.0240  0.9863  1.1259
   79CHL1  H12B 8285   4.160   6.643   6.833  0.9428 -1.2907 -0.4327
   79CHL1   C11 8286   4.035   6.576   6.674 -0.6223 -0.1544 -0.3448
   79CHL1  H11A 8287   3.944   6.512   6.664 -2.4235  2.0792  0.7621
   79CHL1  H11B 8288   4.022   6.679   6.634  1.4630  0.3840  0.2442
   79CHL1    C9 8289   4.141   6.526   6.573 -0.1063  0.5370  0.3594
   79CHL1    H9 8290   4.225   6.597   6.576  1.2290 -1.0012  1.1788
   79CHL1   C10 8291   4.103   6.511   6.423 -0.1828 -0.0523 -0.2180
   79CHL1   C19 8292   3.964   6.435   6.422  0.4263 -0.4211 -0.1396
   79CHL1  H19A 8293   3.974   6.340   6.478  0.1485 -1.5573 -1.9542
   79CHL1  H19B 8294   3.879   6.494   6.461 -1.1546 -3.0353  0.6039
   79CHL1  H19C 8295   3.941   6.411   6.317  1.9532  1.3439 -0.9474
   79CHL1    C1 8296   4.102   6.657   6.368  0.4493 -0.7222  0.9496
   79CHL1   H1A 8297   4.028   6.722   6.419  0.2948  0.7376 -1.0360
   79CHL1   H1B 8298   4.200   6.708   6.380 -0.8189  1.8804  0.8988
   79CHL1    C2 8299   4.068   6.664   6.216  0.3330 -0.2172  0.5189
   79CHL1   H2A 8300   4.073   6.767   6.175  0.5564 -0.3064  0.3164
   79CHL1   H2B 8301   3.967   6.621   6.201  0.2288 -0.3889  1.6677
   79CHL1   C20 8302   4.121   6.415   7.125 -0.2260 -0.6893 -0.2711
   79CHL1   H20 8303   4.029   6.355   7.115 -0.0699 -0.7189 -1.6997
   79CHL1   C21 8304   4.078   6.561   7.151 -0.1947  0.7221  0.1361
   79CHL1  H21A 8305   4.157   6.634   7.123  0.3328  0.9621  2.1537
   79CHL1  H21B 8306   4.051   6.587   7.255  0.1847  0.3138  0.3379
   79CHL1  H21C 8307   3.990   6.584   7.087  0.5762  4.4450  0.2244
   79CHL1   C22 8308   4.202   6.357   7.252 -0.4203 -0.0834  0.0506
   79CHL1  H22A 8309   4.203   6.247   7.242 -0.3175 -0.1448  0.6846
   79CHL1  H22B 8310   4.308   6.392   7.248  0.5506 -2.8705 -1.1131
   79CHL1   C23 8311   4.151   6.382   7.393  0.0146 -0.2748 -0.1022
   79CHL1  H23A 8312   4.150   6.490   7.419 -0.4101 -0.1323 -0.6940
   79CHL1  H23B 8313   4.044   6.352   7.393 -0.6395  1.8412 -0.9018
   79CHL1   C24 8314   4.252   6.303   7.479 -0.8920 -0.4519 -0.6655
   79CHL1  H24A 8315   4.255   6.198   7.440 -2.5001 -0.4012 -1.0010
   79CHL1  H24B 8316   4.354   6.346   7.478 -0.7031 -0.2579  4.1601
   79CHL1   C25 8317   4.199   6.293   7.631 -0.5153  0.2807 -0.1373
   79CHL1   H25 8318   4.186   6.394   7.674 -2.5196 -0.9104  2.2940
   79CHL1   C26 8319   4.067   6.222   7.645  0.5154  0.4832 -0.5273
   79CHL1  H26A 8320   4.020   6.210   7.745 -0.6387  2.3658 -0.7947
   79CHL1  H26B 8321   3.982   6.269   7.592  0.0242 -0.7642 -0.8823
   79CHL1  H26C 8322   4.076   6.120   7.601  0.8063  1.2254 -2.2509
   79CHL1   C27 8323   4.316   6.212   7.698  0.7107  0.0965 -0.1093
   79CHL1  H27A 8324   4.415   6.259   7.679  0.3775  0.2792 -1.4865
   79CHL1  H27B 8325   4.297   6.198   7.806  1.4959 -0.1600  0.0036
   79CHL1  H27C 8326   4.321   6.113   7.648  0.1206 -0.1139  0.2349
   80CHL1    C3 8327   1.004   4.496   6.407  0.8042  0.0041 -0.5470
   80CHL1    H3 8328   0.910   4.442   6.431  1.9513 -1.2855  1.2920
   80CHL1    O3 8329   1.004   4.544   6.275 -0.1879 -0.1343 -0.6160
   80CHL1   H3' 8330   1.065   4.618   6.269  1.4912 -1.3193  0.7090
   80CHL1    C4 8331   1.017   4.617   6.502  0.1600  0.9427  0.0063
   80CHL1   H4A 8332   1.089   4.692   6.463 -1.0637  1.6498 -0.9666
   80CHL1   H4B 8333   0.919   4.668   6.504 -0.5208 -0.3460  0.9797
   80CHL1    C5 8334   1.068   4.578   6.638  0.1099  0.3792 -0.1040
   80CHL1    C6 8335   1.009   4.619   6.749 -0.8356  0.7029  0.1843
   80CHL1    H6 8336   0.921   4.683   6.732 -1.3143 -0.2776 -1.1249
   80CHL1    C7 8337   1.068   4.596   6.887 -0.0319  0.6002 -0.2191
   80CHL1   H7A 8338   1.049   4.682   6.955 -2.2497  0.5540 -0.7046
   80CHL1   H7B 8339   1.021   4.506   6.932  0.1369  0.9173  0.5986
   80CHL1    C8 8340   1.217   4.564   6.883  0.6446  0.1002  0.4181
   80CHL1    H8 8341   1.271   4.658   6.860  4.4495 -1.4335  2.2873
   80CHL1   C14 8342   1.264   4.518   7.020 -0.0997 -0.2708 -0.3294
   80CHL1   H14 8343   1.224   4.417   7.039  0.5285 -0.6650 -1.0343
   80CHL1   C15 8344   1.233   4.605   7.146  0.6075 -0.2266 -0.1025
   80CHL1  H15A 8345   1.243   4.714   7.126 -0.3810  0.0645  0.9281
   80CHL1  H15B 8346   1.127   4.586   7.173  1.0595 -2.6024  0.2239
   80CHL1   C16 8347   1.340   4.568   7.248  0.8725 -0.3415  0.2584
   80CHL1  H16A 8348   1.399   4.657   7.278 -0.8186  0.7561  0.4401
   80CHL1  H16B 8349   1.311   4.516   7.341  1.4943  0.0373  0.6747
   80CHL1   C17 8350   1.443   4.469   7.173 -0.0575  0.1989  0.1258
   80CHL1   H17 8351   1.403   4.366   7.184 -0.5420  0.0160 -2.6961
   80CHL1   C13 8352   1.419   4.494   7.028  0.5645 -0.2681  0.2937
   80CHL1   C18 8353   1.504   4.615   6.987  0.1865 -0.5415  0.0005
   80CHL1  H18A 8354   1.494   4.654   6.883  0.9761 -0.2775  0.0158
   80CHL1  H18B 8355   1.471   4.706   7.040  0.4401 -0.2897 -0.2684
   80CHL1  H18C 8356   1.611   4.604   7.016 -0.8767 -2.9556  3.6027
   80CHL1   C12 8357   1.448   4.374   6.932 -0.2066  0.0565 -0.7959
   80CHL1  H12A 8358   1.554   4.340   6.936  0.2777  1.6070  1.5986
   80CHL1  H12B 8359   1.386   4.285   6.957  0.2398 -0.2050 -0.5970
   80CHL1   C11 8360   1.398   4.413   6.789 -0.1258  0.0446  0.0338
   80CHL1  H11A 8361   1.474   4.484   6.750  1.5286 -2.2269 -1.1339
   80CHL1  H11B 8362   1.407   4.321   6.728  1.8682  0.7055 -0.7586
   80CHL1    C9 8363   1.248   4.458   6.781 -0.1429  0.5241  0.4611
   80CHL1    H9 8364   1.185   4.370   6.806  1.9187 -1.1891 -0.0816
   80CHL1   C10 8365   1.199   4.488   6.636  0.7523  0.7655  0.5251
   80CHL1   C19 8366   1.310   4.568   6.566 -0.3276  0.4548  0.6573
   80CHL1  H19A 8367   1.402   4.505   6.565 -0.9201 -0.4603  1.3221
   80CHL1  H19B 8368   1.282   4.597   6.463  0.5173  2.7743  1.0379
   80CHL1  H19C 8369   1.334   4.656   6.629  1.9343  0.8645 -0.6675
   80CHL1    C1 8370   1.162   4.363   6.558 -0.6959 -1.2948  0.0066
   80CHL1   H1A 8371   1.245   4.290   6.548  0.9674  0.3606  1.2195
   80CHL1   H1B 8372   1.080   4.306   6.608 -0.8476 -2.9528 -1.9973
   80CHL1    C2 8373   1.115   4.401   6.415 -0.8262  0.4414  0.1159
   80CHL1   H2A 8374   1.079   4.304   6.374 -1.5442 -0.7090  3.2152
   80CHL1   H2B 8375   1.205   4.415   6.351  0.4496 -2.2847  1.1800
   80CHL1   C20 8376   1.585   4.481   7.237  0.3948 -0.2474  0.5914
   80CHL1   H20 8377   1.622   4.583   7.216  0.5986 -0.1978  1.1785
   80CHL1   C21 8378   1.688   4.382   7.171 -0.6550  0.1170  0.3657
   80CHL1  H21A 8379   1.643   4.280   7.167  1.6563 -1.0836  2.4486
   80CHL1  H21B 8380   1.786   4.385   7.223  1.0357 -2.9516 -2.2807
   80CHL1  H21C 8381   1.710   4.402   7.065  1.0414 -1.5906  0.3474
   80CHL1   C22 8382   1.582   4.477   7.390 -0.3291 -0.2500  0.6510
   80CHL1  H22A 8383   1.523   4.558   7.438 -0.5963  1.4572 -2.2775
   80CHL1  H22B 8384   1.542   4.380   7.427  2.2437 -1.5810  0.1735
   80CHL1   C23 8385   1.718   4.501   7.458  0.3410 -0.1842  0.6790
   80CHL1  H23A 8386   1.782   4.413   7.434  1.5757  0.2713  2.1411
   80CHL1  H23B 8387   1.770   4.592   7.420  0.6217 -0.9357 -0.7951
   80CHL1   C24 8388   1.704   4.517   7.613  0.1545 -0.0836  0.6913
   80CHL1  H24A 8389   1.679   4.624   7.629 -2.5933 -0.6967  0.9246
   80CHL1  H24B 8390   1.625   4.451   7.655  0.1682  0.7543  2.1008
   80CHL1   C25 8391   1.836   4.502   7.700 -0.2359  0.7318  0.1940
   80CHL1   H25 8392   1.902   4.574   7.647 -0.6877  0.0350 -1.3731
   80CHL1   C26 8393   1.803   4.529   7.845 -0.0177 -0.2788  0.3969
   80CHL1  H26A 8394   1.893   4.541   7.909  0.4629 -2.7338  0.2697
   80CHL1  H26B 8395   1.753   4.629   7.845  5.1143  2.6333  0.8393
   80CHL1  H26C 8396   1.740   4.451   7.894 -0.8364 -0.3025 -0.6424
   80CHL1   C27 8397   1.904   4.361   7.681 -0.4329  0.2892 -0.6285
   80CHL1  H27A 8398   1.962   4.371   7.587 -0.1915  1.1523 -0.4032
   80CHL1  H27B 8399   1.975   4.347   7.765 -2.7587  1.5552  1.7117
   80CHL1  H27C 8400   1.839   4.271   7.679  0.5975 -0.4900 -0.2012
   81CHL1    C3 8401   6.035   2.729   5.843  0.6759 -0.2943  0.3978
   81CHL1    H3 8402   6.085   2.828   5.837  0.6053 -0.3643 -2.7658
   81CHL1    O3 8403   5.989   2.702   5.713 -0.2300  0.4352 -0.4775
   81CHL1   H3' 8404   5.900   2.738   5.716 -0.8652 -1.0064 -1.0001
   81CHL1    C4 8405   6.144   2.625   5.882 -0.5146  0.1167  0.3550
   81CHL1   H4A 8406   6.102   2.525   5.858  0.9343 -0.0857 -1.5474
   81CHL1   H4B 8407   6.229   2.625   5.811 -1.2383  1.8860 -0.5818
   81CHL1    C5 8408   6.189   2.630   6.027  0.1700  0.5046 -0.4760
   81CHL1    C6 8409   6.319   2.627   6.063 -0.7429 -0.2649 -0.2327
   81CHL1    H6 8410   6.405   2.620   5.994  2.2951 -2.0387  3.3196
   81CHL1    C7 8411   6.370   2.615   6.206  0.5143  0.3072 -0.3019
   81CHL1   H7A 8412   6.448   2.539   6.229  1.3571  0.1471 -3.2822
   81CHL1   H7B 8413   6.405   2.715   6.242  0.7205  1.4914 -3.4995
   81CHL1    C8 8414   6.252   2.582   6.310 -0.3453 -0.0239 -0.0403
   81CHL1    H8 8415   6.232   2.473   6.306  0.5294 -0.1487 -2.1127
   81CHL1   C14 8416   6.289   2.623   6.457 -0.3741 -0.1422 -0.2441
   81CHL1   H14 8417   6.303   2.733   6.458  0.0229 -0.1830 -0.6699
   81CHL1   C15 8418   6.421   2.557   6.508  0.1393  0.1840  0.0589
   81CHL1  H15A 8419   6.423   2.452   6.471 -1.8218 -0.4564  1.6211
   81CHL1  H15B 8420   6.510   2.607   6.463 -1.1019  2.4273 -0.0392
   81CHL1   C16 8421   6.416   2.583   6.655 -0.1058  0.3828 -0.3291
   81CHL1  H16A 8422   6.420   2.494   6.722  0.7079  1.5489  1.2375
   81CHL1  H16B 8423   6.490   2.659   6.688  1.1984 -1.3111  0.9017
   81CHL1   C17 8424   6.267   2.635   6.684  0.3146 -0.1173  0.1024
   81CHL1   H17 8425   6.283   2.745   6.683  2.5577 -0.3461  1.8023
   81CHL1   C13 8426   6.185   2.596   6.563  0.3601  0.0982 -0.0648
   81CHL1   C18 8427   6.155   2.441   6.571 -0.1742 -0.2806  0.0001
   81CHL1  H18A 8428   6.105   2.394   6.483  2.0903 -2.5580 -0.1894
   81CHL1  H18B 8429   6.254   2.392   6.576 -0.4210 -1.4076 -3.5424
   81CHL1  H18C 8430   6.089   2.432   6.660 -0.7970  2.3550 -0.1029
   81CHL1   C12 8431   6.058   2.676   6.533 -0.0803  0.2348 -0.2597
   81CHL1  H12A 8432   5.967   2.658   6.593 -1.4233  0.4388 -2.1478
   81CHL1  H12B 8433   6.087   2.783   6.538 -0.5599  0.5114 -2.3510
   81CHL1   C11 8434   6.012   2.644   6.384 -0.5656  0.2900 -0.0298
   81CHL1  H11A 8435   5.974   2.540   6.393  0.3445  0.0404  1.2157
   81CHL1  H11B 8436   5.929   2.717   6.373 -0.7306 -0.0106 -0.8573
   81CHL1    C9 8437   6.123   2.660   6.275 -0.1398  0.3136  0.5546
   81CHL1    H9 8438   6.151   2.768   6.273 -1.8148  0.7810 -1.3805
   81CHL1   C10 8439   6.073   2.632   6.129 -0.1791  0.0894  0.0777
   81CHL1   C19 8440   6.001   2.497   6.124 -0.1910 -0.3026  0.5609
   81CHL1  H19A 8441   5.921   2.479   6.199 -1.6442 -1.2652 -1.1401
   81CHL1  H19B 8442   5.955   2.480   6.025  3.6529 -1.1444 -1.2486
   81CHL1  H19C 8443   6.067   2.411   6.149 -1.7668 -1.3038  1.4763
   81CHL1    C1 8444   5.974   2.742   6.088  0.2567  0.3628 -0.6407
   81CHL1   H1A 8445   5.883   2.719   6.147  1.6665 -1.4459  0.9385
   81CHL1   H1B 8446   5.996   2.849   6.112  1.4388 -0.0142  0.0245
   81CHL1    C2 8447   5.923   2.729   5.945 -0.5157 -0.5823  0.7855
   81CHL1   H2A 8448   5.858   2.817   5.924  0.8670  0.7493  1.8564
   81CHL1   H2B 8449   5.856   2.641   5.936  0.7912 -1.5520  0.0867
   81CHL1   C20 8450   6.212   2.595   6.823 -0.6679  0.2170 -0.2902
   81CHL1   H20 8451   6.188   2.486   6.825 -1.1413  0.3316  0.4117
   81CHL1   C21 8452   6.086   2.677   6.852  0.7024 -0.3771  0.5667
   81CHL1  H21A 8453   6.100   2.787   6.842 -1.1208 -0.0913  0.7907
   81CHL1  H21B 8454   6.057   2.667   6.959 -0.7504 -0.0875  0.2257
   81CHL1  H21C 8455   6.007   2.646   6.780  0.1219  1.4886  0.3376
   81CHL1   C22 8456   6.319   2.627   6.930 -0.5935  0.1456 -0.7514
   81CHL1  H22A 8457   6.402   2.556   6.911  1.0534  2.1782 -1.5083
   81CHL1  H22B 8458   6.350   2.732   6.915  2.4463 -0.6382 -0.4872
   81CHL1   C23 8459   6.279   2.599   7.075 -0.0315 -0.5946 -0.6959
   81CHL1  H23A 8460   6.213   2.684   7.106  0.3201 -0.4840 -0.2273
   81CHL1  H23B 8461   6.204   2.518   7.083  0.8455 -1.5966 -2.1468
   81CHL1   C24 8462   6.409   2.585   7.164  0.3570  0.5105 -0.1855
   81CHL1  H24A 8463   6.460   2.491   7.132 -1.1750 -1.0711  1.7771
   81CHL1  H24B 8464   6.485   2.663   7.144 -0.6280  1.9250  1.3452
   81CHL1   C25 8465   6.383   2.590   7.312  0.0456 -0.1604 -0.0223
   81CHL1   H25 8466   6.474   2.555   7.365 -0.3936  0.8535  1.4575
   81CHL1   C26 8467   6.366   2.733   7.364 -0.2118 -0.7288  0.1833
   81CHL1  H26A 8468   6.272   2.786   7.338  0.5607  0.6750  0.1670
   81CHL1  H26B 8469   6.377   2.730   7.475  0.7498  1.1967  0.1838
   81CHL1  H26C 8470   6.457   2.788   7.333 -0.9474  1.3295  1.4857
   81CHL1   C27 8471   6.272   2.495   7.358 -0.0434  0.0822  0.0903
   81CHL1  H27A 8472   6.290   2.479   7.466  0.2124 -0.7750 -0.0749
   81CHL1  H27B 8473   6.166   2.527   7.351  0.3896  1.5526 -0.2339
   81CHL1  H27C 8474   6.276   2.399   7.302  2.1010  0.5014 -0.5646
   82CHL1    C3 8475   5.556   5.549   6.189 -0.1590 -0.1577  0.7373
   82CHL1    H3 8476   5.549   5.659   6.187  1.3827 -0.0432 -0.9038
   82CHL1    O3 8477   5.525   5.502   6.056 -0.3708  0.0023 -0.1962
   82CHL1   H3' 8478   5.501   5.416   6.092 -1.1239  0.4642  0.4266
   82CHL1    C4 8479   5.699   5.508   6.223  0.2593 -0.1024 -0.1186
   82CHL1   H4A 8480   5.711   5.398   6.235 -1.7099 -0.3619 -0.1974
   82CHL1   H4B 8481   5.761   5.538   6.136 -0.3434  3.0724  0.4404
   82CHL1    C5 8482   5.736   5.580   6.352  0.0878 -0.4603  0.1629
   82CHL1    C6 8483   5.833   5.673   6.370 -0.5632  0.6181  0.0370
   82CHL1    H6 8484   5.889   5.691   6.277 -0.8573 -0.4084 -0.3510
   82CHL1    C7 8485   5.863   5.737   6.501 -0.4011 -0.3686  0.5502
   82CHL1   H7A 8486   5.971   5.722   6.519  0.1455  0.2485 -1.9775
   82CHL1   H7B 8487   5.841   5.845   6.509 -2.6183 -0.6551 -0.8768
   82CHL1    C8 8488   5.785   5.687   6.629  0.4294  0.1188  0.2308
   82CHL1    H8 8489   5.842   5.599   6.666 -0.8758  0.0510  2.2766
   82CHL1   C14 8490   5.786   5.797   6.738  0.3932 -0.5676  0.6145
   82CHL1   H14 8491   5.727   5.881   6.694 -0.4599 -1.8591 -0.8147
   82CHL1   C15 8492   5.924   5.850   6.783  0.1636  1.2663 -0.1360
   82CHL1  H15A 8493   5.996   5.768   6.800 -0.0355  1.5857  2.6646
   82CHL1  H15B 8494   5.966   5.917   6.705  3.5494  0.1276  0.5807
   82CHL1   C16 8495   5.888   5.919   6.914  0.9857 -0.3373 -0.3106
   82CHL1  H16A 8496   5.958   5.875   6.988  0.2027 -0.7889  0.1715
   82CHL1  H16B 8497   5.898   6.030   6.920  2.0036 -0.3496 -1.3390
   82CHL1   C17 8498   5.737   5.876   6.949 -0.1010 -0.6057  0.6304
   82CHL1   H17 8499   5.680   5.965   6.914  0.7674 -0.0285  0.6441
   82CHL1   C13 8500   5.707   5.759   6.861  0.4561 -0.1616  0.2726
   82CHL1   C18 8501   5.770   5.634   6.934  0.0511 -0.0527  0.2604
   82CHL1  H18A 8502   5.699   5.604   7.014  1.8060 -2.0032  1.1722
   82CHL1  H18B 8503   5.799   5.548   6.870  0.4571  0.0888  0.2466
   82CHL1  H18C 8504   5.862   5.665   6.988  0.0048  2.4521 -0.9697
   82CHL1   C12 8505   5.560   5.724   6.825  0.4449  0.3168 -0.3522
   82CHL1  H12A 8506   5.506   5.686   6.915 -0.0912  1.7386 -0.0501
   82CHL1  H12B 8507   5.522   5.820   6.785  2.1421  1.6556  1.0997
   82CHL1   C11 8508   5.558   5.603   6.719 -0.0436 -0.3301  0.3199
   82CHL1  H11A 8509   5.595   5.514   6.774  0.6955 -0.1085  0.1955
   82CHL1  H11B 8510   5.454   5.597   6.681 -0.4272  1.1144  1.0552
   82CHL1    C9 8511   5.645   5.646   6.594  0.6180 -0.4410  0.7266
   82CHL1    H9 8512   5.594   5.741   6.567 -0.0315 -1.5059 -2.0718
   82CHL1   C10 8513   5.641   5.547   6.471  0.3261 -0.2469  0.3388
   82CHL1   C19 8514   5.676   5.408   6.520 -0.0776 -0.2875  0.1810
   82CHL1  H19A 8515   5.785   5.399   6.535 -0.0051  0.2079 -0.0481
   82CHL1  H19B 8516   5.620   5.382   6.613 -0.1004 -0.6638  0.0650
   82CHL1  H19C 8517   5.650   5.322   6.453  1.7500 -0.7640  0.0240
   82CHL1    C1 8518   5.495   5.563   6.419  0.6740 -0.4875  0.0605
   82CHL1   H1A 8519   5.423   5.533   6.497 -0.5253  0.8777 -0.4712
   82CHL1   H1B 8520   5.474   5.669   6.394  3.1126  0.1784  0.5474
   82CHL1    C2 8521   5.456   5.490   6.293 -0.0044 -0.1263  0.3233
   82CHL1   H2A 8522   5.349   5.504   6.267  0.3416  2.9974  0.1475
   82CHL1   H2B 8523   5.467   5.380   6.300  2.8846  0.0480 -0.1470
   82CHL1   C20 8524   5.720   5.871   7.103  0.0099 -0.4947  0.4275
   82CHL1   H20 8525   5.773   5.785   7.148 -1.0226 -0.5060  1.6897
   82CHL1   C21 8526   5.570   5.860   7.130 -0.0206 -0.0247  0.3080
   82CHL1  H21A 8527   5.547   5.868   7.238  0.8424 -0.6156  0.5453
   82CHL1  H21B 8528   5.536   5.759   7.098 -1.4367  0.5773 -0.1934
   82CHL1  H21C 8529   5.510   5.928   7.066  2.4288  0.3323 -1.8180
   82CHL1   C22 8530   5.783   5.997   7.167  0.0453 -0.2545  0.0322
   82CHL1  H22A 8531   5.894   5.994   7.163  0.0565 -0.2178  0.3048
   82CHL1  H22B 8532   5.751   6.087   7.111  0.7229 -0.7366 -1.1661
   82CHL1   C23 8533   5.735   6.021   7.309  0.3008  0.3926 -0.3753
   82CHL1  H23A 8534   5.631   6.056   7.320  0.7754  1.5829  0.4647
   82CHL1  H23B 8535   5.754   5.935   7.377  0.4497  0.3788 -0.4337
   82CHL1   C24 8536   5.811   6.140   7.371 -0.2976 -0.1622  0.2316
   82CHL1  H24A 8537   5.914   6.099   7.377 -0.2535 -0.3629 -1.4618
   82CHL1  H24B 8538   5.803   6.227   7.303 -0.2962 -0.3142  0.0356
   82CHL1   C25 8539   5.779   6.182   7.512  0.0753 -0.3515 -0.2782
   82CHL1   H25 8540   5.780   6.093   7.578  1.2968 -0.1742 -0.0425
   82CHL1   C26 8541   5.878   6.288   7.565 -0.3426 -0.6743 -0.0369
   82CHL1  H26A 8542   5.868   6.371   7.492  0.9773  0.0464  0.5593
   82CHL1  H26B 8543   5.857   6.316   7.670  1.5892  0.2699  0.1508
   82CHL1  H26C 8544   5.988   6.276   7.555 -0.1387  0.5114  0.5813
   82CHL1   C27 8545   5.640   6.229   7.534 -0.3477 -0.5959  0.1724
   82CHL1  H27A 8546   5.561   6.156   7.508 -1.6648  1.5539 -2.3890
   82CHL1  H27B 8547   5.624   6.249   7.642 -0.9694  2.1496 -0.3590
   82CHL1  H27C 8548   5.631   6.328   7.485  1.6160  0.1241  1.1597
   83CHL1    C3 8549   3.541   6.731   6.100 -0.1336  0.3282 -0.9305
   83CHL1    H3 8550   3.547   6.621   6.096  0.8584  0.3925 -1.6778
   83CHL1    O3 8551   3.526   6.775   5.963 -0.1138 -0.2470 -0.5576
   83CHL1   H3' 8552   3.512   6.870   5.966  0.9298 -0.0773 -0.4532
   83CHL1    C4 8553   3.419   6.778   6.173 -0.3948  0.0752  0.5471
   83CHL1   H4A 8554   3.413   6.887   6.152  0.6785 -0.0659 -0.5914
   83CHL1   H4B 8555   3.331   6.732   6.123  0.7232  0.2833 -1.7519
   83CHL1    C5 8556   3.429   6.738   6.322 -0.9251  0.1027 -0.3327
   83CHL1    C6 8557   3.337   6.649   6.369 -0.9581 -0.8567 -0.1570
   83CHL1    H6 8558   3.257   6.618   6.300 -0.5257  0.5415 -1.3331
   83CHL1    C7 8559   3.338   6.592   6.508 -0.3669  0.2732  0.2927
   83CHL1   H7A 8560   3.232   6.579   6.537 -0.3795 -0.9191 -0.2191
   83CHL1   H7B 8561   3.380   6.490   6.491  2.1110  1.4271 -1.1515
   83CHL1    C8 8562   3.420   6.674   6.606 -0.3683  0.0279 -0.1110
   83CHL1    H8 8563   3.360   6.766   6.624 -2.6820 -1.4489  0.1422
   83CHL1   C14 8564   3.441   6.590   6.734 -0.2818 -0.0613 -0.2743
   83CHL1   H14 8565   3.489   6.497   6.699 -2.1445 -2.7652  3.6701
   83CHL1   C15 8566   3.316   6.525   6.802  0.7201  0.1175 -0.3026
   83CHL1  H15A 8567   3.234   6.597   6.783  0.4812  0.8194  2.9605
   83CHL1  H15B 8568   3.293   6.425   6.757 -0.4337  0.0830  0.3177
   83CHL1   C16 8569   3.356   6.521   6.947  0.1760  0.1010 -0.0472
   83CHL1  H16A 8570   3.292   6.590   7.006  0.3731 -0.9865  1.4991
   83CHL1  H16B 8571   3.350   6.417   6.985  1.3394  0.2748  0.6453
   83CHL1   C17 8572   3.507   6.555   6.948 -0.6806 -0.0578 -0.2110
   83CHL1   H17 8573   3.547   6.456   6.919 -1.9958 -0.7622  0.3193
   83CHL1   C13 8574   3.536   6.649   6.833  1.1182 -0.7571 -0.3269
   83CHL1   C18 8575   3.481   6.795   6.863  0.2142  0.4259  0.0654
   83CHL1  H18A 8576   3.374   6.811   6.889  0.2670  0.5625  0.2045
   83CHL1  H18B 8577   3.535   6.842   6.948 -0.1219  0.8141  0.0682
   83CHL1  H18C 8578   3.504   6.852   6.770  2.9335 -0.0520  0.3625
   83CHL1   C12 8579   3.673   6.657   6.764  0.3285  0.0962 -0.3429
   83CHL1  H12A 8580   3.759   6.705   6.815  0.1832  0.8558 -0.7969
   83CHL1  H12B 8581   3.709   6.554   6.745 -1.8745 -1.1182  1.4664
   83CHL1   C11 8582   3.673   6.735   6.633 -0.2901  0.4992  0.1729
   83CHL1  H11A 8583   3.659   6.844   6.644 -0.6561  0.9206 -3.2417
   83CHL1  H11B 8584   3.766   6.713   6.576 -0.6672  1.5979 -0.9267
   83CHL1    C9 8585   3.559   6.695   6.534 -1.4891 -0.0278 -0.6315
   83CHL1    H9 8586   3.572   6.590   6.500 -0.5835 -0.2588  0.3699
   83CHL1   C10 8587   3.556   6.781   6.403 -0.0077  0.2028  0.6924
   83CHL1   C19 8588   3.545   6.929   6.426 -0.2372  0.9098  0.0054
   83CHL1  H19A 8589   3.544   6.979   6.326 -2.3169 -1.1068 -1.0832
   83CHL1  H19B 8590   3.451   6.956   6.478 -0.9883  0.0282 -0.8441
   83CHL1  H19C 8591   3.633   6.965   6.483 -1.4457 -0.5478  2.9954
   83CHL1    C1 8592   3.675   6.745   6.313 -0.1444 -0.0540  0.0929
   83CHL1   H1A 8593   3.775   6.775   6.352  0.9397  0.3581 -2.7522
   83CHL1   H1B 8594   3.674   6.635   6.304  0.8137 -0.2998  2.2364
   83CHL1    C2 8595   3.670   6.787   6.167 -0.4437 -0.0035  0.0783
   83CHL1   H2A 8596   3.761   6.741   6.122  0.8284  1.1539  1.3402
   83CHL1   H2B 8597   3.669   6.898   6.161 -0.8348  0.3834  4.4202
   83CHL1   C20 8598   3.566   6.600   7.088  0.1549 -0.4478  0.1605
   83CHL1   H20 8599   3.540   6.707   7.105 -0.1756 -0.3995 -0.6105
   83CHL1   C21 8600   3.721   6.582   7.082  0.4997  0.2427 -0.2585
   83CHL1  H21A 8601   3.776   6.626   7.168  0.1403  1.1778 -0.4966
   83CHL1  H21B 8602   3.762   6.631   6.991 -2.9013  1.9577 -1.0242
   83CHL1  H21C 8603   3.757   6.477   7.078 -0.7848 -0.2099 -0.2477
   83CHL1   C22 8604   3.503   6.532   7.213  0.6385  0.3451  0.1086
   83CHL1  H22A 8605   3.397   6.561   7.224  0.2859 -0.9975  0.3263
   83CHL1  H22B 8606   3.501   6.422   7.203  1.7766  0.2583  0.7074
   83CHL1   C23 8607   3.569   6.559   7.349 -0.6081  0.2870  0.6351
   83CHL1  H23A 8608   3.673   6.520   7.339 -0.4506  0.1984  2.3871
   83CHL1  H23B 8609   3.573   6.668   7.372  0.0542 -0.0224  2.0946
   83CHL1   C24 8610   3.496   6.487   7.465 -0.6026 -0.1756 -0.3902
   83CHL1  H24A 8611   3.387   6.506   7.474 -0.4548  0.3051  0.4266
   83CHL1  H24B 8612   3.509   6.379   7.442  2.8609  0.4681 -2.1191
   83CHL1   C25 8613   3.556   6.503   7.609 -0.1073 -0.1243 -0.5899
   83CHL1   H25 8614   3.542   6.610   7.637 -0.2084 -0.1299 -0.6171
   83CHL1   C26 8615   3.466   6.424   7.710  0.3887  0.5659 -0.4538
   83CHL1  H26A 8616   3.479   6.315   7.695  0.9352  0.1876  2.2173
   83CHL1  H26B 8617   3.508   6.442   7.812 -1.5095  0.8657  0.3047
   83CHL1  H26C 8618   3.363   6.463   7.697  0.9092  2.5664  0.9588
   83CHL1   C27 8619   3.704   6.476   7.635 -0.2033 -0.3715  0.4317
   83CHL1  H27A 8620   3.727   6.507   7.739 -0.6411 -0.5847  0.5968
   83CHL1  H27B 8621   3.725   6.368   7.620 -0.7252 -0.4126 -0.0459
   83CHL1  H27C 8622   3.761   6.545   7.570 -1.8284  0.6341  0.0171
   84CHL1    C3 8623   6.004   1.910   6.329 -0.3568 -0.0087 -0.6680
   84CHL1    H3 8624   5.912   1.850   6.346 -0.3357  0.2294  0.3168
   84CHL1    O3 8625   6.023   1.903   6.190  0.1190  0.3859  0.0653
   84CHL1   H3' 8626   6.017   1.994   6.160  0.8562 -0.0860 -1.6514
   84CHL1    C4 8627   5.981   2.058   6.371  0.2325 -0.1615  0.4160
   84CHL1   H4A 8628   6.059   2.125   6.329 -0.2725 -0.8235 -1.6541
   84CHL1   H4B 8629   5.886   2.076   6.316  0.6171  2.7450  0.5498
   84CHL1    C5 8630   5.976   2.078   6.522 -0.1462  0.0171 -0.0809
   84CHL1    C6 8631   5.870   2.140   6.582 -0.0837 -1.1482 -0.1739
   84CHL1    H6 8632   5.795   2.177   6.511 -2.1270 -1.5084  1.7056
   84CHL1    C7 8633   5.860   2.176   6.726 -0.6730  0.2950 -0.0867
   84CHL1   H7A 8634   5.837   2.284   6.742  1.6491  0.5734  2.0145
   84CHL1   H7B 8635   5.776   2.115   6.764 -0.2726 -0.4267 -0.3419
   84CHL1    C8 8636   5.986   2.134   6.804 -0.4892  0.0200  0.0735
   84CHL1    H8 8637   6.064   2.212   6.796 -0.5889  0.1719  0.5410
   84CHL1   C14 8638   5.949   2.128   6.946 -0.0879 -0.4269  0.2862
   84CHL1   H14 8639   5.870   2.049   6.948  0.4546 -1.0028 -0.4825
   84CHL1   C15 8640   5.879   2.255   7.008  0.1866 -0.5247  0.4073
   84CHL1  H15A 8641   5.923   2.349   6.970 -1.5752  0.3491  0.4342
   84CHL1  H15B 8642   5.770   2.261   6.984  0.8048  1.1981 -2.4459
   84CHL1   C16 8643   5.897   2.231   7.161  0.4857  0.8338 -0.1513
   84CHL1  H16A 8644   5.946   2.314   7.217  0.2284 -0.0374  1.4120
   84CHL1  H16B 8645   5.798   2.206   7.204 -1.1849  2.5411 -2.6722
   84CHL1   C17 8646   5.988   2.098   7.179  0.2886 -0.6830  0.8826
   84CHL1   H17 8647   5.912   2.018   7.189  0.3067 -0.6662  1.1550
   84CHL1   C13 8648   6.060   2.078   7.039  0.0126 -0.3642 -0.2831
   84CHL1   C18 8649   6.191   2.166   7.037  0.3884 -0.9668  0.0571
   84CHL1  H18A 8650   6.169   2.271   7.067  0.7292 -1.1798  1.0699
   84CHL1  H18B 8651   6.270   2.127   7.104 -0.1557 -0.1419  1.2145
   84CHL1  H18C 8652   6.231   2.163   6.933 -2.2393  0.0975 -1.0793
   84CHL1   C12 8653   6.090   1.929   6.995  0.2769 -0.2315  0.2446
   84CHL1  H12A 8654   6.179   1.898   7.054  0.7481 -0.7636 -0.7170
   84CHL1  H12B 8655   6.005   1.860   6.977 -0.4682 -0.1741  3.0671
   84CHL1   C11 8656   6.140   1.932   6.847 -0.2133  0.9108  0.0806
   84CHL1  H11A 8657   6.243   1.973   6.841  0.8957 -1.7351 -0.1532
   84CHL1  H11B 8658   6.138   1.824   6.823 -1.0497  0.9745 -0.1667
   84CHL1    C9 8659   6.038   1.999   6.754  0.0992  0.0885  0.0397
   84CHL1    H9 8660   5.950   1.931   6.754 -0.4544  0.7594 -1.3603
   84CHL1   C10 8661   6.086   2.009   6.601 -0.1617  0.2165  0.2651
   84CHL1   C19 8662   6.218   2.084   6.587 -0.8998  0.2487  0.1053
   84CHL1  H19A 8663   6.298   2.028   6.639 -0.1012  0.5314 -0.7743
   84CHL1  H19B 8664   6.249   2.108   6.482 -1.8345  0.0433 -0.2243
   84CHL1  H19C 8665   6.216   2.178   6.646 -1.1925 -1.2624  2.6031
   84CHL1    C1 8666   6.098   1.862   6.551  0.8284  0.4795 -0.2184
   84CHL1   H1A 8667   6.186   1.812   6.598 -0.1741 -1.6365 -0.4857
   84CHL1   H1B 8668   6.013   1.793   6.571  1.5165 -0.2730  0.1713
   84CHL1    C2 8669   6.125   1.850   6.400  0.9044 -0.5333 -0.0054
   84CHL1   H2A 8670   6.140   1.748   6.360  0.3080  0.5007 -3.1788
   84CHL1   H2B 8671   6.213   1.917   6.383 -1.1426  2.4390  0.2903
   84CHL1   C20 8672   6.064   2.097   7.308  0.4177 -0.2379  0.4714
   84CHL1   H20 8673   6.145   2.173   7.301  0.9257 -0.8366 -0.5506
   84CHL1   C21 8674   6.128   1.955   7.313  0.2807 -0.0560  0.4881
   84CHL1  H21A 8675   6.061   1.878   7.270 -1.0153  0.4727  1.4966
   84CHL1  H21B 8676   6.139   1.929   7.420 -2.7249  2.1611  1.5041
   84CHL1  H21C 8677   6.221   1.957   7.252  1.2178  0.9993  1.8798
   84CHL1   C22 8678   5.982   2.129   7.435 -0.3775  0.4022  0.1607
   84CHL1  H22A 8679   5.908   2.210   7.420 -0.6247  0.1834  0.1858
   84CHL1  H22B 8680   5.925   2.043   7.476 -0.7452  1.8231  2.8152
   84CHL1   C23 8681   6.073   2.178   7.546  0.2441 -0.1349 -0.5569
   84CHL1  H23A 8682   6.149   2.100   7.564 -1.6950 -2.0068 -0.1108
   84CHL1  H23B 8683   6.131   2.266   7.512 -0.4500  1.3255  1.8246
   84CHL1   C24 8684   5.990   2.216   7.676 -0.2775  0.4462  0.8631
   84CHL1  H24A 8685   5.882   2.196   7.660  0.5811 -3.0012 -1.9101
   84CHL1  H24B 8686   6.018   2.143   7.756 -3.0899 -1.8000 -0.0227
   84CHL1   C25 8687   6.013   2.362   7.704  0.6073 -0.6115 -0.2475
   84CHL1   H25 8688   6.117   2.392   7.679  0.3614  2.1585  1.5273
   84CHL1   C26 8689   5.918   2.454   7.620  0.3493  0.2144 -0.3530
   84CHL1  H26A 8690   5.946   2.445   7.513  2.9347 -2.3391  0.4044
   84CHL1  H26B 8691   5.813   2.420   7.632 -0.5665  2.9598  0.0747
   84CHL1  H26C 8692   5.929   2.560   7.652  3.1531  0.4602 -1.8353
   84CHL1   C27 8693   5.989   2.403   7.847  0.3038 -0.1014  0.1477
   84CHL1  H27A 8694   5.882   2.382   7.869  0.2190  0.7648  0.5881
   84CHL1  H27B 8695   6.051   2.339   7.914  2.1946  1.3648 -0.1118
   84CHL1  H27C 8696   6.020   2.509   7.856 -0.0198 -0.0596  0.8383
   85CHL1    C3 8697   5.147   5.728   6.113  0.1927  0.1921  0.7686
   85CHL1    H3 8698   5.257   5.723   6.123  0.1534 -0.6092  0.8063
   85CHL1    O3 8699   5.121   5.718   5.976  0.8108 -0.6822  0.1695
   85CHL1   H3' 8700   5.026   5.727   5.963  1.0970  0.4468 -1.4753
   85CHL1    C4 8701   5.066   5.618   6.186  0.0011 -0.4493  0.9020
   85CHL1   H4A 8702   4.963   5.631   6.145  0.3107  2.8311  0.8891
   85CHL1   H4B 8703   5.099   5.518   6.149 -3.1178 -0.7258 -1.6112
   85CHL1    C5 8704   5.068   5.627   6.334 -0.0811 -0.2516 -0.3627
   85CHL1    C6 8705   5.098   5.515   6.406  0.5833 -0.2924  0.0972
   85CHL1    H6 8706   5.124   5.422   6.353  1.3796  1.7460 -3.4486
   85CHL1    C7 8707   5.105   5.510   6.555 -0.5785 -0.2656 -0.1565
   85CHL1   H7A 8708   5.052   5.416   6.582 -3.0102  0.5110 -1.8890
   85CHL1   H7B 8709   5.211   5.510   6.586 -0.2856  3.3728 -0.6783
   85CHL1    C8 8710   5.042   5.639   6.621  0.1260 -0.3842 -0.1103
   85CHL1    H8 8711   4.932   5.625   6.614 -0.4226  3.4334 -1.2583
   85CHL1   C14 8712   5.095   5.653   6.762 -0.2115 -0.1474 -0.3873
   85CHL1   H14 8713   5.206   5.661   6.760 -0.1475 -1.0896 -1.4615
   85CHL1   C15 8714   5.060   5.540   6.857  0.6509  0.6504 -0.2066
   85CHL1  H15A 8715   4.950   5.527   6.860  0.7159 -0.3722 -1.3979
   85CHL1  H15B 8716   5.098   5.442   6.820  0.2070 -0.3272  1.8223
   85CHL1   C16 8717   5.111   5.598   6.992 -0.3350  0.1885  0.4063
   85CHL1  H16A 8718   5.049   5.564   7.078 -2.5242  2.4843 -0.1525
   85CHL1  H16B 8719   5.217   5.567   7.004  0.3546  2.5066  0.8101
   85CHL1   C17 8720   5.111   5.756   6.984  0.2513  0.1577 -0.1527
   85CHL1   H17 8721   5.219   5.784   6.982  0.4228  0.0027  2.7688
   85CHL1   C13 8722   5.055   5.782   6.840  0.1266  0.5567 -0.0379
   85CHL1   C18 8723   4.903   5.792   6.855  0.8176  0.6823  0.0470
   85CHL1  H18A 8724   4.876   5.879   6.918 -2.1611 -1.2503  1.7290
   85CHL1  H18B 8725   4.840   5.801   6.764 -2.1071 -3.7921  1.3023
   85CHL1  H18C 8726   4.862   5.700   6.904 -1.0402 -0.1446 -2.7825
   85CHL1   C12 8727   5.119   5.894   6.758 -0.7927  0.3494 -0.0501
   85CHL1  H12A 8728   5.094   5.992   6.804 -0.7876  0.1478  0.3800
   85CHL1  H12B 8729   5.227   5.872   6.743 -0.4283 -0.3652  3.0538
   85CHL1   C11 8730   5.059   5.896   6.612  0.4737  0.0947  0.4095
   85CHL1  H11A 8731   4.951   5.920   6.618  0.5760  1.3625 -1.8027
   85CHL1  H11B 8732   5.099   5.984   6.558 -0.4795 -0.4179 -1.2006
   85CHL1    C9 8733   5.078   5.765   6.545  0.5764 -0.5285 -0.4801
   85CHL1    H9 8734   5.189   5.756   6.549  0.5677 -0.3325  0.2000
   85CHL1   C10 8735   5.037   5.765   6.392  0.0102 -0.1053 -0.0413
   85CHL1   C19 8736   4.882   5.785   6.385 -0.4179 -0.0365  0.2911
   85CHL1  H19A 8737   4.834   5.762   6.287 -0.3284 -1.1802  0.5046
   85CHL1  H19B 8738   4.823   5.719   6.452  2.3875 -2.4293  0.5793
   85CHL1  H19C 8739   4.862   5.894   6.396 -1.5970  0.0780 -2.2433
   85CHL1    C1 8740   5.105   5.879   6.317  0.0002 -0.0462 -0.4541
   85CHL1   H1A 8741   5.051   5.974   6.336 -2.9371 -1.6727 -0.0168
   85CHL1   H1B 8742   5.210   5.888   6.351 -0.4377  1.9214  0.5421
   85CHL1    C2 8743   5.101   5.866   6.163 -0.0290 -0.4535 -0.1881
   85CHL1   H2A 8744   5.170   5.943   6.122 -1.7276  1.5990  0.6118
   85CHL1   H2B 8745   4.999   5.887   6.126 -0.7286  1.2614  2.4326
   85CHL1   C20 8746   5.049   5.833   7.106 -0.4765  0.6487  0.4740
   85CHL1   H20 8747   4.938   5.834   7.101 -0.4874 -1.2270 -3.2542
   85CHL1   C21 8748   5.089   5.984   7.087 -0.1562  0.0103 -0.8615
   85CHL1  H21A 8749   5.028   6.036   7.011 -1.8744  0.6682  0.8927
   85CHL1  H21B 8750   5.197   5.997   7.065 -0.4366  3.1821 -0.7452
   85CHL1  H21C 8751   5.061   6.037   7.181  1.6941  2.4033 -1.5709
   85CHL1   C22 8752   5.096   5.773   7.243 -0.1225 -0.7567  0.0844
   85CHL1  H22A 8753   5.037   5.830   7.317 -0.7925 -0.5440 -0.6075
   85CHL1  H22B 8754   5.045   5.674   7.250 -1.6103  0.0555  1.1184
   85CHL1   C23 8755   5.244   5.781   7.267  0.2223 -0.2137  0.3116
   85CHL1  H23A 8756   5.290   5.716   7.190 -0.0756 -0.6468  0.4968
   85CHL1  H23B 8757   5.290   5.881   7.249  1.3360 -0.8377 -0.4194
   85CHL1   C24 8758   5.277   5.732   7.409 -0.6983 -0.8999 -0.4075
   85CHL1  H24A 8759   5.189   5.670   7.435 -0.7846 -1.0827 -1.1111
   85CHL1  H24B 8760   5.369   5.671   7.406  1.3867  1.9277  0.8686
   85CHL1   C25 8761   5.290   5.845   7.505  0.0141  0.0175  0.1155
   85CHL1   H25 8762   5.204   5.916   7.499 -0.4589 -0.4302  1.4035
   85CHL1   C26 8763   5.266   5.788   7.641  0.0079 -0.1826 -1.1880
   85CHL1  H26A 8764   5.278   5.859   7.726 -0.0585  0.3958 -1.6570
   85CHL1  H26B 8765   5.166   5.745   7.662  0.0525  0.8575  1.6278
   85CHL1  H26C 8766   5.337   5.704   7.654 -1.2988 -1.1729 -0.0685
   85CHL1   C27 8767   5.418   5.925   7.501 -0.1862 -0.5816 -0.5137
   85CHL1  H27A 8768   5.409   6.023   7.552  1.1339 -0.9125  0.4055
   85CHL1  H27B 8769   5.498   5.879   7.563  0.3761  0.5333 -0.3956
   85CHL1  H27C 8770   5.456   5.951   7.400  0.9853  2.1686  0.5409
   86CHL1    C3 8771   0.205   3.931   6.276 -0.4742  0.0271  0.0046
   86CHL1    H3 8772   0.238   4.035   6.295  1.2348 -0.7982  1.8246
   86CHL1    O3 8773   0.239   3.892   6.144 -0.0713  0.6281 -0.2124
   86CHL1   H3' 8774   0.166   3.840   6.109 -0.0901  0.7088 -0.2927
   86CHL1    C4 8775   0.282   3.833   6.376  0.0576 -0.1697  0.3735
   86CHL1   H4A 8776   0.269   3.732   6.333  0.6824 -0.2783  0.4174
   86CHL1   H4B 8777   0.392   3.843   6.362  0.5886 -1.4870  3.0055
   86CHL1    C5 8778   0.233   3.855   6.524 -0.0178  0.0679 -0.4372
   86CHL1    C6 8779   0.322   3.874   6.622 -0.0956  0.1391 -0.3716
   86CHL1    H6 8780   0.429   3.869   6.598  0.3511  2.0381  0.9445
   86CHL1    C7 8781   0.285   3.867   6.767 -0.2403  0.1497  0.8945
   86CHL1   H7A 8782   0.333   3.778   6.815 -1.1663 -0.6252  0.4144
   86CHL1   H7B 8783   0.330   3.948   6.829  4.1213 -1.2174 -0.1337
   86CHL1    C8 8784   0.127   3.850   6.794 -0.0938  0.3358  0.0986
   86CHL1    H8 8785   0.115   3.740   6.799  0.1494  0.3271  0.6266
   86CHL1   C14 8786   0.092   3.920   6.927  0.3366  0.1513  0.5189
   86CHL1   H14 8787   0.112   4.029   6.914  3.4914 -0.4202 -0.0657
   86CHL1   C15 8788   0.169   3.878   7.057 -0.0684 -0.0543 -0.2424
   86CHL1  H15A 8789   0.178   3.768   7.070 -1.3293 -0.1395  0.0328
   86CHL1  H15B 8790   0.270   3.923   7.051  0.1204 -0.5195 -0.5790
   86CHL1   C16 8791   0.080   3.944   7.170  0.6744  1.2928 -0.5317
   86CHL1  H16A 8792   0.058   3.872   7.251 -0.7168  0.1457 -1.8836
   86CHL1  H16B 8793   0.143   4.029   7.206  0.4737  0.7209  1.2854
   86CHL1   C17 8794  -0.049   3.998   7.104  0.7732  0.2206 -0.6781
   86CHL1   H17 8795  -0.019   4.103   7.087 -0.7132  0.8928  0.5744
   86CHL1   C13 8796  -0.058   3.925   6.973 -0.2357  0.7882  0.1949
   86CHL1   C18 8797  -0.116   3.785   6.994  0.2808 -0.1812 -0.7684
   86CHL1  H18A 8798  -0.059   3.736   7.077  1.1976  1.9345 -0.0775
   86CHL1  H18B 8799  -0.224   3.791   7.017  0.1721  1.8378 -1.6091
   86CHL1  H18C 8800  -0.099   3.721   6.905  1.2573  0.4786 -1.0764
   86CHL1   C12 8801  -0.142   3.979   6.850  0.7421 -0.7629 -0.1263
   86CHL1  H12A 8802  -0.247   3.954   6.878  1.1351 -1.0535  1.1747
   86CHL1  H12B 8803  -0.131   4.089   6.838  2.4560 -0.6849  1.6329
   86CHL1   C11 8804  -0.109   3.906   6.722 -0.0522 -0.2186 -0.4500
   86CHL1  H11A 8805  -0.148   3.802   6.720 -0.4276 -0.1547  1.4400
   86CHL1  H11B 8806  -0.169   3.958   6.645  0.7405 -1.2790 -1.8294
   86CHL1    C9 8807   0.043   3.915   6.686 -0.2229  0.8786  0.7891
   86CHL1    H9 8808   0.051   4.025   6.689 -0.0496  0.8484  1.9433
   86CHL1   C10 8809   0.084   3.854   6.544  0.1656 -0.3004 -0.0851
   86CHL1   C19 8810   0.043   3.708   6.529 -0.5167 -0.0452 -0.5373
   86CHL1  H19A 8811   0.083   3.643   6.610  1.6270  3.3297  1.3564
   86CHL1  H19B 8812  -0.068   3.699   6.532 -0.5291  0.3902  0.7575
   86CHL1  H19C 8813   0.077   3.652   6.439  1.4463 -2.0114  1.3174
   86CHL1    C1 8814   0.015   3.951   6.439  0.0725  0.2039 -0.7322
   86CHL1   H1A 8815  -0.094   3.935   6.455  0.3086  0.2723  1.0920
   86CHL1   H1B 8816   0.039   4.054   6.472 -0.3811  0.1006 -0.0668
   86CHL1    C2 8817   0.050   3.923   6.289 -0.2612 -0.5345 -0.0768
   86CHL1   H2A 8818  -0.006   3.997   6.228  1.7655  1.4878  0.3474
   86CHL1   H2B 8819   0.025   3.818   6.264  0.0574 -1.4827  3.1332
   86CHL1   C20 8820  -0.171   4.004   7.196 -0.0817 -0.5845 -0.6683
   86CHL1   H20 8821  -0.217   3.903   7.202 -1.9416  0.3118  1.5165
   86CHL1   C21 8822  -0.282   4.102   7.135 -0.8508  0.3253  0.2645
   86CHL1  H21A 8823  -0.356   4.125   7.215 -1.2432 -2.0857  0.6567
   86CHL1  H21B 8824  -0.338   4.066   7.047  0.3769  0.8374 -0.7661
   86CHL1  H21C 8825  -0.230   4.200   7.122 -0.1359 -0.2355 -1.3481
   86CHL1   C22 8826  -0.129   4.045   7.344  0.5013  0.1022  0.1996
   86CHL1  H22A 8827  -0.231   4.041   7.388  0.0281 -0.0049 -0.8585
   86CHL1  H22B 8828  -0.062   3.968   7.387 -1.0811 -2.3875 -1.4920
   86CHL1   C23 8829  -0.078   4.186   7.365 -0.0863  0.1803  0.5836
   86CHL1  H23A 8830   0.012   4.212   7.306 -0.4447 -0.9784 -0.5251
   86CHL1  H23B 8831  -0.163   4.253   7.339 -0.6783 -0.5000  0.7178
   86CHL1   C24 8832  -0.045   4.208   7.518 -0.1547 -0.1229  0.5273
   86CHL1  H24A 8833   0.028   4.133   7.555  0.5885  0.5574  0.4683
   86CHL1  H24B 8834   0.006   4.307   7.524 -0.5571  0.2333 -1.2748
   86CHL1   C25 8835  -0.163   4.209   7.612 -0.8463  0.9854  0.8402
   86CHL1   H25 8836  -0.224   4.119   7.590 -1.1251  1.2276  0.6118
   86CHL1   C26 8837  -0.114   4.190   7.759 -0.8902 -0.0878  0.4813
   86CHL1  H26A 8838  -0.049   4.100   7.754 -0.9587 -0.0754 -0.8890
   86CHL1  H26B 8839  -0.047   4.273   7.791  1.5704 -2.3639  1.5354
   86CHL1  H26C 8840  -0.195   4.182   7.834 -0.3986 -0.2480  1.0027
   86CHL1   C27 8841  -0.257   4.329   7.609  0.7596 -0.0142  0.0625
   86CHL1  H27A 8842  -0.214   4.426   7.641  0.0684  0.5802 -0.8014
   86CHL1  H27B 8843  -0.300   4.348   7.509 -0.4393  0.6295  0.6797
   86CHL1  H27C 8844  -0.343   4.322   7.679 -0.4435  1.9269 -1.1332
   87CHL1    C3 8845   1.106   2.186   6.280 -0.2142 -0.1431 -0.2958
   87CHL1    H3 8846   0.997   2.210   6.277 -0.0739  0.7418  0.9127
   87CHL1    O3 8847   1.150   2.182   6.151 -0.3560 -0.1363  0.5846
   87CHL1   H3' 8848   1.242   2.210   6.146 -0.4929  0.1933 -0.4884
   87CHL1    C4 8849   1.176   2.298   6.354 -0.1619  1.0096  0.5904
   87CHL1   H4A 8850   1.286   2.281   6.352 -0.3290 -0.1777  0.5954
   87CHL1   H4B 8851   1.160   2.391   6.297 -2.0348  0.1113 -0.4507
   87CHL1    C5 8852   1.140   2.304   6.496  0.3826  0.4959  0.1883
   87CHL1    C6 8853   1.081   2.414   6.548 -0.4135  0.4043  0.2550
   87CHL1    H6 8854   1.056   2.495   6.478  0.4261  0.9960  0.6252
   87CHL1    C7 8855   1.041   2.426   6.688  0.3396 -0.1981  0.3774
   87CHL1   H7A 8856   1.047   2.531   6.723 -3.2759  0.8474 -1.6431
   87CHL1   H7B 8857   0.932   2.407   6.689  0.6634 -2.5191  1.9496
   87CHL1    C8 8858   1.107   2.314   6.773  0.2915 -0.0820 -0.6859
   87CHL1    H8 8859   1.214   2.336   6.793  0.1231 -0.7730  1.1657
   87CHL1   C14 8860   1.041   2.299   6.908  0.5301 -0.4624 -0.2794
   87CHL1   H14 8861   0.944   2.251   6.884  0.3008 -0.6543  0.9588
   87CHL1   C15 8862   1.002   2.426   6.988 -0.5366 -0.1427  0.1325
   87CHL1  H15A 8863   1.081   2.504   6.975 -0.2686 -0.1445  1.6510
   87CHL1  H15B 8864   0.907   2.462   6.942 -0.4409 -0.8455 -0.6533
   87CHL1   C16 8865   0.979   2.381   7.135  0.4021 -0.6190 -0.6014
   87CHL1  H16A 8866   1.035   2.446   7.206  0.8615 -1.2254 -0.3945
   87CHL1  H16B 8867   0.869   2.382   7.150  0.7072 -0.8927  2.1563
   87CHL1   C17 8868   1.025   2.233   7.140  0.0049 -0.2065  0.1103
   87CHL1   H17 8869   0.936   2.171   7.116  0.9599 -2.0435  1.1621
   87CHL1   C13 8870   1.119   2.216   7.013 -0.2458  0.8615  0.3165
   87CHL1   C18 8871   1.253   2.281   7.052 -0.1585 -0.0971  0.3241
   87CHL1  H18A 8872   1.312   2.310   6.963  0.0717 -1.2938  0.0700
   87CHL1  H18B 8873   1.246   2.374   7.112  2.1751 -1.0186  2.1880
   87CHL1  H18C 8874   1.309   2.205   7.110 -0.9358  0.1057  1.3632
   87CHL1   C12 8875   1.120   2.070   6.957 -0.2660 -0.5393  0.9944
   87CHL1  H12A 8876   1.169   1.994   7.021 -2.1710 -1.6105  1.2658
   87CHL1  H12B 8877   1.017   2.032   6.940  0.3348 -0.8628 -2.6075
   87CHL1   C11 8878   1.181   2.070   6.820  0.6527 -0.2950  0.9444
   87CHL1  H11A 8879   1.289   2.097   6.823  0.8623 -0.6412 -1.4235
   87CHL1  H11B 8880   1.185   1.971   6.770  3.1277 -0.0598  0.5741
   87CHL1    C9 8881   1.113   2.169   6.719  0.8659 -0.0221 -0.4722
   87CHL1    H9 8882   1.006   2.140   6.710  0.6125  0.2573  1.2714
   87CHL1   C10 8883   1.171   2.166   6.573  0.8965  0.4946  0.3849
   87CHL1   C19 8884   1.325   2.159   6.580 -0.1594  0.2641  0.1070
   87CHL1  H19A 8885   1.374   2.069   6.623  0.9511 -1.0038 -3.4091
   87CHL1  H19B 8886   1.375   2.154   6.481  0.5247  1.5639  0.3707
   87CHL1  H19C 8887   1.361   2.251   6.631  0.5888  0.5626 -0.9410
   87CHL1    C1 8888   1.109   2.051   6.501 -0.2604  0.3756 -0.1494
   87CHL1   H1A 8889   1.127   1.963   6.567 -2.7823  1.1535  1.7186
   87CHL1   H1B 8890   0.998   2.060   6.502 -0.1477  2.0454  1.8223
   87CHL1    C2 8891   1.147   2.046   6.353  0.3300  0.2980  0.1988
   87CHL1   H2A 8892   1.092   1.960   6.310  1.1622 -0.3433  0.4023
   87CHL1   H2B 8893   1.255   2.031   6.335  0.1403  0.5940 -1.2675
   87CHL1   C20 8894   1.071   2.192   7.287  0.0016 -0.2070  0.4393
   87CHL1   H20 8895   1.149   2.265   7.317 -1.0045  0.9539  0.2916
   87CHL1   C21 8896   1.122   2.049   7.307 -0.3590  0.5725  0.1066
   87CHL1  H21A 8897   1.181   2.028   7.398  2.8147  1.5016 -1.5731
   87CHL1  H21B 8898   1.197   2.018   7.230 -0.6195 -2.5855  1.0055
   87CHL1  H21C 8899   1.039   1.976   7.294  2.0552 -2.4430  0.6416
   87CHL1   C22 8900   0.959   2.228   7.387  0.7055  0.6763 -0.2000
   87CHL1  H22A 8901   0.866   2.254   7.332  0.6161  0.1886 -0.2900
   87CHL1  H22B 8902   0.934   2.143   7.455 -0.9690 -0.2464 -1.8679
   87CHL1   C23 8903   0.997   2.344   7.484  0.0444 -0.1014  0.2694
   87CHL1  H23A 8904   1.031   2.432   7.425 -1.8196  2.4065  2.7150
   87CHL1  H23B 8905   0.909   2.377   7.541 -0.8536 -0.2807 -0.9696
   87CHL1   C24 8906   1.100   2.307   7.596  0.6040  0.9823 -0.3050
   87CHL1  H24A 8907   1.055   2.231   7.664 -0.4323  0.0592 -1.9648
   87CHL1  H24B 8908   1.193   2.263   7.553  1.0668  3.8891 -2.6309
   87CHL1   C25 8909   1.146   2.433   7.676 -0.4185 -0.4221  0.4072
   87CHL1   H25 8910   1.195   2.508   7.610 -0.4840  0.4472  1.3169
   87CHL1   C26 8911   1.037   2.499   7.760 -0.1049 -0.0333 -0.2842
   87CHL1  H26A 8912   1.069   2.570   7.840  2.4584 -1.7003  0.2913
   87CHL1  H26B 8913   0.979   2.551   7.681  0.2040 -0.6591 -0.9416
   87CHL1  H26C 8914   0.982   2.421   7.816  2.1764  0.4936  2.9822
   87CHL1   C27 8915   1.261   2.389   7.775 -0.2084  0.7563  0.0972
   87CHL1  H27A 8916   1.215   2.353   7.870  0.9486  1.0538  0.7905
   87CHL1  H27B 8917   1.322   2.307   7.732  1.0943  1.3803  0.7048
   87CHL1  H27C 8918   1.327   2.477   7.792  0.4094  0.4503 -0.7002
   88CHL1    C3 8919   5.178   0.464   6.182  0.2756  0.3806 -0.1371
   88CHL1    H3 8920   5.238   0.371   6.190 -0.7141 -0.6412 -3.2506
   88CHL1    O3 8921   5.193   0.526   6.059  0.2721 -0.4453 -0.0519
   88CHL1   H3' 8922   5.171   0.616   6.082  0.4352 -0.0518 -1.3524
   88CHL1    C4 8923   5.024   0.442   6.208  0.6387  0.5220  0.0968
   88CHL1   H4A 8924   4.980   0.537   6.171  2.0008  0.8829 -0.6878
   88CHL1   H4B 8925   4.984   0.360   6.145  0.3463  0.9022 -0.2162
   88CHL1    C5 8926   4.990   0.409   6.353 -0.0302  0.3951  0.0298
   88CHL1    C6 8927   4.941   0.291   6.393  0.5229 -0.0137 -0.0130
   88CHL1    H6 8928   4.910   0.228   6.307  0.5146 -0.1982  0.1250
   88CHL1    C7 8929   4.901   0.257   6.537  0.6260  0.1771 -0.3953
   88CHL1   H7A 8930   4.799   0.215   6.548  0.3115  1.3802  1.6508
   88CHL1   H7B 8931   4.969   0.174   6.568 -0.4633 -1.0454 -1.1687
   88CHL1    C8 8932   4.910   0.373   6.639 -0.5456  0.1219  0.5039
   88CHL1    H8 8933   4.823   0.442   6.634  0.9961  2.0622 -2.0479
   88CHL1   C14 8934   4.926   0.317   6.784  0.2746  0.3524 -0.6179
   88CHL1   H14 8935   5.026   0.271   6.776 -0.9431 -2.4451 -0.6684
   88CHL1   C15 8936   4.843   0.199   6.826  0.4655  0.4241 -0.4959
   88CHL1  H15A 8937   4.738   0.203   6.790  1.1017 -0.9892 -2.7470
   88CHL1  H15B 8938   4.885   0.103   6.788  0.1069  0.4668 -1.0074
   88CHL1   C16 8939   4.856   0.200   6.976  0.3641 -0.6294  0.1302
   88CHL1  H16A 8940   4.760   0.201   7.031 -1.1585 -0.4642 -2.4075
   88CHL1  H16B 8941   4.923   0.119   7.013  0.4742 -0.1818  0.9190
   88CHL1   C17 8942   4.945   0.322   7.018  0.0408  1.1126 -0.5382
   88CHL1   H17 8943   5.049   0.286   7.014 -0.7111 -1.2231 -0.2479
   88CHL1   C13 8944   4.930   0.421   6.899  0.0076  0.0414  0.2062
   88CHL1   C18 8945   4.794   0.491   6.897  0.1845  0.3344  0.4781
   88CHL1  H18A 8946   4.801   0.574   6.971 -0.2133  0.0259  0.8681
   88CHL1  H18B 8947   4.776   0.533   6.796 -1.5018  0.1378  0.6649
   88CHL1  H18C 8948   4.716   0.422   6.937  1.3210 -1.4938 -0.3249
   88CHL1   C12 8949   5.054   0.520   6.860  0.0238  0.2043  0.2972
   88CHL1  H12A 8950   5.057   0.610   6.926 -1.1520  0.4608  0.0228
   88CHL1  H12B 8951   5.137   0.456   6.896  0.0774  0.3177  0.3760
   88CHL1   C11 8952   5.054   0.571   6.711  0.1176 -1.4495  0.2881
   88CHL1  H11A 8953   4.972   0.645   6.702 -1.4930 -2.9229  2.0283
   88CHL1  H11B 8954   5.149   0.623   6.684 -0.0802 -0.9499  0.5288
   88CHL1    C9 8955   5.035   0.455   6.603  0.1657  0.4608 -0.0138
   88CHL1    H9 8956   5.124   0.392   6.620  0.8226  1.4992  0.5075
   88CHL1   C10 8957   5.047   0.507   6.460 -0.1063  0.2067  0.2830
   88CHL1   C19 8958   4.964   0.640   6.441  0.3252  0.4934  0.4925
   88CHL1  H19A 8959   5.022   0.726   6.482  0.5857  1.3243 -1.5136
   88CHL1  H19B 8960   4.957   0.667   6.333  1.0959  0.2914  0.3826
   88CHL1  H19C 8961   4.861   0.625   6.480 -0.3133 -1.2540 -1.6755
   88CHL1    C1 8962   5.203   0.530   6.432 -0.5416 -0.1228  0.6339
   88CHL1   H1A 8963   5.236   0.619   6.490  1.2882  1.1308 -2.1116
   88CHL1   H1B 8964   5.262   0.441   6.463  0.6983  0.6325  0.4937
   88CHL1    C2 8965   5.234   0.562   6.285  0.2483  0.7220  0.7366
   88CHL1   H2A 8966   5.343   0.584   6.278  0.4304  0.3222  1.9868
   88CHL1   H2B 8967   5.189   0.663   6.280  0.0314  0.6657  1.4672
   88CHL1   C20 8968   4.907   0.379   7.156 -0.4352 -0.8400 -0.4598
   88CHL1   H20 8969   4.802   0.412   7.138 -0.9201 -1.6092  0.8022
   88CHL1   C21 8970   4.994   0.502   7.201 -0.0590  0.5780  0.1229
   88CHL1  H21A 8971   4.987   0.510   7.311  1.8851 -0.3370  0.3557
   88CHL1  H21B 8972   4.975   0.600   7.152 -2.5274 -0.5791 -1.4461
   88CHL1  H21C 8973   5.102   0.484   7.182 -0.3356 -1.1434 -0.0614
   88CHL1   C22 8974   4.921   0.267   7.266 -0.5450  0.0220 -0.4379
   88CHL1  H22A 8975   4.889   0.308   7.364  0.0580 -1.3714  0.3851
   88CHL1  H22B 8976   4.846   0.191   7.237 -0.8846 -0.1764  0.8955
   88CHL1   C23 8977   5.067   0.202   7.292  0.7124  0.2234 -0.3403
   88CHL1  H23A 8978   5.105   0.177   7.191 -1.6986 -3.2750 -0.5538
   88CHL1  H23B 8979   5.128   0.286   7.333  1.7081  1.0306 -3.2712
   88CHL1   C24 8980   5.051   0.080   7.378 -0.2480  0.6296  0.2178
   88CHL1  H24A 8981   4.983   0.088   7.465 -2.6836  2.0301 -1.6850
   88CHL1  H24B 8982   5.019  -0.011   7.323  1.0117  0.6350 -0.5732
   88CHL1   C25 8983   5.186   0.048   7.445 -0.3699  0.5061  0.3211
   88CHL1   H25 8984   5.224   0.135   7.502  1.7592  1.2908 -2.0954
   88CHL1   C26 8985   5.162  -0.080   7.536 -0.0697  0.2805  0.7262
   88CHL1  H26A 8986   5.079  -0.059   7.606  1.5443 -1.0809  3.1987
   88CHL1  H26B 8987   5.130  -0.173   7.485  3.1682 -0.7548  0.3402
   88CHL1  H26C 8988   5.257  -0.099   7.591 -0.8813  0.2719  2.1712
   88CHL1   C27 8989   5.289   0.012   7.338  0.3011 -0.0681  0.2706
   88CHL1  H27A 8990   5.294   0.084   7.254 -1.5839  1.9961  1.8180
   88CHL1  H27B 8991   5.390   0.002   7.383  0.0127  0.8365  1.1427
   88CHL1  H27C 8992   5.265  -0.081   7.283 -0.2678  0.4876 -0.4420
   89CHL1    C3 8993   0.519   4.505   6.155 -0.2995  0.0718 -0.5122
   89CHL1    H3 8994   0.501   4.610   6.189  1.0832 -0.1067  0.8876
   89CHL1    O3 8995   0.568   4.491   6.023  0.4145 -0.5603  0.5063
   89CHL1   H3' 8996   0.527   4.411   5.988 -0.4554  0.2730 -0.4539
   89CHL1    C4 8997   0.632   4.449   6.253  0.0198 -0.5832  0.4257
   89CHL1   H4A 8998   0.670   4.348   6.224 -3.4485 -2.0085  0.3267
   89CHL1   H4B 8999   0.723   4.510   6.234 -0.3186 -0.5931 -1.4169
   89CHL1    C5 9000   0.594   4.453   6.400 -0.2626  0.3928 -0.0670
   89CHL1    C6 9001   0.664   4.518   6.485  0.1202  0.2236 -0.5401
   89CHL1    H6 9002   0.754   4.559   6.437 -0.2447  0.3745 -1.1099
   89CHL1    C7 9003   0.641   4.528   6.631 -0.7866  0.2750  0.2088
   89CHL1   H7A 9004   0.739   4.514   6.681  1.1829  3.7060 -2.2516
   89CHL1   H7B 9005   0.620   4.633   6.660 -0.1639  1.3140 -2.7604
   89CHL1    C8 9006   0.536   4.425   6.673 -0.0833 -0.2809  0.4086
   89CHL1    H8 9007   0.580   4.323   6.680 -0.0151 -0.2206  0.9060
   89CHL1   C14 9008   0.482   4.474   6.802  0.3360 -0.2145 -0.1193
   89CHL1   H14 9009   0.433   4.572   6.781  2.9032  1.8733  2.6594
   89CHL1   C15 9010   0.588   4.506   6.914 -0.6240  0.6404 -0.0680
   89CHL1  H15A 9011   0.646   4.411   6.911 -2.7883 -0.8558  1.6939
   89CHL1  H15B 9012   0.639   4.602   6.891 -1.7908  1.1567 -0.5812
   89CHL1   C16 9013   0.501   4.519   7.040 -0.3185 -0.0235 -0.5293
   89CHL1  H16A 9014   0.535   4.447   7.118 -0.0299  1.7608  1.0471
   89CHL1  H16B 9015   0.511   4.623   7.077 -1.6364 -0.6079  1.7148
   89CHL1   C17 9016   0.360   4.478   6.996 -0.1336 -0.0934  0.0074
   89CHL1   H17 9017   0.310   4.572   6.966  1.6289  0.7517 -0.4144
   89CHL1   C13 9018   0.375   4.389   6.869  0.5476 -0.2055 -0.1798
   89CHL1   C18 9019   0.422   4.247   6.913 -0.2858  0.3553 -0.0301
   89CHL1  H18A 9020   0.463   4.187   6.828 -0.0828 -1.9464  1.5816
   89CHL1  H18B 9021   0.500   4.253   6.992  0.1140  0.8401 -0.4585
   89CHL1  H18C 9022   0.332   4.187   6.937 -1.0388  0.6426 -1.9462
   89CHL1   C12 9023   0.258   4.371   6.773 -0.4881  0.1876  0.7504
   89CHL1  H12A 9024   0.183   4.296   6.806  0.2403 -1.5107 -1.2083
   89CHL1  H12B 9025   0.204   4.468   6.769 -0.1367  0.4082  1.2394
   89CHL1   C11 9026   0.302   4.331   6.630  0.0484  0.1590  0.4116
   89CHL1  H11A 9027   0.318   4.221   6.633 -2.9025 -0.3339  2.6078
   89CHL1  H11B 9028   0.211   4.334   6.567  0.5875  0.0613 -0.3892
   89CHL1    C9 9029   0.417   4.413   6.569 -0.8595 -0.2786 -0.1135
   89CHL1    H9 9030   0.374   4.516   6.563 -0.2981 -0.1187 -1.9026
   89CHL1   C10 9031   0.465   4.371   6.430  0.1118 -0.7289 -0.3616
   89CHL1   C19 9032   0.495   4.218   6.423  0.4259 -0.9634 -0.4742
   89CHL1  H19A 9033   0.400   4.161   6.418 -0.3396  0.3867 -2.4174
   89CHL1  H19B 9034   0.556   4.200   6.332 -0.1584 -1.0101 -0.8582
   89CHL1  H19C 9035   0.552   4.182   6.511 -0.7860  0.2027  0.8489
   89CHL1    C1 9036   0.359   4.406   6.328  0.1507 -0.0252  0.3420
   89CHL1   H1A 9037   0.265   4.349   6.343  0.6714 -0.9644  0.0893
   89CHL1   H1B 9038   0.319   4.509   6.342 -0.9242 -0.2983 -0.5584
   89CHL1    C2 9039   0.405   4.412   6.180  0.5490  0.9118  0.2969
   89CHL1   H2A 9040   0.313   4.440   6.124 -0.9257 -0.4672  1.9016
   89CHL1   H2B 9041   0.418   4.307   6.145  0.6054  1.3975 -1.2280
   89CHL1   C20 9042   0.270   4.425   7.121  0.7780 -0.7038  1.1686
   89CHL1   H20 9043   0.315   4.327   7.150  0.3489 -0.8021  1.5329
   89CHL1   C21 9044   0.123   4.399   7.075 -0.3180 -0.0259 -0.0919
   89CHL1  H21A 9045   0.114   4.313   7.005  0.2984 -0.7294  0.6618
   89CHL1  H21B 9046   0.096   4.492   7.022 -0.0928  0.0769 -0.0270
   89CHL1  H21C 9047   0.056   4.390   7.164 -1.1657 -1.1985 -0.8149
   89CHL1   C22 9048   0.282   4.502   7.251 -0.2400 -0.6147  0.0801
   89CHL1  H22A 9049   0.215   4.456   7.326 -1.1852 -0.0889 -0.4134
   89CHL1  H22B 9050   0.385   4.487   7.290 -0.4724 -1.3161  0.4376
   89CHL1   C23 9051   0.250   4.650   7.237  0.6501 -0.4205  0.1967
   89CHL1  H23A 9052   0.311   4.702   7.160 -0.8968 -2.7252 -2.7933
   89CHL1  H23B 9053   0.148   4.662   7.195  0.8670 -1.1722 -0.5594
   89CHL1   C24 9054   0.265   4.720   7.372  0.5007  0.2002  0.4168
   89CHL1  H24A 9055   0.357   4.677   7.416  2.0722  4.2306  1.4705
   89CHL1  H24B 9056   0.283   4.830   7.368 -0.0140  0.3093  0.9427
   89CHL1   C25 9057   0.149   4.701   7.470  0.9566  0.5949  0.7687
   89CHL1   H25 9058   0.129   4.592   7.472 -0.6575  0.8129 -0.9783
   89CHL1   C26 9059   0.194   4.746   7.610 -0.0988  0.0357 -0.3561
   89CHL1  H26A 9060   0.186   4.857   7.617 -1.4741 -0.1275  2.1149
   89CHL1  H26B 9061   0.124   4.713   7.689 -1.0048  2.0804 -0.2424
   89CHL1  H26C 9062   0.292   4.697   7.631 -1.0782 -2.3538 -1.1473
   89CHL1   C27 9063   0.016   4.770   7.427  0.3420 -0.5799  0.5846
   89CHL1  H27A 9064  -0.046   4.796   7.515 -1.0598 -0.5024 -0.3839
   89CHL1  H27B 9065   0.037   4.872   7.387  0.5115 -0.0653  1.9199
   89CHL1  H27C 9066  -0.044   4.713   7.353 -0.6574 -1.5315  2.0859
   90CHL1    C3 9067   0.691   4.862   6.099 -0.4049  0.3470 -0.3967
   90CHL1    H3 9068   0.666   4.754   6.103 -2.5782  0.7422 -1.7977
   90CHL1    O3 9069   0.707   4.879   5.962  0.5900  0.2356  0.2216
   90CHL1   H3' 9070   0.748   4.966   5.955  3.3377 -1.0133 -0.4762
   90CHL1    C4 9071   0.586   4.950   6.156  0.3235  0.2629 -0.5791
   90CHL1   H4A 9072   0.606   5.057   6.135 -0.9031  0.6242  0.0000
   90CHL1   H4B 9073   0.487   4.920   6.114 -0.2665 -3.4120  2.7609
   90CHL1    C5 9074   0.574   4.935   6.304  0.3235 -0.4339  0.1182
   90CHL1    C6 9075   0.464   4.896   6.364  0.4406 -0.2162 -0.4017
   90CHL1    H6 9076   0.372   4.873   6.308  0.7620  0.6298 -1.3149
   90CHL1    C7 9077   0.444   4.886   6.511 -0.1930 -0.0905  0.1541
   90CHL1   H7A 9078   0.341   4.924   6.531  0.3183  1.4115  0.0642
   90CHL1   H7B 9079   0.449   4.778   6.539  1.6529 -0.1786 -0.4163
   90CHL1    C8 9080   0.556   4.963   6.589  0.5167  0.0894  0.3113
   90CHL1    H8 9081   0.529   5.069   6.572 -0.2996 -0.3613 -1.4287
   90CHL1   C14 9082   0.552   4.923   6.738  0.5741  0.0609 -0.5765
   90CHL1   H14 9083   0.578   4.815   6.732  0.4989  0.0392 -0.5163
   90CHL1   C15 9084   0.416   4.929   6.812 -0.5058 -0.2646 -0.1305
   90CHL1  H15A 9085   0.350   5.016   6.791  0.9997  1.3931  1.6776
   90CHL1  H15B 9086   0.367   4.831   6.796 -2.8224  0.7255  0.3573
   90CHL1   C16 9087   0.455   4.940   6.964 -0.4395  0.3373  0.1860
   90CHL1  H16A 9088   0.423   5.039   7.005 -2.4669 -1.2999  2.9266
   90CHL1  H16B 9089   0.400   4.871   7.031  0.2600  0.2304  0.6637
   90CHL1   C17 9090   0.612   4.916   6.961 -0.2102  0.1763  0.2433
   90CHL1   H17 9091   0.621   4.806   6.949  0.4165  0.2212  0.2970
   90CHL1   C13 9092   0.652   4.982   6.831  0.6585  0.1567 -0.3029
   90CHL1   C18 9093   0.626   5.137   6.832 -0.5248  0.0782 -0.2565
   90CHL1  H18A 9094   0.538   5.163   6.894  0.0530 -0.4393  0.8149
   90CHL1  H18B 9095   0.719   5.193   6.856 -1.6056  3.8531 -3.8121
   90CHL1  H18C 9096   0.604   5.165   6.727 -3.1290  2.0771  0.7149
   90CHL1   C12 9097   0.794   4.950   6.776  0.9033  0.6425 -0.0343
   90CHL1  H12A 9098   0.867   4.999   6.843  0.3987 -1.5233  2.2834
   90CHL1  H12B 9099   0.807   4.840   6.785  2.9258  0.9292  1.3064
   90CHL1   C11 9100   0.802   4.994   6.632  0.2613  0.0095 -0.0369
   90CHL1  H11A 9101   0.807   5.105   6.621 -1.0424  0.2196  1.1700
   90CHL1  H11B 9102   0.897   4.952   6.594  0.4075  0.4247 -0.1407
   90CHL1    C9 9103   0.694   4.935   6.537  0.7745  0.4365 -0.0755
   90CHL1    H9 9104   0.703   4.825   6.544  1.3173  0.5209  0.8083
   90CHL1   C10 9105   0.700   4.970   6.384 -0.5679  0.0985 -1.0426
   90CHL1   C19 9106   0.720   5.127   6.371  0.1345  0.2898 -0.2662
   90CHL1  H19A 9107   0.723   5.169   6.268 -1.1211  0.5611 -0.2150
   90CHL1  H19B 9108   0.630   5.177   6.413 -0.2633  1.0273 -1.9046
   90CHL1  H19C 9109   0.806   5.173   6.424 -1.0673  0.5525  1.5466
   90CHL1    C1 9110   0.813   4.887   6.324 -0.5724  0.2179  0.2332
   90CHL1   H1A 9111   0.907   4.913   6.377  0.1130 -0.4182 -0.6525
   90CHL1   H1B 9112   0.798   4.782   6.358 -1.9194 -0.2147 -1.5357
   90CHL1    C2 9113   0.826   4.896   6.174 -0.0242  0.3840 -0.4581
   90CHL1   H2A 9114   0.910   4.831   6.139  1.0408  1.2084  0.4938
   90CHL1   H2B 9115   0.855   5.000   6.149  1.1563  0.4534  1.0378
   90CHL1   C20 9116   0.691   4.953   7.094  0.1562  0.8049  0.5166
   90CHL1   H20 9117   0.702   5.064   7.099  1.9437  0.8135 -2.0373
   90CHL1   C21 9118   0.835   4.895   7.088 -0.0455  0.2911  0.0028
   90CHL1  H21A 9119   0.898   4.962   7.025  0.8627  0.6870  1.3086
   90CHL1  H21B 9120   0.831   4.796   7.039  0.5184  0.8298 -1.1864
   90CHL1  H21C 9121   0.893   4.877   7.181  0.0387  0.0829 -0.0891
   90CHL1   C22 9122   0.608   4.902   7.216  0.1514  0.2341  0.6455
   90CHL1  H22A 9123   0.501   4.932   7.212  0.3279  0.7955 -1.5005
   90CHL1  H22B 9124   0.597   4.792   7.222 -4.2341  0.3317 -1.5034
   90CHL1   C23 9125   0.665   4.968   7.353  0.5051 -0.2886 -0.1591
   90CHL1  H23A 9126   0.765   4.927   7.377  0.1539  0.0006  2.0272
   90CHL1  H23B 9127   0.688   5.074   7.328  2.5763 -0.5527  0.4655
   90CHL1   C24 9128   0.576   4.957   7.479  0.6014 -0.0091 -0.2885
   90CHL1  H24A 9129   0.471   4.988   7.459  0.1476 -0.5205  1.1761
   90CHL1  H24B 9130   0.575   4.858   7.530  1.1294  0.7798  1.2802
   90CHL1   C25 9131   0.618   5.052   7.595 -0.9165 -0.0882 -0.5693
   90CHL1   H25 9132   0.721   5.029   7.632 -1.5238 -0.4356  0.9689
   90CHL1   C26 9133   0.606   5.196   7.555 -0.3323  0.2741 -0.0192
   90CHL1  H26A 9134   0.498   5.222   7.540  0.0306  2.4790  0.7507
   90CHL1  H26B 9135   0.652   5.263   7.631 -0.2910 -0.4131  0.5613
   90CHL1  H26C 9136   0.653   5.219   7.457 -0.3602  0.0213 -0.0929
   90CHL1   C27 9137   0.531   5.026   7.711 -0.5049  0.3218 -0.1602
   90CHL1  H27A 9138   0.540   4.921   7.746 -0.5320 -0.4123 -2.2725
   90CHL1  H27B 9139   0.556   5.092   7.797 -1.6965  2.0360 -1.0743
   90CHL1  H27C 9140   0.428   5.060   7.686  0.5252  3.6052 -0.4608
   91CHL1    C3 9141   2.103   0.641   6.012 -0.0646 -0.8977  0.1624
   91CHL1    H3 9142   2.205   0.672   6.044 -1.1968  0.2918  2.9107
   91CHL1    O3 9143   2.070   0.685   5.881 -0.0615  0.3946 -0.1203
   91CHL1   H3' 9144   1.974   0.679   5.874  0.1533 -2.1977 -2.9683
   91CHL1    C4 9145   2.088   0.485   6.020  0.3142 -0.4290  0.5662
   91CHL1   H4A 9146   1.991   0.470   5.968  0.3673  3.3029 -0.9133
   91CHL1   H4B 9147   2.165   0.445   5.950 -0.0403  2.8998 -1.9245
   91CHL1    C5 9148   2.090   0.424   6.151 -0.2339 -0.5357 -0.4137
   91CHL1    C6 9149   2.181   0.338   6.191 -0.6623  0.8870  0.3846
   91CHL1    H6 9150   2.247   0.293   6.115 -2.5574 -2.9872  0.8420
   91CHL1    C7 9151   2.184   0.270   6.322  0.2439 -0.2939  0.9303
   91CHL1   H7A 9152   2.198   0.161   6.304 -0.8388 -0.1749 -0.8521
   91CHL1   H7B 9153   2.279   0.306   6.366  0.5530  0.7136 -0.5085
   91CHL1    C8 9154   2.055   0.290   6.404  0.5082 -0.2726 -0.6056
   91CHL1    H8 9155   1.987   0.218   6.354  0.9286 -0.5281 -0.8218
   91CHL1   C14 9156   2.080   0.259   6.550 -0.2178  0.1621 -0.3308
   91CHL1   H14 9157   2.155   0.326   6.596 -0.3327  0.0617  0.0030
   91CHL1   C15 9158   2.129   0.124   6.583 -0.2011  0.3914 -0.0515
   91CHL1  H15A 9159   2.066   0.057   6.522 -1.8287  0.0748  1.8635
   91CHL1  H15B 9160   2.237   0.105   6.567  0.1602  3.0351 -1.3486
   91CHL1   C16 9161   2.101   0.120   6.739  0.1828 -0.6072  0.5683
   91CHL1  H16A 9162   2.042   0.028   6.756 -0.3276 -0.5521 -0.7790
   91CHL1  H16B 9163   2.197   0.113   6.794  0.2693 -1.5531  0.3205
   91CHL1   C17 9164   2.020   0.243   6.776 -0.2200 -0.1780 -0.2309
   91CHL1   H17 9165   2.089   0.323   6.810 -0.2714 -0.6243  1.0052
   91CHL1   C13 9166   1.965   0.296   6.645  0.3076 -0.1426  0.9957
   91CHL1   C18 9167   1.836   0.214   6.599  0.5050 -0.0915  0.1600
   91CHL1  H18A 9168   1.790   0.264   6.511  1.2377 -0.9072 -0.7037
   91CHL1  H18B 9169   1.851   0.107   6.576 -2.2160 -0.5676  0.2825
   91CHL1  H18C 9170   1.763   0.213   6.683  1.1331 -1.6691  0.7244
   91CHL1   C12 9171   1.944   0.449   6.642 -0.8383  0.4823  0.2974
   91CHL1  H12A 9172   1.862   0.497   6.699  0.3358  1.7787  0.9428
   91CHL1  H12B 9173   2.039   0.496   6.675 -0.5541  0.5526 -0.5686
   91CHL1   C11 9174   1.913   0.489   6.495 -0.2065  0.1940 -0.0163
   91CHL1  H11A 9175   1.807   0.472   6.466  0.0189  3.5868 -3.5866
   91CHL1  H11B 9176   1.923   0.600   6.500  0.1140  0.1955 -0.6946
   91CHL1    C9 9177   2.021   0.443   6.396  0.6355  0.5431 -0.6947
   91CHL1    H9 9178   2.108   0.499   6.436  1.8322 -1.8259  0.1758
   91CHL1   C10 9179   1.990   0.485   6.247 -0.0067 -0.1503  0.4777
   91CHL1   C19 9180   1.844   0.441   6.209 -0.2529  0.4984  0.4350
   91CHL1  H19A 9181   1.837   0.450   6.098  2.1002 -0.3652  0.1614
   91CHL1  H19B 9182   1.830   0.333   6.232  0.7929  0.6778  2.0223
   91CHL1  H19C 9183   1.772   0.504   6.265 -0.9663 -0.3229  0.4533
   91CHL1    C1 9184   2.015   0.637   6.236 -0.5009 -0.4156  0.4646
   91CHL1   H1A 9185   1.939   0.681   6.304 -0.1404  2.3267 -0.7835
   91CHL1   H1B 9186   2.111   0.655   6.290 -1.6922  1.2527  2.1396
   91CHL1    C2 9187   2.007   0.715   6.101  0.0537 -0.3076 -0.0177
   91CHL1   H2A 9188   2.042   0.819   6.120 -2.9963  0.2959  3.2788
   91CHL1   H2B 9189   1.903   0.716   6.062 -0.0388  0.7621  0.2343
   91CHL1   C20 9190   1.930   0.231   6.912  0.5607 -0.2312  0.1684
   91CHL1   H20 9191   1.862   0.319   6.902  3.5945  2.2058 -0.7369
   91CHL1   C21 9192   2.027   0.258   7.021  0.2352 -0.6934 -0.3343
   91CHL1  H21A 9193   2.106   0.182   7.037  0.7322  0.1409  1.5663
   91CHL1  H21B 9194   1.983   0.277   7.122  0.8529  1.2998 -0.4012
   91CHL1  H21C 9195   2.076   0.357   7.006  0.3294 -0.7282 -0.2627
   91CHL1   C22 9196   1.853   0.096   6.928  0.5584 -0.1787 -0.1196
   91CHL1  H22A 9197   1.810   0.058   6.833 -0.2310  0.0336  0.1512
   91CHL1  H22B 9198   1.940   0.032   6.953  0.7003  0.4326  1.0170
   91CHL1   C23 9199   1.752   0.114   7.042 -0.4698  0.3231 -0.9366
   91CHL1  H23A 9200   1.811   0.158   7.125  0.9415 -1.7060 -0.7787
   91CHL1  H23B 9201   1.668   0.175   7.002 -0.3097  0.9289 -0.3472
   91CHL1   C24 9202   1.707  -0.022   7.101  0.7027  0.6908  0.3212
   91CHL1  H24A 9203   1.666  -0.081   7.016  1.2123  1.4691 -0.4836
   91CHL1  H24B 9204   1.794  -0.075   7.146 -1.1085  0.2561  3.6385
   91CHL1   C25 9205   1.601  -0.009   7.210  0.2481  0.1767 -0.1511
   91CHL1   H25 9206   1.525   0.058   7.164  1.2232 -0.2979 -2.6116
   91CHL1   C26 9207   1.539  -0.143   7.244  0.4113 -0.5866 -0.0518
   91CHL1  H26A 9208   1.459  -0.127   7.318  1.6555  0.2517  1.1653
   91CHL1  H26B 9209   1.502  -0.196   7.153 -0.7766  0.9319 -0.4809
   91CHL1  H26C 9210   1.605  -0.206   7.308 -2.5648 -1.6520  2.1674
   91CHL1   C27 9211   1.646   0.061   7.338  0.3051 -0.3341  0.0513
   91CHL1  H27A 9212   1.735   0.006   7.376  0.8595  0.9907  0.7272
   91CHL1  H27B 9213   1.671   0.167   7.318 -0.9266  0.7679  3.7065
   91CHL1  H27C 9214   1.567   0.050   7.415  0.1627 -1.0216 -0.1790
   92CHL1    C3 9215   5.925   1.375   6.259  0.6440  0.4108 -0.0122
   92CHL1    H3 9216   6.007   1.303   6.239 -0.6556 -0.7542 -1.4909
   92CHL1    O3 9217   5.879   1.407   6.126  0.0135  0.7921  0.1165
   92CHL1   H3' 9218   5.813   1.476   6.132 -0.4170  0.3377  0.7837
   92CHL1    C4 9219   5.815   1.306   6.330  0.1756  0.0632 -0.5455
   92CHL1   H4A 9220   5.720   1.363   6.325  0.4142  0.4988 -0.2221
   92CHL1   H4B 9221   5.799   1.218   6.264 -0.3692 -1.4759  1.5284
   92CHL1    C5 9222   5.859   1.269   6.469  0.0476 -1.3923  0.0724
   92CHL1    C6 9223   5.843   1.142   6.512 -0.4875  0.0185  0.9125
   92CHL1    H6 9224   5.808   1.062   6.444  1.7791 -0.3318  0.0568
   92CHL1    C7 9225   5.871   1.106   6.658 -0.0432 -0.2695  0.2543
   92CHL1   H7A 9226   5.789   1.044   6.701  0.0686 -0.9669 -0.5136
   92CHL1   H7B 9227   5.971   1.059   6.646 -0.2155 -0.7093  0.4883
   92CHL1    C8 9228   5.894   1.229   6.752 -0.6136 -0.1197  0.5040
   92CHL1    H8 9229   5.794   1.272   6.775 -0.6716  1.1450 -1.7814
   92CHL1   C14 9230   5.957   1.186   6.884 -0.4652  0.3208 -0.3104
   92CHL1   H14 9231   6.064   1.163   6.866 -0.5015 -1.7574  1.7358
   92CHL1   C15 9232   5.900   1.070   6.951  0.4662  0.5207  0.2583
   92CHL1  H15A 9233   5.790   1.084   6.950 -0.2305 -2.9122  3.8038
   92CHL1  H15B 9234   5.925   0.971   6.906  0.3161 -0.2633  1.8249
   92CHL1   C16 9235   5.955   1.066   7.087  0.0314 -1.0477 -0.0988
   92CHL1  H16A 9236   5.879   1.060   7.168  1.6075  0.0865  1.5332
   92CHL1  H16B 9237   6.024   0.979   7.092 -1.0625 -1.8669  2.3305
   92CHL1   C17 9238   6.029   1.204   7.102 -0.7046  0.0453 -0.0106
   92CHL1   H17 9239   6.128   1.161   7.074 -1.4116 -1.8131  0.2122
   92CHL1   C13 9240   5.971   1.292   6.993 -0.6204 -0.3546 -0.4938
   92CHL1   C18 9241   5.834   1.347   7.036  0.4847  0.3571  0.7104
   92CHL1  H18A 9242   5.748   1.336   6.967  0.9217  2.1753 -0.2009
   92CHL1  H18B 9243   5.797   1.290   7.124  0.9758 -1.3961 -0.1860
   92CHL1  H18C 9244   5.829   1.449   7.082 -2.7675  0.5918  0.1278
   92CHL1   C12 9245   6.068   1.401   6.933 -0.1213  0.0035 -0.7582
   92CHL1  H12A 9246   6.070   1.488   7.001  3.2704 -0.7846  0.3488
   92CHL1  H12B 9247   6.173   1.363   6.931 -0.1085 -0.5065  3.0937
   92CHL1   C11 9248   6.013   1.454   6.800  0.3681 -0.4681  0.8020
   92CHL1  H11A 9249   5.921   1.515   6.818  0.6124  0.7429 -1.6230
   92CHL1  H11B 9250   6.084   1.526   6.753 -0.2596 -1.3188 -1.5893
   92CHL1    C9 9251   5.975   1.342   6.694  0.5582  0.1197  0.0196
   92CHL1    H9 9252   6.069   1.287   6.670 -0.0206 -0.3250 -1.3496
   92CHL1   C10 9253   5.913   1.396   6.557 -0.3028 -0.0467  0.4764
   92CHL1   C19 9254   5.785   1.477   6.585 -0.1611 -0.0686  0.3209
   92CHL1  H19A 9255   5.716   1.424   6.654  1.3193  2.1608  3.7952
   92CHL1  H19B 9256   5.823   1.564   6.642  0.6056 -1.3370  1.8153
   92CHL1  H19C 9257   5.734   1.518   6.495 -1.1231  1.3333  1.4603
   92CHL1    C1 9258   6.024   1.471   6.475 -0.1004 -0.3654 -0.2186
   92CHL1   H1A 9259   6.051   1.573   6.510  2.5129 -0.2889 -2.1872
   92CHL1   H1B 9260   6.117   1.409   6.478 -1.0753 -2.0064 -1.7126
   92CHL1    C2 9261   5.995   1.500   6.325  0.1761 -0.2940 -0.0074
   92CHL1   H2A 9262   6.081   1.529   6.262 -0.6061  2.2136 -0.0396
   92CHL1   H2B 9263   5.924   1.584   6.309 -1.3802 -1.9687 -2.8117
   92CHL1   C20 9264   6.055   1.263   7.246  0.6754  0.1098  0.7274
   92CHL1   H20 9265   5.960   1.313   7.277  0.1149 -2.0873  2.8771
   92CHL1   C21 9266   6.150   1.381   7.247 -0.4656 -0.3542  0.1461
   92CHL1  H21A 9267   6.253   1.359   7.213 -0.5953  1.1259 -1.2593
   92CHL1  H21B 9268   6.160   1.411   7.354  0.7892 -1.0947  0.2605
   92CHL1  H21C 9269   6.099   1.466   7.198 -0.4530  1.2360  2.7290
   92CHL1   C22 9270   6.074   1.155   7.362  0.4484  0.2681 -0.3797
   92CHL1  H22A 9271   6.019   1.060   7.348  0.0311  0.3212  0.7541
   92CHL1  H22B 9272   6.183   1.139   7.371  0.1886 -0.3394  3.2838
   92CHL1   C23 9273   6.032   1.217   7.502 -0.7703 -0.0205 -0.0924
   92CHL1  H23A 9274   6.059   1.324   7.511 -0.1740 -0.3174  2.3455
   92CHL1  H23B 9275   5.921   1.211   7.505 -0.7442 -0.0703  1.8035
   92CHL1   C24 9276   6.095   1.129   7.618 -0.1547 -0.3297  0.3705
   92CHL1  H24A 9277   6.073   1.021   7.612 -0.6732 -0.2631  0.9101
   92CHL1  H24B 9278   6.204   1.151   7.613 -0.4636  1.0207 -1.4355
   92CHL1   C25 9279   6.053   1.169   7.760 -0.1776  0.6355  0.0893
   92CHL1   H25 9280   5.947   1.137   7.764  0.2066 -1.2633 -2.4106
   92CHL1   C26 9281   6.133   1.088   7.863 -0.0738 -0.2536 -0.4260
   92CHL1  H26A 9282   6.125   0.980   7.840 -0.2440 -0.3917  0.2701
   92CHL1  H26B 9283   6.241   1.115   7.869 -0.1778  0.5763 -1.7618
   92CHL1  H26C 9284   6.091   1.087   7.966 -0.2850 -0.8526 -0.5176
   92CHL1   C27 9285   6.087   1.317   7.789 -0.2677  0.1863  0.0958
   92CHL1  H27A 9286   6.062   1.339   7.895 -2.0368  0.0875 -0.2655
   92CHL1  H27B 9287   6.194   1.336   7.765 -0.3312 -1.1608 -1.4171
   92CHL1  H27C 9288   6.024   1.386   7.729  0.1661 -0.5983 -1.3156
   93CHL1    C3 9289   5.467   5.979   6.209 -0.3337  0.0386 -0.3854
   93CHL1    H3 9290   5.391   5.911   6.251  0.2852 -0.8644 -0.6981
   93CHL1    O3 9291   5.507   5.945   6.079 -0.1268 -0.3930  0.3819
   93CHL1   H3' 9292   5.592   5.986   6.060 -1.3589  1.7813 -0.7609
   93CHL1    C4 9293   5.420   6.125   6.205  0.8922  0.1675  0.0381
   93CHL1   H4A 9294   5.506   6.185   6.168  1.1870 -0.4249 -0.2527
   93CHL1   H4B 9295   5.334   6.128   6.134  0.9960  0.4774 -0.0755
   93CHL1    C5 9296   5.379   6.176   6.343 -0.8969  0.1666 -0.3638
   93CHL1    C6 9297   5.253   6.213   6.377 -0.1060 -0.1853  0.0328
   93CHL1    H6 9298   5.173   6.219   6.303 -0.9173 -1.4467  0.7538
   93CHL1    C7 9299   5.198   6.264   6.508 -0.4694  0.2216 -0.2038
   93CHL1   H7A 9300   5.150   6.361   6.484 -1.2223 -0.2003 -0.4271
   93CHL1   H7B 9301   5.125   6.195   6.556 -2.8193  1.5943 -1.6322
   93CHL1    C8 9302   5.323   6.286   6.608  0.3843  0.4091  0.0270
   93CHL1    H8 9303   5.378   6.377   6.576  0.5988  1.1322  2.2381
   93CHL1   C14 9304   5.272   6.304   6.753 -0.0202 -0.3777  0.9217
   93CHL1   H14 9305   5.227   6.204   6.771 -0.4120 -0.2738  0.5143
   93CHL1   C15 9306   5.161   6.402   6.784 -0.0861 -0.3622  0.1976
   93CHL1  H15A 9307   5.187   6.500   6.739  0.8557 -1.0366 -0.7798
   93CHL1  H15B 9308   5.058   6.374   6.752 -0.2956  1.4887 -0.8473
   93CHL1   C16 9309   5.166   6.415   6.933  0.0059  0.1282 -0.0815
   93CHL1  H16A 9310   5.168   6.523   6.958  3.0445  0.5764 -1.7825
   93CHL1  H16B 9311   5.076   6.369   6.980  0.9953 -2.1633 -0.2779
   93CHL1   C17 9312   5.289   6.335   6.989  0.4468  0.2854  0.4857
   93CHL1   H17 9313   5.250   6.234   7.012  2.2756 -0.8136 -0.9380
   93CHL1   C13 9314   5.378   6.316   6.866 -0.2302 -0.1015  0.5074
   93CHL1   C18 9315   5.449   6.458   6.840 -0.1743  0.6658  0.0282
   93CHL1  H18A 9316   5.478   6.465   6.733  0.1914 -1.7191 -0.0846
   93CHL1  H18B 9317   5.381   6.542   6.865 -1.7926 -0.1182 -1.5435
   93CHL1  H18C 9318   5.535   6.469   6.909  0.7537 -1.2502 -0.7416
   93CHL1   C12 9319   5.475   6.198   6.854  0.0783 -0.4544 -1.0498
   93CHL1  H12A 9320   5.562   6.221   6.919  1.3731 -3.5435 -1.5253
   93CHL1  H12B 9321   5.422   6.105   6.885 -1.2505  0.6867  0.2862
   93CHL1   C11 9322   5.530   6.186   6.714 -0.4993  0.3032 -0.1308
   93CHL1  H11A 9323   5.606   6.265   6.693  1.8636 -1.7994  0.0066
   93CHL1  H11B 9324   5.596   6.099   6.734  1.2871  1.8192  1.0919
   93CHL1    C9 9325   5.428   6.173   6.602 -0.6375  0.0006 -0.1385
   93CHL1    H9 9326   5.379   6.075   6.621 -1.3712  0.4743  0.4657
   93CHL1   C10 9327   5.485   6.158   6.453 -0.6249 -0.0604 -0.2429
   93CHL1   C19 9328   5.595   6.258   6.428  0.3714  0.5615 -0.3486
   93CHL1  H19A 9329   5.684   6.219   6.483  0.6713  0.1397 -1.1156
   93CHL1  H19B 9330   5.637   6.262   6.325  0.6190 -1.5686 -0.3760
   93CHL1  H19C 9331   5.569   6.361   6.459 -2.4601 -0.6525  1.7566
   93CHL1    C1 9332   5.549   6.015   6.444 -0.4808  0.5755  0.0908
   93CHL1   H1A 9333   5.636   6.003   6.513 -0.3069  0.8053 -0.0854
   93CHL1   H1B 9334   5.490   5.928   6.479  1.0056 -1.3992 -1.9740
   93CHL1    C2 9335   5.587   5.969   6.295 -0.0550 -0.3411 -0.2528
   93CHL1   H2A 9336   5.638   5.871   6.310  2.5444  1.3236  3.0851
   93CHL1   H2B 9337   5.669   6.038   6.264 -1.7422  1.8488 -0.0978
   93CHL1   C20 9338   5.356   6.402   7.113 -0.6530 -0.1620  0.4558
   93CHL1   H20 9339   5.398   6.500   7.083  0.4780 -0.5510  0.6953
   93CHL1   C21 9340   5.474   6.317   7.170 -0.2033 -0.3315  0.2839
   93CHL1  H21A 9341   5.568   6.331   7.113  0.1502 -0.4149  0.8422
   93CHL1  H21B 9342   5.434   6.214   7.175 -1.1904 -0.0230 -0.8163
   93CHL1  H21C 9343   5.485   6.360   7.272  3.4368 -1.4972  0.5041
   93CHL1   C22 9344   5.257   6.439   7.227 -0.5537 -0.3334  0.2842
   93CHL1  H22A 9345   5.318   6.470   7.315  2.5816  0.5093 -2.0201
   93CHL1  H22B 9346   5.187   6.519   7.193  0.3718  0.8999  1.1823
   93CHL1   C23 9347   5.164   6.319   7.265 -1.2583  0.2457  0.1880
   93CHL1  H23A 9348   5.110   6.272   7.180  0.1283  0.2496 -0.7438
   93CHL1  H23B 9349   5.231   6.236   7.296  0.2506  0.8309 -1.3758
   93CHL1   C24 9350   5.075   6.359   7.391 -0.1721  0.1113 -0.0176
   93CHL1  H24A 9351   5.007   6.443   7.366 -0.8976 -0.9171 -1.7436
   93CHL1  H24B 9352   5.006   6.273   7.404  0.6842 -0.7251 -0.7732
   93CHL1   C25 9353   5.140   6.356   7.528  0.1442  0.4196 -0.3415
   93CHL1   H25 9354   5.219   6.434   7.532 -1.8214  2.5275 -0.7533
   93CHL1   C26 9355   5.043   6.405   7.640  0.5393  0.1753 -0.3235
   93CHL1  H26A 9356   4.968   6.326   7.667 -0.6001  0.7615 -1.6295
   93CHL1  H26B 9357   5.097   6.417   7.736  3.5190 -1.1150 -1.7116
   93CHL1  H26C 9358   4.995   6.496   7.597  0.9937 -0.6047 -2.6523
   93CHL1   C27 9359   5.219   6.227   7.572 -0.7309 -0.0849  0.7431
   93CHL1  H27A 9360   5.150   6.139   7.566 -0.4293 -0.2205 -1.4671
   93CHL1  H27B 9361   5.301   6.225   7.498 -0.6608  3.3036  0.5829
   93CHL1  H27C 9362   5.262   6.240   7.674 -0.0193 -1.0008  0.5669
   94CHL1    C3 9363   0.716   2.088   6.368  0.0641  0.3116 -0.0234
   94CHL1    H3 9364   0.773   1.998   6.400  0.8876  0.3497 -1.3324
   94CHL1    O3 9365   0.740   2.123   6.230 -0.3787  0.1384 -0.1007
   94CHL1   H3' 9366   0.694   2.207   6.224 -1.9397 -0.5875  0.9044
   94CHL1    C4 9367   0.565   2.059   6.391  0.4136 -0.2087 -0.0121
   94CHL1   H4A 9368   0.507   2.135   6.333  1.1592  0.5531  0.2250
   94CHL1   H4B 9369   0.561   1.963   6.335  2.4180  0.8282 -2.1225
   94CHL1    C5 9370   0.514   2.049   6.538 -0.0994  0.5455  0.1218
   94CHL1    C6 9371   0.443   1.947   6.586  0.4332  0.2018 -0.2482
   94CHL1    H6 9372   0.401   1.866   6.526 -1.6937  0.2679  1.0451
   94CHL1    C7 9373   0.401   1.933   6.726  0.3246 -0.5682 -0.0725
   94CHL1   H7A 9374   0.290   1.931   6.737  0.3325 -0.3286  0.0542
   94CHL1   H7B 9375   0.439   1.836   6.765  1.5229  0.9452  2.7956
   94CHL1    C8 9376   0.440   2.048   6.822 -0.0978  0.2395  0.6472
   94CHL1    H8 9377   0.367   2.132   6.822  1.1571  1.3785  0.5750
   94CHL1   C14 9378   0.444   1.994   6.958 -0.3787 -1.0361  0.1561
   94CHL1   H14 9379   0.527   1.920   6.961 -0.2840 -0.9195  0.4897
   94CHL1   C15 9380   0.323   1.920   7.020 -0.5055 -0.2189 -0.8007
   94CHL1  H15A 9381   0.234   1.986   7.007 -2.4274 -2.1792  1.4185
   94CHL1  H15B 9382   0.314   1.822   6.968  2.6863 -0.6037 -0.7854
   94CHL1   C16 9383   0.363   1.898   7.160  0.7159  0.0384 -0.6140
   94CHL1  H16A 9384   0.266   1.901   7.214 -0.7941 -0.0654 -3.1425
   94CHL1  H16B 9385   0.397   1.796   7.186 -0.7124  0.2751  2.7590
   94CHL1   C17 9386   0.479   1.994   7.193 -0.6609 -0.4223 -0.0529
   94CHL1   H17 9387   0.581   1.949   7.197 -0.5554 -0.1929 -0.1092
   94CHL1   C13 9388   0.490   2.091   7.070 -0.1583  0.3579 -0.8436
   94CHL1   C18 9389   0.398   2.213   7.086 -0.1062 -0.5127 -0.0546
   94CHL1  H18A 9390   0.290   2.189   7.076 -0.3418  0.5518 -0.1949
   94CHL1  H18B 9391   0.409   2.275   7.178 -0.1860 -0.8371  0.1744
   94CHL1  H18C 9392   0.428   2.283   7.005  2.2385 -0.9887  0.3414
   94CHL1   C12 9393   0.629   2.127   7.031 -0.0671 -0.3945 -0.0168
   94CHL1  H12A 9394   0.690   2.185   7.103  2.3320 -0.6256 -1.7353
   94CHL1  H12B 9395   0.688   2.033   7.037  2.9176  1.4069  1.3346
   94CHL1   C11 9396   0.645   2.186   6.893  0.2737  0.4814  0.6933
   94CHL1  H11A 9397   0.616   2.293   6.883 -1.9597 -0.1479 -0.0776
   94CHL1  H11B 9398   0.751   2.176   6.861  0.3967 -0.1301  1.2595
   94CHL1    C9 9399   0.578   2.100   6.783 -0.2709 -0.2878  0.4370
   94CHL1    H9 9400   0.642   2.009   6.778 -1.6587 -1.2564 -1.4958
   94CHL1   C10 9401   0.578   2.150   6.633 -0.5603 -0.0452  0.1364
   94CHL1   C19 9402   0.489   2.280   6.629  0.1717  0.3182  0.2869
   94CHL1  H19A 9403   0.517   2.355   6.706 -1.3266 -0.2427  1.4387
   94CHL1  H19B 9404   0.503   2.334   6.533  2.3172  0.8161  0.8270
   94CHL1  H19C 9405   0.381   2.262   6.647  0.3975 -3.1568 -1.0308
   94CHL1    C1 9406   0.726   2.189   6.595 -0.0881  0.2191  0.0299
   94CHL1   H1A 9407   0.757   2.271   6.663  4.0997 -1.2875  0.1912
   94CHL1   H1B 9408   0.789   2.103   6.626  1.7962  0.7492 -2.1573
   94CHL1    C2 9409   0.762   2.214   6.449 -0.2841  0.3856 -0.2868
   94CHL1   H2A 9410   0.870   2.235   6.436  0.2540 -1.5569  0.5229
   94CHL1   H2B 9411   0.706   2.301   6.409  0.2320  0.5639 -0.6316
   94CHL1   C20 9412   0.455   2.052   7.330  0.2089  0.5803 -0.4230
   94CHL1   H20 9413   0.359   2.108   7.325 -0.1267 -0.0089 -0.7119
   94CHL1   C21 9414   0.563   2.145   7.372 -0.3251  0.0628 -0.2025
   94CHL1  H21A 9415   0.530   2.211   7.456 -1.4019  0.8488 -1.2071
   94CHL1  H21B 9416   0.598   2.209   7.288  0.1660  0.7330  0.5000
   94CHL1  H21C 9417   0.652   2.094   7.415  0.3017  0.7789 -0.6345
   94CHL1   C22 9418   0.439   1.948   7.444 -0.7796 -0.4083  0.2634
   94CHL1  H22A 9419   0.363   1.870   7.422  0.6778 -1.8758  0.2321
   94CHL1  H22B 9420   0.536   1.895   7.456 -0.2215 -0.5013 -3.3875
   94CHL1   C23 9421   0.387   2.014   7.572 -1.1354  0.4938 -0.1753
   94CHL1  H23A 9422   0.458   2.092   7.606 -0.1239 -1.3981  2.4012
   94CHL1  H23B 9423   0.293   2.073   7.558 -1.2436  0.3182 -0.1968
   94CHL1   C24 9424   0.368   1.917   7.689  0.1616 -0.0362 -0.0933
   94CHL1  H24A 9425   0.308   1.835   7.643 -0.3427  0.6124 -0.6196
   94CHL1  H24B 9426   0.467   1.876   7.717  0.0061  0.4935  1.2873
   94CHL1   C25 9427   0.299   1.961   7.813 -0.5296 -0.5472 -0.3671
   94CHL1   H25 9428   0.191   1.984   7.798  0.1162  1.4023 -2.7981
   94CHL1   C26 9429   0.321   1.853   7.922 -0.4810  0.0114  0.6849
   94CHL1  H26A 9430   0.286   1.879   8.025  2.9627 -1.0267  2.2544
   94CHL1  H26B 9431   0.288   1.751   7.890  1.8099 -0.8252  0.8058
   94CHL1  H26C 9432   0.431   1.838   7.921 -0.6285 -1.2616  1.1072
   94CHL1   C27 9433   0.339   2.106   7.853  0.2993  0.6764 -0.5739
   94CHL1  H27A 9434   0.312   2.184   7.779  1.0256  3.2545  1.6942
   94CHL1  H27B 9435   0.297   2.140   7.950 -0.7866 -0.8362 -0.4844
   94CHL1  H27C 9436   0.450   2.109   7.866  0.0843  1.9055  1.3816
   95CHL1    C3 9437   5.527   0.351   6.048 -0.2841 -0.6827  0.5203
   95CHL1    H3 9438   5.450   0.430   6.056  0.4101 -0.0366  0.9643
   95CHL1    O3 9439   5.519   0.278   5.923 -0.0205  0.0553 -0.0758
   95CHL1   H3' 9440   5.605   0.236   5.913  0.1406  0.6607 -1.4375
   95CHL1    C4 9441   5.670   0.406   6.058 -0.2347 -0.0879 -0.4634
   95CHL1   H4A 9442   5.734   0.317   6.038 -0.6647  0.0168 -2.5699
   95CHL1   H4B 9443   5.686   0.480   5.976 -1.2037  1.0804  0.3743
   95CHL1    C5 9444   5.708   0.467   6.190 -0.0668 -0.2284  0.8656
   95CHL1    C6 9445   5.757   0.589   6.196 -0.3149  0.3599  0.1218
   95CHL1    H6 9446   5.782   0.645   6.104  0.2704 -1.2066 -0.7164
   95CHL1    C7 9447   5.808   0.642   6.326  0.2416 -0.6890 -0.1639
   95CHL1   H7A 9448   5.906   0.691   6.310  0.5724 -0.5844  1.9327
   95CHL1   H7B 9449   5.738   0.717   6.369  0.0955 -0.3816 -0.9213
   95CHL1    C8 9450   5.826   0.540   6.436  0.0416 -0.2686  0.4340
   95CHL1    H8 9451   5.918   0.480   6.417  1.5565  1.9385  0.4693
   95CHL1   C14 9452   5.848   0.605   6.569 -0.0922 -0.2775  0.1772
   95CHL1   H14 9453   5.753   0.659   6.587 -1.1712 -2.0641  0.1638
   95CHL1   C15 9454   5.964   0.704   6.575 -0.0008 -0.1078  0.2884
   95CHL1  H15A 9455   6.044   0.643   6.529 -2.2211 -2.3044 -0.8860
   95CHL1  H15B 9456   5.950   0.798   6.517  1.5544 -0.2022 -0.2698
   95CHL1   C16 9457   5.999   0.720   6.721  0.5561  0.5955  0.3490
   95CHL1  H16A 9458   6.106   0.699   6.740 -0.0940 -0.5912  3.2831
   95CHL1  H16B 9459   5.976   0.823   6.756  0.5033  0.8837 -0.5136
   95CHL1   C17 9460   5.904   0.617   6.801  0.4156  0.9354 -0.5284
   95CHL1   H17 9461   5.811   0.666   6.837 -1.2942 -2.1065 -0.4684
   95CHL1   C13 9462   5.852   0.515   6.688 -0.5519 -0.5072 -0.8397
   95CHL1   C18 9463   5.964   0.414   6.665  0.3275  0.5139 -0.2120
   95CHL1  H18A 9464   6.061   0.466   6.650  0.4388  1.1118  2.2601
   95CHL1  H18B 9465   5.983   0.354   6.756 -2.2038  2.2390  1.5956
   95CHL1  H18C 9466   5.934   0.336   6.591  0.9388  0.2500 -0.1822
   95CHL1   C12 9467   5.715   0.454   6.704  0.3754  0.1414  0.4660
   95CHL1  H12A 9468   5.696   0.387   6.791  1.4207  0.5585  1.0360
   95CHL1  H12B 9469   5.643   0.537   6.721  2.0451  1.8943 -0.6180
   95CHL1   C11 9470   5.680   0.374   6.571  0.9931  0.5531 -0.1974
   95CHL1  H11A 9471   5.744   0.284   6.575  0.2190 -0.0507 -1.0899
   95CHL1  H11B 9472   5.574   0.342   6.586  0.9761  0.3818 -0.6893
   95CHL1    C9 9473   5.703   0.450   6.439 -0.6304  0.1656  0.3713
   95CHL1    H9 9474   5.622   0.527   6.436 -1.9032 -1.1424 -0.1516
   95CHL1   C10 9475   5.689   0.373   6.307  0.4583  0.4283 -0.8602
   95CHL1   C19 9476   5.798   0.262   6.298  0.8880  0.3291 -0.8611
   95CHL1  H19A 9477   5.895   0.312   6.279  1.0137  0.8001  0.8639
   95CHL1  H19B 9478   5.811   0.193   6.384 -1.8559  0.0125 -0.6107
   95CHL1  H19C 9479   5.785   0.194   6.211  1.8660 -2.8792  1.3050
   95CHL1    C1 9480   5.547   0.312   6.297  0.3208  0.6723 -0.1248
   95CHL1   H1A 9481   5.547   0.228   6.370  0.8162  0.4235 -0.3980
   95CHL1   H1B 9482   5.476   0.390   6.330 -0.0988  0.5762 -0.7939
   95CHL1    C2 9483   5.511   0.244   6.163 -0.6001 -0.2011 -0.2243
   95CHL1   H2A 9484   5.405   0.211   6.166 -0.1979 -1.5483 -0.0863
   95CHL1   H2B 9485   5.572   0.154   6.138 -2.4050 -1.4355 -0.3825
   95CHL1   C20 9486   5.971   0.564   6.926 -0.5067  0.3026 -0.0730
   95CHL1   H20 9487   6.068   0.514   6.903 -0.2061  1.6549 -1.9860
   95CHL1   C21 9488   5.882   0.462   7.008 -0.2778 -0.7367  0.2746
   95CHL1  H21A 9489   5.921   0.447   7.111 -0.4879 -1.0474  0.3110
   95CHL1  H21B 9490   5.891   0.370   6.946  1.0778 -1.5309  1.5911
   95CHL1  H21C 9491   5.777   0.500   7.007 -0.4888 -1.3123 -0.5774
   95CHL1   C22 9492   6.019   0.674   7.022 -0.0543 -0.3953 -0.0612
   95CHL1  H22A 9493   6.058   0.751   6.951  1.1036  0.5065  1.4893
   95CHL1  H22B 9494   5.938   0.727   7.076  1.9630 -0.7375  3.5909
   95CHL1   C23 9495   6.129   0.624   7.129  0.2675  0.4787  0.5909
   95CHL1  H23A 9496   6.099   0.536   7.189  2.3944 -0.1221  0.8703
   95CHL1  H23B 9497   6.216   0.595   7.065 -2.4185  1.5115 -4.0495
   95CHL1   C24 9498   6.168   0.729   7.235 -0.2312 -0.3760  0.6412
   95CHL1  H24A 9499   6.205   0.821   7.185 -0.0757 -1.1900 -0.7767
   95CHL1  H24B 9500   6.078   0.749   7.297  0.2507  0.1016  1.1969
   95CHL1   C25 9501   6.276   0.693   7.333 -0.5884 -0.0804  0.2408
   95CHL1   H25 9502   6.257   0.588   7.363  0.2860 -0.9391 -2.0329
   95CHL1   C26 9503   6.410   0.695   7.271 -0.1603 -0.3903 -0.3778
   95CHL1  H26A 9504   6.483   0.644   7.338 -1.1839  0.2074  1.2450
   95CHL1  H26B 9505   6.419   0.630   7.182  0.2469 -0.2680 -0.4261
   95CHL1  H26C 9506   6.451   0.795   7.249 -1.3617  0.0873 -0.4917
   95CHL1   C27 9507   6.278   0.781   7.460 -0.1212  0.0683 -0.1328
   95CHL1  H27A 9508   6.286   0.891   7.442  1.0102 -0.3064 -2.2885
   95CHL1  H27B 9509   6.180   0.762   7.508  0.1177  0.1342  0.3879
   95CHL1  H27C 9510   6.368   0.753   7.520 -0.4896 -0.7574  0.0448
   96CHL1    C3 9511   5.414   6.743   6.266  0.5638 -0.2727  0.8862
   96CHL1    H3 9512   5.342   6.827   6.270 -0.9165 -1.2951 -1.6659
   96CHL1    O3 9513   5.387   6.670   6.148  0.0792  0.8098  0.3462
   96CHL1   H3' 9514   5.400   6.731   6.075  1.2573  0.0021 -0.1586
   96CHL1    C4 9515   5.553   6.803   6.259  0.5163 -0.2549 -0.2063
   96CHL1   H4A 9516   5.629   6.724   6.240 -0.6757 -0.8356 -3.1138
   96CHL1   H4B 9517   5.547   6.874   6.173 -1.8925  1.3054  1.1404
   96CHL1    C5 9518   5.602   6.871   6.391 -0.0922  0.1233  0.0524
   96CHL1    C6 9519   5.639   7.002   6.390  0.2716 -0.8943 -0.6454
   96CHL1    H6 9520   5.648   7.057   6.296  2.8413  0.2044  0.1624
   96CHL1    C7 9521   5.677   7.078   6.515 -0.1538  0.3002  1.2968
   96CHL1   H7A 9522   5.772   7.129   6.490  1.2507 -1.1868  3.3111
   96CHL1   H7B 9523   5.598   7.146   6.555 -1.0452 -0.0794  0.2348
   96CHL1    C8 9524   5.708   6.985   6.638 -0.4528 -0.2515  0.2118
   96CHL1    H8 9525   5.812   6.948   6.628 -0.9345 -1.7789  0.5323
   96CHL1   C14 9526   5.707   7.067   6.770  0.2795 -0.0638  0.1824
   96CHL1   H14 9527   5.607   7.108   6.792  0.7534  0.7029  0.9566
   96CHL1   C15 9528   5.792   7.197   6.776 -0.5933 -0.1395 -1.0799
   96CHL1  H15A 9529   5.892   7.190   6.727 -0.7327 -0.2524 -1.3515
   96CHL1  H15B 9530   5.734   7.279   6.729  1.0333 -0.0998 -3.1926
   96CHL1   C16 9531   5.806   7.224   6.926 -0.5139 -0.4936 -0.5751
   96CHL1  H16A 9532   5.912   7.240   6.954 -0.4728  2.4942 -1.9826
   96CHL1  H16B 9533   5.759   7.321   6.952  2.5554  1.2498 -1.0619
   96CHL1   C17 9534   5.738   7.106   7.013  0.4098  0.2440  0.2202
   96CHL1   H17 9535   5.635   7.143   7.033  0.6225 -0.0141  1.9482
   96CHL1   C13 9536   5.733   6.993   6.904  0.4317 -0.1228 -0.6495
   96CHL1   C18 9537   5.872   6.922   6.888  0.1427 -0.8227  0.6418
   96CHL1  H18A 9538   5.910   6.869   6.977  0.4168  0.4402  1.3038
   96CHL1  H18B 9539   5.876   6.853   6.801 -1.0012  1.8067 -1.6556
   96CHL1  H18C 9540   5.950   6.997   6.862 -1.9417  1.0468 -0.5592
   96CHL1   C12 9541   5.622   6.887   6.914 -0.2329  0.8502 -0.2514
   96CHL1  H12A 9542   5.621   6.826   7.007  0.8086 -2.7260 -2.3652
   96CHL1  H12B 9543   5.522   6.934   6.905 -1.7508 -2.4271 -2.4458
   96CHL1   C11 9544   5.622   6.799   6.785  0.4055 -0.1139  0.1829
   96CHL1  H11A 9545   5.704   6.724   6.787  0.3374 -0.3194 -1.9145
   96CHL1  H11B 9546   5.530   6.738   6.790 -0.2190  0.7827 -0.1340
   96CHL1    C9 9547   5.604   6.873   6.650  0.2424 -0.4005  0.3288
   96CHL1    H9 9548   5.507   6.923   6.671  0.4293 -0.0883  0.4510
   96CHL1   C10 9549   5.587   6.791   6.519  0.6210 -0.1953 -0.0609
   96CHL1   C19 9550   5.698   6.679   6.514 -0.0273  0.1499 -0.0702
   96CHL1  H19A 9551   5.698   6.609   6.600  1.6449 -0.1684 -0.2897
   96CHL1  H19B 9552   5.685   6.615   6.424  0.2204  0.0355 -0.0244
   96CHL1  H19C 9553   5.798   6.727   6.505 -0.9907  2.6138  1.3661
   96CHL1    C1 9554   5.448   6.729   6.516  1.0063 -1.1017  0.3624
   96CHL1   H1A 9555   5.426   6.654   6.595  0.9936 -1.9302 -0.4145
   96CHL1   H1B 9556   5.376   6.811   6.537 -1.9473 -2.5977 -2.8733
   96CHL1    C2 9557   5.403   6.655   6.386  0.0007 -1.0278 -0.3927
   96CHL1   H2A 9558   5.303   6.609   6.396 -0.5739  0.2595  0.0096
   96CHL1   H2B 9559   5.466   6.564   6.378 -1.2540 -2.0274  0.6920
   96CHL1   C20 9560   5.802   7.062   7.142 -0.0828  0.0942 -0.7122
   96CHL1   H20 9561   5.798   6.951   7.143 -0.0876  0.0944 -0.4001
   96CHL1   C21 9562   5.712   7.111   7.258  0.1959 -0.9518 -0.2873
   96CHL1  H21A 9563   5.608   7.075   7.244 -0.3427 -0.5553  2.3430
   96CHL1  H21B 9564   5.707   7.222   7.255 -0.0804 -0.9583 -0.0225
   96CHL1  H21C 9565   5.741   7.081   7.361  0.9931 -1.2978 -0.6045
   96CHL1   C22 9566   5.950   7.089   7.167  0.2604  0.8216 -0.3858
   96CHL1  H22A 9567   6.012   7.070   7.077  0.1873  0.6836 -0.4075
   96CHL1  H22B 9568   5.962   7.197   7.191  2.8101  0.5516 -0.2150
   96CHL1   C23 9569   6.011   6.997   7.280  0.2350 -0.2248  0.8597
   96CHL1  H23A 9570   6.059   7.073   7.346 -0.3871  0.2741  0.7451
   96CHL1  H23B 9571   5.924   6.956   7.336 -0.0774 -0.3134  0.3157
   96CHL1   C24 9572   6.111   6.892   7.234  0.1742 -0.7105 -0.3134
   96CHL1  H24A 9573   6.061   6.805   7.187  1.6365 -0.5406 -2.2874
   96CHL1  H24B 9574   6.169   6.941   7.153 -0.1660 -0.0013 -0.1329
   96CHL1   C25 9575   6.209   6.850   7.344  0.2619 -0.1296  0.4184
   96CHL1   H25 9576   6.253   6.940   7.390  1.6703 -1.1883  1.2141
   96CHL1   C26 9577   6.135   6.766   7.452  0.6320  0.2181 -0.1624
   96CHL1  H26A 9578   6.207   6.735   7.531  1.3039  1.4341 -0.2660
   96CHL1  H26B 9579   6.050   6.820   7.497  1.3918 -0.5107  2.2829
   96CHL1  H26C 9580   6.096   6.673   7.406 -1.0498  0.7369  0.1477
   96CHL1   C27 9581   6.319   6.773   7.275 -0.2079 -0.0588 -0.3814
   96CHL1  H27A 9582   6.366   6.832   7.193 -0.9028  1.2613  0.1263
   96CHL1  H27B 9583   6.406   6.763   7.344 -1.9274  2.2439  2.3529
   96CHL1  H27C 9584   6.283   6.674   7.241  3.5662 -1.3022 -1.1963
   97OSM      N 9585   3.067   3.141  10.315 -0.0990 -0.2083 -0.3030
   97OSM    C15 9586   3.188   3.126  10.396 -0.4080  0.1805  0.1226
   97OSM   H15A 9587   3.175   3.197  10.476 -1.2743 -1.7556  1.8106
   97OSM   H15B 9588   3.274   3.148  10.335 -1.2695 -1.4316 -1.8091
   97OSM   H15C 9589   3.211   3.029  10.438  0.7786 -0.0376 -0.9663
   97OSM    C14 9590   2.941   3.077  10.378  0.0401 -1.2188 -0.0708
   97OSM   H14A 9591   2.946   2.976  10.416  1.0347 -0.1497  2.8326
   97OSM   H14B 9592   2.861   3.082  10.306  1.4943  0.4720 -1.6549
   97OSM   H14C 9593   2.918   3.147  10.457 -2.7785 -0.6187 -1.2901
   97OSM    C13 9594   3.041   3.294  10.290 -0.3258 -0.3761  0.4725
   97OSM   H13A 9595   3.125   3.345  10.246 -0.6596  2.0641  2.4147
   97OSM   H13B 9596   3.023   3.344  10.384  1.8621 -0.4517  0.9714
   97OSM   H13C 9597   2.956   3.304  10.225 -0.6614  0.6337  1.0436
   97OSM    C12 9598   3.100   3.068  10.187 -0.3707  0.2087  0.7850
   97OSM   H12A 9599   3.149   2.978  10.221 -0.1980 -0.3914 -0.9310
   97OSM   H12B 9600   3.178   3.123  10.137 -1.9759  2.2897  0.4117
   97OSM    C11 9601   2.989   3.021  10.086 -0.0524 -0.5921  0.9165
   97OSM   H11A 9602   3.049   2.982  10.001 -0.5968 -0.1712  0.3342
   97OSM   H11B 9603   2.933   3.108  10.045  1.1766  0.1469  0.7610
   97OSM      P 9604   2.931   2.766  10.155 -0.0317  0.0966 -0.2456
   97OSM    O13 9605   3.065   2.763  10.216 -0.2427  0.4544 -0.0958
   97OSM    O14 9606   2.817   2.714  10.234  0.3105  0.5321  0.1833
   97OSM    O11 9607   2.918   2.703  10.008 -0.9767  0.2371 -0.4488
   97OSM    O12 9608   2.892   2.919  10.129 -0.4638 -0.0245 -0.0054
   97OSM    C1S 9609   2.835   2.756   9.904  0.0200 -0.0471 -0.1120
   97OSM    H1S 9610   2.793   2.854   9.935 -0.6805  0.4165 -2.3696
   97OSM    H1T 9611   2.749   2.687   9.899 -1.2122  1.3840  0.5310
   97OSM     NF 9612   2.822   2.869   9.692  0.7373  0.8970 -0.0765
   97OSM    HNF 9613   2.772   2.819   9.622  1.6513  0.8126 -0.6909
   97OSM    C2S 9614   2.905   2.789   9.774 -0.0384  0.4270  0.0545
   97OSM    H2S 9615   2.987   2.852   9.813  1.8690 -0.2894 -2.5276
   97OSM    C3S 9616   2.955   2.661   9.708 -0.9098 -0.2054  0.5089
   97OSM    H3S 9617   2.873   2.599   9.665  1.7627 -0.9651 -4.1227
   97OSM     O3 9618   3.018   2.574   9.799 -0.2196  0.6398  0.1627
   97OSM    HO3 9619   3.018   2.610   9.887  1.5501 -2.2214  1.4979
   97OSM    C4S 9620   3.051   2.683   9.587  0.6451  0.0410 -0.3186
   97OSM    H4S 9621   3.149   2.726   9.613  1.1359 -1.8521  1.1960
   97OSM    C5S 9622   3.045   2.618   9.475  0.7168  0.2234 -0.7030
   97OSM    H5S 9623   2.962   2.546   9.478  0.0918  0.9415 -0.4864
   97OSM    C6S 9624   3.151   2.596   9.376 -0.1813 -0.5538 -0.2156
   97OSM    H6S 9625   3.199   2.497   9.390  0.9136 -0.0570 -0.2740
   97OSM    H6T 9626   3.237   2.667   9.385 -0.4194  0.0750 -2.2810
   97OSM    C7S 9627   3.107   2.624   9.229  0.2046  0.6849  0.3799
   97OSM    H7S 9628   3.099   2.733   9.208 -0.3993  0.1876 -2.3625
   97OSM    H7T 9629   3.002   2.591   9.220 -0.7206  3.6381 -1.2006
   97OSM    C8S 9630   3.210   2.571   9.124  0.1439 -0.0256 -0.3128
   97OSM    H8S 9631   3.217   2.462   9.143  3.8956 -0.0442 -1.0529
   97OSM    H8T 9632   3.309   2.610   9.155  0.2313 -0.3264 -0.2129
   97OSM    C9S 9633   3.177   2.587   8.975 -0.3160  0.6149  1.1065
   97OSM    H9S 9634   3.182   2.697   8.963 -0.1156  0.4105 -0.9071
   97OSM    H9T 9635   3.071   2.555   8.962  0.3172 -0.9566 -0.5853
   97OSM   C10S 9636   3.287   2.522   8.896 -0.3117  0.5236 -0.2950
   97OSM   H10S 9637   3.271   2.412   8.890 -1.9518  0.7821 -1.4367
   97OSM   H10T 9638   3.382   2.529   8.954  0.4106 -1.4025 -1.1394
   97OSM   C11S 9639   3.317   2.585   8.756 -0.0326 -0.0361 -0.9603
   97OSM   H11S 9640   3.400   2.529   8.708  0.1273 -1.2917  0.6646
   97OSM   H11T 9641   3.355   2.686   8.782 -0.7795  0.3194 -1.2361
   97OSM   C12S 9642   3.194   2.588   8.669  0.1452 -0.8956 -0.6829
   97OSM   H12S 9643   3.131   2.671   8.709  0.4877 -1.8795  2.1214
   97OSM   H12T 9644   3.141   2.491   8.668 -0.6622 -0.4913 -3.2515
   97OSM   C13S 9645   3.226   2.623   8.525 -0.1322  0.3123  0.2044
   97OSM   H13S 9646   3.276   2.722   8.518  1.1238 -0.3962 -1.9026
   97OSM   H13T 9647   3.124   2.633   8.483  1.0632 -0.0107 -3.1269
   97OSM   C14S 9648   3.308   2.525   8.447  0.0225 -0.8356 -0.2402
   97OSM   H14S 9649   3.409   2.528   8.494 -0.0498 -0.5504 -0.0986
   97OSM   H14T 9650   3.310   2.557   8.340 -1.0936  0.6960  0.1686
   97OSM   C15S 9651   3.270   2.377   8.457 -0.0047 -0.5247  0.3403
   97OSM   H15S 9652   3.184   2.370   8.387  0.0235 -0.9870  0.3497
   97OSM   H15T 9653   3.233   2.346   8.557  1.7682 -0.9148  0.9197
   97OSM   C16S 9654   3.385   2.281   8.409  0.8159  0.5661  0.1874
   97OSM   H16S 9655   3.360   2.173   8.410  0.5873  0.6178  0.1931
   97OSM   H16T 9656   3.464   2.287   8.487 -0.7648 -0.8132  1.9848
   97OSM   C17S 9657   3.433   2.314   8.272 -0.1854  0.3596 -0.2603
   97OSM   H17S 9658   3.450   2.421   8.249  2.7179  0.6073  2.3449
   97OSM   H17T 9659   3.360   2.279   8.197  0.7177 -0.3656 -0.8255
   97OSM   C18S 9660   3.572   2.248   8.239  0.4681  0.1014  0.2043
   97OSM   H18S 9661   3.593   2.275   8.133 -2.1137  0.8397 -0.1852
   97OSM   H18T 9662   3.558   2.137   8.244  0.1335 -0.0193 -2.1968
   97OSM   H18U 9663   3.657   2.277   8.304 -0.0162  0.9042  0.4844
   97OSM    C1F 9664   2.801   3.003   9.700 -0.0926  0.2906  0.8048
   97OSM     OF 9665   2.868   3.076   9.768 -0.4384 -0.5754 -0.3245
   97OSM    C2F 9666   2.695   3.062   9.609  0.3432 -0.1084  0.1423
   97OSM    H2F 9667   2.645   3.149   9.657  0.9273  0.6563 -0.5938
   97OSM    H2G 9668   2.607   2.996   9.593  0.3828 -0.1246 -0.0098
   97OSM    C3F 9669   2.751   3.110   9.475 -0.4916  0.1470 -0.0004
   97OSM    H3F 9670   2.837   3.180   9.477  1.5470 -2.2013 -0.3924
   97OSM    H3G 9671   2.664   3.141   9.413  0.2257  1.2369 -0.4975
   97OSM    C4F 9672   2.799   2.989   9.384  0.2456 -0.4398 -0.4870
   97OSM    H4F 9673   2.742   2.899   9.414  1.7807 -1.1370  0.4941
   97OSM    H4G 9674   2.905   2.974   9.412 -0.2513 -1.6316  0.8619
   97OSM    C5F 9675   2.778   3.014   9.236 -0.4924 -0.1825 -0.0551
   97OSM    H5F 9676   2.841   3.103   9.215  1.2228 -1.5865 -1.0471
   97OSM    H5G 9677   2.672   3.045   9.219  0.5174  1.7204 -3.9207
   97OSM    C6F 9678   2.830   2.903   9.137  0.7874  0.3057  0.0697
   97OSM    H6F 9679   2.781   2.810   9.173  0.9508  0.0444 -0.3874
   97OSM    H6G 9680   2.941   2.901   9.143  0.8010  0.5587 -0.1231
   97OSM    C7F 9681   2.771   2.906   8.991  0.5613 -0.3224 -0.0201
   97OSM    H7F 9682   2.808   3.005   8.954  0.5974 -0.0107  0.8353
   97OSM    H7G 9683   2.664   2.919   9.018  0.2967 -1.5565 -0.4099
   97OSM    C8F 9684   2.821   2.782   8.909  0.0887  0.0225  0.0729
   97OSM    H8F 9685   2.792   2.686   8.956 -1.3002  0.2414 -0.2870
   97OSM    H8G 9686   2.931   2.799   8.897 -0.0114  1.6887  1.2303
   97OSM    C9F 9687   2.754   2.800   8.773 -0.4644 -0.1576 -0.3905
   97OSM    H9F 9688   2.707   2.899   8.765 -1.1255  0.0229  3.6843
   97OSM   C10F 9689   2.727   2.713   8.675 -0.5086  0.5255 -0.5463
   97OSM   H10F 9690   2.673   2.745   8.584 -0.1696 -1.8146 -1.6332
   97OSM   C11F 9691   2.780   2.571   8.673 -0.4164  0.3502 -0.1839
   97OSM   H11F 9692   2.756   2.533   8.774  3.4414  0.6585  1.0086
   97OSM   H11G 9693   2.891   2.566   8.676 -0.2773  2.2703  3.5900
   97OSM   C12F 9694   2.708   2.487   8.570  0.2293  0.0237 -0.1713
   97OSM   H12F 9695   2.600   2.480   8.594  0.1892 -0.7112 -0.5512
   97OSM   H12G 9696   2.737   2.381   8.583 -3.0922 -0.9429  0.2279
   97OSM   C13F 9697   2.735   2.532   8.425 -0.5976 -0.9033 -0.6647
   97OSM   H13F 9698   2.684   2.630   8.416  1.1990 -0.1029 -4.5870
   97OSM   H13G 9699   2.680   2.460   8.361 -0.4296  0.3061 -2.2423
   97OSM   C14F 9700   2.880   2.552   8.390 -0.6137 -0.0782  0.6690
   97OSM   H14F 9701   2.932   2.454   8.393  1.3049  0.8098 -1.2859
   97OSM   H14G 9702   2.919   2.631   8.459 -0.2860  0.9636 -0.6746
   97OSM   C15F 9703   2.903   2.591   8.246  0.4496 -0.2854 -0.2688
   97OSM   H15F 9704   2.858   2.689   8.218 -0.1689 -0.9149 -1.5571
   97OSM   H15G 9705   2.844   2.524   8.180 -0.0846 -0.0622 -0.0212
   97OSM   C16F 9706   3.052   2.605   8.213  0.3684 -0.3311  0.0368
   97OSM   H16F 9707   3.117   2.517   8.229  2.5181  1.2024  0.2300
   97OSM   H16G 9708   3.093   2.674   8.290  1.7016 -1.1594  0.1009
   97OSM   C17F 9709   3.074   2.660   8.071 -0.2715  0.1984  0.1625
   97OSM   H17F 9710   3.034   2.764   8.070 -2.3567 -0.5464  0.5792
   97OSM   H17G 9711   3.016   2.603   7.995 -2.3225  0.1338  1.6895
   97OSM   C18F 9712   3.223   2.666   8.023 -0.3538  0.4844 -0.6476
   97OSM   H18F 9713   3.277   2.569   8.018 -1.5871 -0.3165  0.8333
   97OSM   H18G 9714   3.289   2.728   8.087  1.2273 -0.3561 -1.3674
   97OSM   H18H 9715   3.229   2.705   7.919  2.1511  2.3226  0.0994
   98OSM      N 9716   1.780   2.958  10.157 -0.2437 -0.0145  0.2982
   98OSM    C15 9717   1.890   2.869  10.191  0.0506  0.1966  0.0054
   98OSM   H15A 9718   1.956   2.920  10.260  1.0862 -0.6295 -0.3508
   98OSM   H15B 9719   1.952   2.864  10.103 -0.5390 -1.2641 -0.3625
   98OSM   H15C 9720   1.840   2.777  10.219 -2.5306  0.7482 -2.3363
   98OSM    C14 9721   1.663   2.930  10.244 -0.3859 -0.1510  0.6108
   98OSM   H14A 9722   1.689   2.960  10.345  0.3751  0.2760  0.2914
   98OSM   H14B 9723   1.635   2.826  10.238 -1.6513  0.2366 -0.5584
   98OSM   H14C 9724   1.573   2.985  10.221 -1.7703 -2.2444  0.8122
   98OSM    C13 9725   1.832   3.091  10.183  0.2543  0.5387 -0.0834
   98OSM   H13A 9726   1.923   3.117  10.131  1.2461 -0.1297  1.2806
   98OSM   H13B 9727   1.851   3.106  10.288  1.3408 -0.1079 -0.1715
   98OSM   H13C 9728   1.762   3.170  10.156  2.5020  2.0206 -1.9235
   98OSM    C12 9729   1.736   2.945  10.003 -0.2030 -0.7324  0.0284
   98OSM   H12A 9730   1.676   3.031   9.979  0.1933 -0.0191  1.4844
   98OSM   H12B 9731   1.677   2.855   9.995 -1.2072 -0.4311  2.9122
   98OSM    C11 9732   1.859   2.935   9.906 -1.0633 -0.7650 -0.6147
   98OSM   H11A 9733   1.941   2.864   9.932  0.7020  0.6944 -1.9311
   98OSM   H11B 9734   1.908   3.035   9.911  0.2332 -1.3067 -1.7402
   98OSM      P 9735   1.745   2.787   9.723 -0.3706  0.0742 -0.5757
   98OSM    O13 9736   1.829   2.670   9.775  0.4387 -0.4944 -0.0375
   98OSM    O14 9737   1.598   2.783   9.750 -0.7999  0.6936  0.3781
   98OSM    O11 9738   1.761   2.811   9.566 -0.6165 -0.3168 -0.1239
   98OSM    O12 9739   1.817   2.918   9.780  0.4917  0.0897  0.3165
   98OSM    C1S 9740   1.881   2.861   9.511  0.2292 -0.4097  0.0126
   98OSM    H1S 9741   1.963   2.801   9.554 -0.8655 -2.0794 -0.1561
   98OSM    H1T 9742   1.895   2.969   9.535 -0.0681  0.4548 -3.2153
   98OSM     NF 9743   2.010   2.843   9.295 -0.0730 -0.1943 -0.4004
   98OSM    HNF 9744   2.027   2.908   9.222  0.8005 -0.3785 -0.3728
   98OSM    C2S 9745   1.881   2.842   9.353  0.0756 -0.2578 -0.1788
   98OSM    H2S 9746   1.838   2.743   9.328 -1.8626 -0.0263  1.8720
   98OSM    C3S 9747   1.800   2.953   9.296 -0.5395 -0.2264  0.5920
   98OSM    H3S 9748   1.844   3.046   9.337 -1.3999  0.9709 -1.0570
   98OSM     O3 9749   1.664   2.958   9.338  0.3873 -0.2373  0.0937
   98OSM    HO3 9750   1.642   2.871   9.370  1.6145 -0.4652  0.3723
   98OSM    C4S 9751   1.802   2.961   9.141 -0.6365 -0.0414  0.2395
   98OSM    H4S 9752   1.829   3.061   9.101 -2.8097  0.7661  0.6682
   98OSM    C5S 9753   1.777   2.864   9.055 -0.7977  0.2397 -0.3387
   98OSM    H5S 9754   1.734   2.770   9.093 -1.8125  0.9271  0.2553
   98OSM    C6S 9755   1.799   2.862   8.906  0.6477  1.6281  0.4213
   98OSM    H6S 9756   1.849   2.955   8.871  3.1416  0.3597  0.4118
   98OSM    H6T 9757   1.697   2.856   8.862  1.0554 -2.2032 -0.3876
   98OSM    C7S 9758   1.853   2.731   8.841  0.0308  0.2547 -0.2716
   98OSM    H7S 9759   1.847   2.744   8.731  1.9161  0.8533 -0.3276
   98OSM    H7T 9760   1.788   2.645   8.869 -1.7409  2.2230  2.1226
   98OSM    C8S 9761   2.001   2.691   8.874  0.4177 -0.2959 -0.0923
   98OSM    H8S 9762   2.017   2.587   8.837 -0.0544 -0.2987 -0.3001
   98OSM    H8T 9763   2.020   2.688   8.983  0.5526 -0.5705 -0.1225
   98OSM    C9S 9764   2.107   2.776   8.805  0.0983  0.0398  0.1579
   98OSM    H9S 9765   2.100   2.879   8.847  1.6125  0.5631 -0.8084
   98OSM    H9T 9766   2.076   2.781   8.698  1.5850 -1.9356 -0.4228
   98OSM   C10S 9767   2.257   2.737   8.810 -0.2448  0.3449 -0.2545
   98OSM   H10S 9768   2.282   2.694   8.910 -0.3271  1.3557  0.2140
   98OSM   H10T 9769   2.327   2.823   8.809 -0.3770  0.4428 -1.0622
   98OSM   C11S 9770   2.308   2.652   8.699 -0.1755 -0.3683  1.1431
   98OSM   H11S 9771   2.247   2.559   8.690  0.3134 -0.6289  0.3209
   98OSM   H11T 9772   2.411   2.619   8.724  0.1321 -2.6851 -2.3912
   98OSM   C12S 9773   2.303   2.727   8.561 -0.8680 -0.2467  0.1367
   98OSM   H12S 9774   2.400   2.772   8.532 -0.7140 -2.1885 -2.7123
   98OSM   H12T 9775   2.229   2.809   8.551 -1.5855 -0.9968 -0.9696
   98OSM   C13S 9776   2.275   2.624   8.448 -0.7012  0.4886  0.3651
   98OSM   H13S 9777   2.169   2.591   8.455 -0.3759 -0.4251  1.1617
   98OSM   H13T 9778   2.338   2.533   8.462 -0.4015  0.6828  0.2987
   98OSM   C14S 9779   2.291   2.681   8.310 -0.2068  0.3379  0.1851
   98OSM   H14S 9780   2.250   2.598   8.250  0.2823 -0.6937  1.2450
   98OSM   H14T 9781   2.395   2.708   8.281 -0.4842 -1.1377 -2.4302
   98OSM   C15S 9782   2.214   2.814   8.281 -0.4800  0.1958 -0.0453
   98OSM   H15S 9783   2.267   2.897   8.332 -0.5595 -0.1690  0.6306
   98OSM   H15T 9784   2.109   2.802   8.317 -0.6930  1.7448 -0.0766
   98OSM   C16S 9785   2.209   2.846   8.128 -0.7003 -0.3372  0.3766
   98OSM   H16S 9786   2.299   2.809   8.075  0.3238  0.0436  1.7799
   98OSM   H16T 9787   2.196   2.956   8.118  1.6072 -0.0081  0.4099
   98OSM   C17S 9788   2.083   2.780   8.073  0.6870  0.1690 -0.7755
   98OSM   H17S 9789   1.995   2.829   8.118  0.3612 -0.0868 -1.1239
   98OSM   H17T 9790   2.074   2.675   8.107 -2.1171 -0.2802 -2.5831
   98OSM   C18S 9791   2.080   2.784   7.915 -0.2861  0.0315  0.4617
   98OSM   H18S 9792   2.078   2.887   7.875 -2.2497 -0.0832  0.1870
   98OSM   H18T 9793   1.990   2.734   7.874 -1.5509  1.2395  1.6885
   98OSM   H18U 9794   2.173   2.734   7.879  0.0590  0.8213  0.2448
   98OSM    C1F 9795   2.097   2.746   9.308  0.4593  0.1725 -0.1580
   98OSM     OF 9796   2.062   2.646   9.366 -1.0693  1.1016  0.1484
   98OSM    C2F 9797   2.228   2.762   9.241  0.1376 -0.2021  0.3451
   98OSM    H2F 9798   2.221   2.851   9.174 -0.6162 -0.5183 -0.0099
   98OSM    H2G 9799   2.233   2.673   9.175 -0.1135 -2.4620  3.1820
   98OSM    C3F 9800   2.352   2.761   9.332  0.6309  0.5400 -0.1200
   98OSM    H3F 9801   2.347   2.667   9.392  1.1729  0.7674  0.2870
   98OSM    H3G 9802   2.349   2.846   9.404 -2.5854  0.2206  0.2807
   98OSM    C4F 9803   2.487   2.763   9.262  0.5610  0.1283  0.4120
   98OSM    H4F 9804   2.567   2.757   9.338  0.5987  1.8487  0.5535
   98OSM    H4G 9805   2.491   2.862   9.211  0.5099 -0.4108 -0.6791
   98OSM    C5F 9806   2.511   2.659   9.158  0.8951 -0.6493  1.1915
   98OSM    H5F 9807   2.617   2.665   9.126  0.2013 -0.7250 -1.2540
   98OSM    H5G 9808   2.457   2.676   9.063  1.0646 -1.9991  0.8284
   98OSM    C6F 9809   2.488   2.513   9.195 -0.2504  0.0889  0.1689
   98OSM    H6F 9810   2.380   2.489   9.201 -0.6052  1.4223 -0.4807
   98OSM    H6G 9811   2.534   2.501   9.295 -0.9615 -0.2183  0.4665
   98OSM    C7F 9812   2.562   2.416   9.102  0.1329 -0.0675  0.5413
   98OSM    H7F 9813   2.559   2.311   9.136  1.7441 -1.2053 -2.4721
   98OSM    H7G 9814   2.664   2.459   9.097  0.6305 -1.2594  0.2631
   98OSM    C8F 9815   2.513   2.399   8.949 -0.2684  0.5575  0.2973
   98OSM    H8F 9816   2.591   2.334   8.904 -1.7045 -0.3822 -0.9339
   98OSM    H8G 9817   2.523   2.491   8.888  1.0868  0.0112 -0.3308
   98OSM    C9F 9818   2.373   2.346   8.943 -0.2080 -0.2297 -0.2724
   98OSM    H9F 9819   2.289   2.412   8.968 -0.2103  0.1127 -1.1581
   98OSM   C10F 9820   2.337   2.222   8.908 -0.8095 -0.5561 -0.2499
   98OSM   H10F 9821   2.230   2.197   8.920 -1.1937  0.2746 -1.7542
   98OSM   C11F 9822   2.430   2.105   8.866 -0.0188  0.0186 -0.4872
   98OSM   H11F 9823   2.403   2.009   8.915  2.3627  0.1414  1.2339
   98OSM   H11G 9824   2.536   2.125   8.892  0.0688 -0.0464 -0.7818
   98OSM   C12F 9825   2.432   2.084   8.712 -0.6239 -0.4072  0.1863
   98OSM   H12F 9826   2.332   2.062   8.668  1.0251 -1.5667 -3.3346
   98OSM   H12G 9827   2.502   2.000   8.691  0.0273  0.3458 -0.7429
   98OSM   C13F 9828   2.485   2.205   8.630  0.1118 -0.6778 -1.2340
   98OSM   H13F 9829   2.574   2.243   8.684 -0.9768  0.4913 -0.2078
   98OSM   H13G 9830   2.414   2.290   8.629  1.3486  0.3756 -0.5132
   98OSM   C14F 9831   2.527   2.167   8.489 -0.0593 -0.0111  0.3089
   98OSM   H14F 9832   2.570   2.065   8.482  1.1520  0.5783 -1.6562
   98OSM   H14G 9833   2.607   2.235   8.452 -1.7500  1.6071 -0.5684
   98OSM   C15F 9834   2.408   2.192   8.390  0.2982  0.2100 -0.5039
   98OSM   H15F 9835   2.363   2.293   8.391 -1.3502 -0.4777 -1.3282
   98OSM   H15G 9836   2.339   2.108   8.413  2.0750 -0.7842  1.5733
   98OSM   C16F 9837   2.426   2.165   8.233 -0.0008 -0.4159 -0.1249
   98OSM   H16F 9838   2.329   2.195   8.188  0.8370  0.9390 -1.0611
   98OSM   H16G 9839   2.434   2.055   8.221  1.1039 -0.1414 -2.1654
   98OSM   C17F 9840   2.536   2.253   8.175  0.2648 -0.5642  0.2219
   98OSM   H17F 9841   2.544   2.223   8.068 -2.3071 -0.1488 -0.1612
   98OSM   H17G 9842   2.633   2.221   8.218 -0.1778  0.7329  2.3144
   98OSM   C18F 9843   2.505   2.400   8.168  0.0804 -0.4195  0.1099
   98OSM   H18F 9844   2.456   2.424   8.071 -0.8313 -1.5338  0.2629
   98OSM   H18G 9845   2.598   2.460   8.170 -0.6356  0.9141 -2.6309
   98OSM   H18H 9846   2.434   2.438   8.245 -0.0251 -1.8518  0.7613
   99OSM      N 9847   2.721   1.997  10.373  0.6852  0.6841 -0.8702
   99OSM    C15 9848   2.632   2.048  10.481  0.6711 -0.1326 -0.0525
   99OSM   H15A 9849   2.625   1.973  10.558  0.0482  0.8131  0.8289
   99OSM   H15B 9850   2.531   2.071  10.451  0.9463  1.1420 -0.0584
   99OSM   H15C 9851   2.678   2.133  10.529  0.0314 -0.2951  0.8726
   99OSM    C14 9852   2.849   1.956  10.430  0.2064  0.0058  0.8338
   99OSM   H14A 9853   2.841   1.888  10.513 -0.1109 -0.5681  0.3413
   99OSM   H14B 9854   2.913   2.041  10.451  0.5939 -0.0723  0.0125
   99OSM   H14C 9855   2.896   1.913  10.343 -3.4283 -0.0280 -1.3159
   99OSM    C13 9856   2.659   1.875  10.310 -0.2190  0.7387  0.1047
   99OSM   H13A 9857   2.659   1.789  10.377  0.6241  0.3448 -0.3860
   99OSM   H13B 9858   2.708   1.838  10.221 -0.6552 -2.0147  0.9018
   99OSM   H13C 9859   2.554   1.887  10.290 -0.2052  0.1671 -0.3458
   99OSM    C12 9860   2.733   2.108  10.274  0.1711  0.2114  0.4179
   99OSM   H12A 9861   2.740   2.198  10.334  0.1985  0.2573  0.3461
   99OSM   H12B 9862   2.644   2.116  10.213 -0.2968  1.0659  1.1836
   99OSM    C11 9863   2.848   2.111  10.170 -0.2055  0.0663 -0.4025
   99OSM   H11A 9864   2.943   2.137  10.222 -0.7380 -0.9554  1.1283
   99OSM   H11B 9865   2.846   2.199  10.101  1.7467  2.7005  2.5940
   99OSM      P 9866   2.789   1.945   9.975 -0.4954  0.0788  0.4825
   99OSM    O13 9867   2.871   1.850   9.905 -0.4489 -0.6115  0.4012
   99OSM    O14 9868   2.653   1.895  10.024 -0.2578 -0.4775  0.5480
   99OSM    O11 9869   2.767   2.077   9.889  0.7724  0.4598  0.0045
   99OSM    O12 9870   2.871   1.991  10.102  0.0952 -0.4085 -0.0428
   99OSM    C1S 9871   2.868   2.169   9.837 -0.0559  0.1090 -0.3197
   99OSM    H1S 9872   2.959   2.146   9.896  0.1693  0.4148 -0.5448
   99OSM    H1T 9873   2.825   2.267   9.867 -0.9334 -0.5960  0.8431
   99OSM     NF 9874   3.011   2.223   9.632  0.1560 -0.2235  0.4418
   99OSM    HNF 9875   2.999   2.307   9.580  1.1845 -0.1481  0.3181
   99OSM    C2S 9876   2.891   2.157   9.680 -0.1433 -0.0189  0.6558
   99OSM    H2S 9877   2.911   2.050   9.657  2.9051  0.7789 -1.0787
   99OSM    C3S 9878   2.759   2.186   9.602 -0.1958 -0.0309  0.1390
   99OSM    H3S 9879   2.708   2.277   9.640 -1.2261  0.7787 -2.8993
   99OSM     O3 9880   2.655   2.099   9.636  0.2714  0.4204  0.2807
   99OSM    HO3 9881   2.661   2.100   9.732 -2.2388 -0.8630  0.5399
   99OSM    C4S 9882   2.773   2.211   9.450 -0.0095 -0.0008 -0.4443
   99OSM    H4S 9883   2.764   2.318   9.430  0.2793  0.5781  2.1803
   99OSM    C5S 9884   2.797   2.129   9.343  0.4328 -0.2912 -0.0889
   99OSM    H5S 9885   2.815   2.021   9.348 -1.3153 -0.6908 -1.2595
   99OSM    C6S 9886   2.803   2.178   9.202 -0.6678  0.0425  0.2670
   99OSM    H6S 9887   2.787   2.288   9.197 -2.2075 -0.1024  1.1780
   99OSM    H6T 9888   2.728   2.133   9.133 -0.9162 -0.0247  0.5794
   99OSM    C7S 9889   2.942   2.154   9.126  0.4808  0.5493 -0.2719
   99OSM    H7S 9890   2.972   2.048   9.142 -2.0133 -0.2178 -0.2974
   99OSM    H7T 9891   3.010   2.230   9.172 -1.3468  1.9212  0.2908
   99OSM    C8S 9892   2.937   2.178   8.972  0.1561  0.0883 -0.1807
   99OSM    H8S 9893   2.905   2.280   8.940  0.7874  0.6374  0.9043
   99OSM    H8T 9894   2.854   2.115   8.932 -0.5706  1.8332 -1.5749
   99OSM    C9S 9895   3.072   2.145   8.897  0.5667  0.0445 -0.0843
   99OSM    H9S 9896   3.100   2.037   8.892  4.1599  0.8540  0.3718
   99OSM    H9T 9897   3.156   2.199   8.946  1.8003 -0.8560 -1.1529
   99OSM   C10S 9898   3.069   2.189   8.755  0.0156 -0.7505 -0.2342
   99OSM   H10S 9899   3.171   2.175   8.715 -0.3744 -1.2786 -1.0788
   99OSM   H10T 9900   3.040   2.297   8.757 -0.8219 -0.8244 -3.2728
   99OSM   C11S 9901   2.974   2.112   8.661  0.1942 -0.3904 -0.8917
   99OSM   H11S 9902   2.870   2.130   8.695  1.6753  3.0060  2.5708
   99OSM   H11T 9903   2.993   2.002   8.667  1.2922 -0.2881 -1.9850
   99OSM   C12S 9904   2.988   2.162   8.522 -0.1120 -0.0027 -0.0831
   99OSM   H12S 9905   2.954   2.267   8.517  0.2612  0.1904  1.0918
   99OSM   H12T 9906   3.093   2.144   8.492  0.1016 -2.3576  1.7776
   99OSM   C13S 9907   2.897   2.089   8.421 -0.5711 -0.3074  0.4946
   99OSM   H13S 9908   2.795   2.106   8.463 -0.6821  2.2368 -0.6337
   99OSM   H13T 9909   2.908   1.979   8.418 -1.9034 -0.4794  0.9169
   99OSM   C14S 9910   2.927   2.146   8.278  0.6263 -0.0441  0.5136
   99OSM   H14S 9911   2.881   2.247   8.275 -3.1961 -1.5941  1.3666
   99OSM   H14T 9912   2.851   2.096   8.213  1.4702 -2.2156  1.0970
   99OSM   C15S 9913   3.066   2.121   8.209  0.0303 -0.2777 -0.2765
   99OSM   H15S 9914   3.094   2.014   8.211 -0.2963 -0.3980 -1.3005
   99OSM   H15T 9915   3.133   2.187   8.268 -1.1952 -0.2432  1.1500
   99OSM   C16S 9916   3.041   2.174   8.068 -0.6454  0.2949 -0.0800
   99OSM   H16S 9917   3.020   2.283   8.077  3.2625  1.2182 -0.1867
   99OSM   H16T 9918   2.946   2.134   8.027 -0.9458 -0.3304  1.1949
   99OSM   C17S 9919   3.159   2.161   7.965  0.3865 -0.3573 -0.0539
   99OSM   H17S 9920   3.132   2.089   7.885 -0.4963  1.7903 -1.8015
   99OSM   H17T 9921   3.241   2.112   8.022  1.7819  1.2429 -0.6001
   99OSM   C18S 9922   3.212   2.289   7.908 -0.2123  0.3941  0.6109
   99OSM   H18S 9923   3.304   2.276   7.847 -1.0385  3.2278 -1.4755
   99OSM   H18T 9924   3.237   2.361   7.989  1.1963  1.7294 -0.9204
   99OSM   H18U 9925   3.131   2.335   7.847 -0.8104 -1.0295  0.2858
   99OSM    C1F 9926   3.138   2.200   9.658  0.1479  0.3783 -0.1182
   99OSM     OF 9927   3.171   2.111   9.733  0.2068  0.3192 -0.1676
   99OSM    C2F 9928   3.245   2.298   9.621 -0.2973 -0.5794 -0.1585
   99OSM    H2F 9929   3.304   2.317   9.713 -1.3319 -0.3496  0.4701
   99OSM    H2G 9930   3.210   2.398   9.588  1.2355  0.1445  0.3422
   99OSM    C3F 9931   3.334   2.227   9.522  0.4900  0.8353  0.2377
   99OSM    H3F 9932   3.407   2.306   9.492  0.1844  0.6205 -1.1296
   99OSM    H3G 9933   3.386   2.146   9.579 -0.1478  0.3709  0.1639
   99OSM    C4F 9934   3.274   2.174   9.391  0.3455  0.6688  0.3909
   99OSM    H4F 9935   3.216   2.257   9.345 -0.6787 -0.4171 -0.3304
   99OSM    H4G 9936   3.207   2.087   9.407 -0.7148  1.7504  2.2362
   99OSM    C5F 9937   3.389   2.121   9.299 -0.0013  0.1134 -1.0360
   99OSM    H5F 9938   3.448   2.041   9.349 -0.1526 -0.7058 -2.1270
   99OSM    H5G 9939   3.455   2.211   9.291  0.3478 -0.2855 -3.4583
   99OSM    C6F 9940   3.342   2.081   9.158 -0.1181 -0.0957 -0.4391
   99OSM    H6F 9941   3.399   2.131   9.077  1.4336  1.3043  1.4198
   99OSM    H6G 9942   3.233   2.098   9.143  0.0204 -0.5152 -2.1431
   99OSM    C7F 9943   3.348   1.925   9.149 -0.1953  0.2523  0.0277
   99OSM    H7F 9944   3.313   1.882   9.245 -1.3279  1.9907  0.4501
   99OSM    H7G 9945   3.448   1.880   9.131 -1.8318 -3.4556 -0.6285
   99OSM    C8F 9946   3.255   1.867   9.038  0.2562  0.2370  0.3859
   99OSM    H8F 9947   3.299   1.911   8.946 -0.9951 -0.3143 -0.5094
   99OSM    H8G 9948   3.153   1.912   9.046 -0.5313 -0.5562 -3.3032
   99OSM    C9F 9949   3.231   1.718   9.043  0.1041 -1.1098  0.4300
   99OSM    H9F 9950   3.249   1.666   9.138  2.1037  0.2735  0.8557
   99OSM   C10F 9951   3.188   1.646   8.935 -0.5198 -0.0834  0.2786
   99OSM   H10F 9952   3.174   1.538   8.953  2.4467 -0.8420 -1.2865
   99OSM   C11F 9953   3.142   1.686   8.795 -0.9267  0.6801  0.7287
   99OSM   H11F 9954   3.061   1.762   8.800 -0.2716  1.5708 -1.1592
   99OSM   H11G 9955   3.105   1.591   8.751  1.4329  0.4423 -0.9429
   99OSM   C12F 9956   3.246   1.752   8.700  0.2077 -0.3713  0.5022
   99OSM   H12F 9957   3.330   1.683   8.680 -0.1449 -0.4916 -0.6060
   99OSM   H12G 9958   3.287   1.839   8.756  0.4226 -0.3669  0.3387
   99OSM   C13F 9959   3.192   1.803   8.565  0.4289  0.1033 -1.4121
   99OSM   H13F 9960   3.275   1.854   8.510  0.9120 -1.2115 -1.9457
   99OSM   H13G 9961   3.105   1.870   8.582  0.4767 -0.2414  0.3988
   99OSM   C14F 9962   3.154   1.684   8.477  0.3171  0.0406  0.6257
   99OSM   H14F 9963   3.084   1.620   8.534 -1.5526  0.7355 -0.7630
   99OSM   H14G 9964   3.253   1.640   8.455  0.7274  1.9908 -1.9824
   99OSM   C15F 9965   3.093   1.728   8.343 -0.4049 -0.2265  0.3848
   99OSM   H15F 9966   3.148   1.811   8.293 -0.6000  0.4596  1.2867
   99OSM   H15G 9967   2.989   1.762   8.365  0.2992  1.2413  1.6976
   99OSM   C16F 9968   3.093   1.618   8.236  0.1110  0.4504  1.1617
   99OSM   H16F 9969   3.027   1.538   8.277 -0.5806  0.9527  1.0452
   99OSM   H16G 9970   3.199   1.587   8.225 -0.2568 -1.0030  1.4583
   99OSM   C17F 9971   3.048   1.662   8.099  0.3038  0.7232 -0.5226
   99OSM   H17F 9972   3.133   1.728   8.073 -0.8700  2.0821 -1.0034
   99OSM   H17G 9973   2.949   1.710   8.109 -0.4010 -0.8054  0.1343
   99OSM   C18F 9974   3.044   1.548   7.996 -0.6195  0.4718 -0.3235
   99OSM   H18F 9975   2.995   1.459   8.042  0.9226 -0.4093 -0.3091
   99OSM   H18G 9976   3.145   1.522   7.959 -1.0515 -0.5587 -0.8165
   99OSM   H18H 9977   2.982   1.577   7.908 -2.5853 -1.6506  0.2662
  100OSM      N 9978   6.098   2.829   9.959  0.3504 -0.0937  0.2650
  100OSM    C15 9979   6.196   2.712   9.959 -0.1690  0.6081  0.4327
  100OSM   H15A 9980   6.291   2.741  10.000  0.2264 -0.3525  0.2387
  100OSM   H15B 9981   6.228   2.680   9.861  1.1544  3.2880 -0.0909
  100OSM   H15C 9982   6.157   2.623  10.007  1.9165 -0.5962  0.0276
  100OSM    C14 9983   5.960   2.782   9.905 -0.3698  0.3600  0.3073
  100OSM   H14A 9984   5.892   2.866   9.898 -0.8434  0.0677  1.2295
  100OSM   H14B 9985   5.905   2.715   9.969 -1.3153  0.6076 -0.2166
  100OSM   H14C 9986   5.984   2.725   9.817 -0.0097 -1.1071  1.3270
  100OSM    C13 9987   6.084   2.873  10.103 -0.1560  0.1373  0.4374
  100OSM   H13A 9988   6.008   2.949  10.111  0.3879  0.9032 -1.2751
  100OSM   H13B 9989   6.173   2.922  10.139 -0.8814  2.0003 -0.1827
  100OSM   H13C 9990   6.062   2.792  10.171  0.3234  1.2319  1.9304
  100OSM    C12 9991   6.145   2.942   9.870  0.0344 -0.8699 -1.0128
  100OSM   H12A 9992   6.159   2.909   9.768  0.5294  1.1381 -1.6467
  100OSM   H12B 9993   6.244   2.967   9.906 -0.9564 -1.7646  2.8552
  100OSM    C11 9994   6.070   3.078   9.880  0.0546  0.1331 -0.8047
  100OSM   H11A 9995   5.960   3.062   9.882  0.1883 -1.1808  2.3894
  100OSM   H11B 9996   6.098   3.138   9.791  0.3254 -1.1805 -1.6240
  100OSM      P 9997   6.029   3.259  10.065  0.2053 -0.0407  0.1412
  100OSM    O13 9998   5.930   3.205  10.159 -0.0224  0.2019 -0.1049
  100OSM    O14 9999   6.129   3.345  10.122 -0.0016 -0.0725 -0.0578
  100OSM    O1110000   5.956   3.327   9.950  0.3165  0.0219 -0.8382
  100OSM    O1210001   6.110   3.144   9.999  0.2373  0.2834  0.3267
  100OSM    C1S10002   6.010   3.421   9.856 -0.1555  0.2420 -0.1394
  100OSM    H1S10003   6.117   3.412   9.826 -0.4569  0.8119 -1.4720
  100OSM    H1T10004   5.984   3.523   9.891  0.0661 -0.1366  1.1528
  100OSM     NF10005   5.987   3.515   9.617  0.1354 -0.3976  0.0437
  100OSM    HNF10006   5.917   3.584   9.600  0.1043 -0.0766  1.3617
  100OSM    C2S10007   5.940   3.412   9.714  0.2118  0.7956  0.0197
  100OSM    H2S10008   5.961   3.311   9.671  1.5029  0.2713  1.7813
  100OSM    C3S10009   5.781   3.414   9.743 -0.9782 -0.3086  0.1247
  100OSM    H3S10010   5.765   3.501   9.809  1.6484  0.9095 -0.7391
  100OSM     O310011   5.733   3.300   9.811  0.0632 -0.2810 -0.2544
  100OSM    HO310012   5.813   3.262   9.848 -0.0269 -0.0497  0.1926
  100OSM    C4S10013   5.703   3.416   9.615 -0.4952  0.2194 -0.1723
  100OSM    H4S10014   5.767   3.367   9.541 -0.5479 -2.8518  1.6351
  100OSM    C5S10015   5.581   3.468   9.579  0.2607  0.7761 -0.1746
  100OSM    H5S10016   5.521   3.514   9.660  0.2208 -0.7437  0.6961
  100OSM    C6S10017   5.529   3.476   9.434  0.8157 -0.2676 -0.8704
  100OSM    H6S10018   5.481   3.575   9.417 -0.0315 -0.6525 -0.7767
  100OSM    H6T10019   5.442   3.410   9.417 -0.3106  0.2812  2.1480
  100OSM    C7S10020   5.630   3.442   9.320 -0.3966  0.0991  0.1238
  100OSM    H7S10021   5.570   3.426   9.228 -0.5630  1.0925  0.0416
  100OSM    H7T10022   5.670   3.341   9.342 -2.0753 -0.5225  0.4781
  100OSM    C8S10023   5.741   3.544   9.279  0.7184  0.4680 -0.6553
  100OSM    H8S10024   5.780   3.579   9.377 -2.8176  1.7526  0.4878
  100OSM    H8T10025   5.679   3.630   9.245  0.6185  0.6446 -0.0391
  100OSM    C9S10026   5.828   3.507   9.169 -0.7728 -0.7738 -0.5841
  100OSM    H9S10027   5.777   3.492   9.072 -0.2723 -2.9688 -0.5716
  100OSM    H9T10028   5.863   3.404   9.194 -2.0711 -1.0034  0.4302
  100OSM   C10S10029   5.941   3.609   9.151 -0.1975  0.7790 -0.6319
  100OSM   H10S10030   6.022   3.549   9.104 -0.2262 -0.7850  1.1785
  100OSM   H10T10031   5.980   3.646   9.249 -0.6401 -1.9823  0.6927
  100OSM   C11S10032   5.902   3.714   9.048  0.3921 -0.7423  0.0230
  100OSM   H11S10033   5.815   3.777   9.076  1.3266 -0.1897  1.8657
  100OSM   H11T10034   5.885   3.661   8.952  0.9727  1.3245 -1.2917
  100OSM   C12S10035   6.012   3.820   9.031 -0.6792  0.0654  0.5928
  100OSM   H12S10036   6.077   3.804   9.120 -0.5367 -1.8532  0.1847
  100OSM   H12T10037   5.970   3.923   9.035 -0.8388  0.3950 -3.9488
  100OSM   C13S10038   6.091   3.799   8.903 -0.2090 -0.1415 -0.0226
  100OSM   H13S10039   6.123   3.693   8.905  2.4452  0.5539  1.8650
  100OSM   H13T10040   6.191   3.849   8.910  0.6459 -1.8839  0.9492
  100OSM   C14S10041   6.041   3.827   8.761 -0.2894 -0.1837  0.4644
  100OSM   H14S10042   6.044   3.936   8.741 -0.6089 -0.4705 -1.3482
  100OSM   H14T10043   5.938   3.787   8.747 -0.5183  0.9961 -1.6111
  100OSM   C15S10044   6.144   3.760   8.668  0.4159 -0.1160  0.1719
  100OSM   H15S10045   6.139   3.649   8.673 -0.7118 -0.0496  0.8614
  100OSM   H15T10046   6.246   3.797   8.692 -0.0292 -0.0509  2.0818
  100OSM   C16S10047   6.128   3.790   8.518 -0.1462 -0.0767  0.6825
  100OSM   H16S10048   6.131   3.901   8.508  0.2130 -0.0900  0.6387
  100OSM   H16T10049   6.024   3.758   8.497  0.7366 -1.7092 -1.6037
  100OSM   C17S10050   6.227   3.720   8.419  0.4244 -0.5828  0.8008
  100OSM   H17S10051   6.323   3.776   8.415  0.0898 -0.0985 -1.7100
  100OSM   H17T10052   6.192   3.717   8.314 -0.6606 -0.3535  1.1412
  100OSM   C18S10053   6.257   3.576   8.457 -0.1070  0.1193 -0.1874
  100OSM   H18S10054   6.157   3.530   8.469 -0.4975  0.7196 -1.0039
  100OSM   H18T10055   6.320   3.583   8.548  0.6010  1.8535 -0.7661
  100OSM   H18U10056   6.319   3.526   8.379  2.6311  0.1706  1.7901
  100OSM    C1F10057   6.115   3.522   9.569  0.4911 -0.0779 -0.7222
  100OSM     OF10058   6.192   3.440   9.601 -0.0329  0.9626 -0.3255
  100OSM    C2F10059   6.151   3.632   9.471  0.6048 -0.7738  0.0271
  100OSM    H2F10060   6.096   3.726   9.490  1.8382  0.0162 -0.1732
  100OSM    H2G10061   6.120   3.595   9.371  3.7385 -2.7075 -0.3947
  100OSM    C3F10062   6.295   3.661   9.453  0.0892 -0.4662 -0.4131
  100OSM    H3F10063   6.344   3.669   9.552  0.9472  0.8212 -0.9119
  100OSM    H3G10064   6.310   3.758   9.401 -2.2251  0.6850  0.9173
  100OSM    C4F10065   6.387   3.555   9.383  0.7405 -0.2532 -0.4745
  100OSM    H4F10066   6.371   3.465   9.447  0.7667  0.1439  0.0971
  100OSM    H4G10067   6.489   3.599   9.381 -0.0903  1.8446  0.5091
  100OSM    C5F10068   6.334   3.512   9.247  0.3524 -0.9655  0.4522
  100OSM    H5F10069   6.324   3.610   9.194 -0.0989 -1.9342 -1.3483
  100OSM    H5G10070   6.236   3.458   9.247 -0.4809  0.4543 -0.7864
  100OSM    C6F10071   6.434   3.425   9.164 -0.1757  0.6044 -0.1186
  100OSM    H6F10072   6.482   3.346   9.225 -0.0583  0.4203 -0.4452
  100OSM    H6G10073   6.510   3.497   9.127 -0.8941  0.0278 -2.9429
  100OSM    C7F10074   6.372   3.362   9.036 -0.4700 -0.1032  0.0398
  100OSM    H7F10075   6.292   3.289   9.057 -1.2418  1.6350  4.0621
  100OSM    H7G10076   6.452   3.311   8.978 -0.0937  0.0413  0.4276
  100OSM    C8F10077   6.298   3.470   8.947  0.2924 -0.2549 -0.2125
  100OSM    H8F10078   6.339   3.574   8.938  0.1727 -0.0985  0.9917
  100OSM    H8G10079   6.198   3.481   8.993 -0.9533  0.8374 -2.9693
  100OSM    C9F10080   6.292   3.416   8.808 -0.7547 -0.5016 -0.0769
  100OSM    H9F10081   6.392   3.431   8.765  1.6274 -0.9381  4.6250
  100OSM   C10F10082   6.196   3.357   8.738  0.3108  0.4310  0.6613
  100OSM   H10F10083   6.218   3.317   8.638 -0.3426 -0.2706  0.7916
  100OSM   C11F10084   6.068   3.321   8.794 -0.1217  0.5371 -0.3351
  100OSM   H11F10085   6.071   3.347   8.901  0.7639  0.6602 -0.3825
  100OSM   H11G10086   6.064   3.210   8.799  0.3187  0.4623 -1.2670
  100OSM   C12F10087   5.947   3.391   8.741 -0.5035 -0.0448 -0.1187
  100OSM   H12F10088   5.962   3.500   8.759 -0.6341 -0.0401 -0.0394
  100OSM   H12G10089   5.858   3.361   8.800 -0.1613 -0.7345  0.0517
  100OSM   C13F10090   5.917   3.376   8.590  0.0508 -0.2967 -0.5273
  100OSM   H13F10091   5.885   3.272   8.567 -3.4542  0.0425  2.0338
  100OSM   H13G10092   6.006   3.395   8.526  0.4417 -2.1672 -0.5903
  100OSM   C14F10093   5.814   3.480   8.547 -0.5339 -0.1686 -0.0742
  100OSM   H14F10094   5.869   3.576   8.563  0.8497 -0.7398 -1.1936
  100OSM   H14G10095   5.729   3.489   8.618 -0.2109  2.4446  0.0880
  100OSM   C15F10096   5.760   3.459   8.405  0.5595 -0.7271  0.4280
  100OSM   H15F10097   5.689   3.374   8.400  0.1724 -0.3719 -0.5131
  100OSM   H15G10098   5.842   3.441   8.331 -0.5865 -0.9559 -0.8259
  100OSM   C16F10099   5.700   3.593   8.358  0.1382 -0.0324  0.5053
  100OSM   H16F10100   5.781   3.670   8.362  1.3401 -1.2427  0.0214
  100OSM   H16G10101   5.607   3.615   8.415 -0.6314 -3.0648  0.5636
  100OSM   C17F10102   5.638   3.603   8.215 -0.1893 -0.1398  0.3821
  100OSM   H17F10103   5.715   3.583   8.138  0.8434  1.3260  0.9918
  100OSM   H17G10104   5.592   3.699   8.182  0.2355 -0.1934 -0.3991
  100OSM   C18F10105   5.532   3.487   8.212  0.0293 -0.8456  0.4545
  100OSM   H18F10106   5.477   3.486   8.115 -0.6174  0.3897  0.7774
  100OSM   H18G10107   5.459   3.493   8.296 -0.9922  3.6502 -0.4794
  100OSM   H18H10108   5.591   3.393   8.216  0.1797 -0.8227 -0.7286
  101OSM      N10109   1.059   4.212  10.202  0.9530 -0.2205 -0.2056
  101OSM    C1510110   0.924   4.174  10.258 -0.3704  0.3302  0.1206
  101OSM   H15A10111   0.906   4.067  10.260 -1.6364  0.5065 -0.5188
  101OSM   H15B10112   0.847   4.232  10.209  0.2747  0.7028 -0.4706
  101OSM   H15C10113   0.911   4.211  10.359  1.4648  1.1720  0.0957
  101OSM    C1410114   1.085   4.359  10.235  0.5094 -0.2920  0.6943
  101OSM   H14A10115   1.123   4.378  10.335  0.8156  1.9337  0.2109
  101OSM   H14B10116   1.000   4.424  10.221  0.4087 -0.5321  0.1557
  101OSM   H14C10117   1.166   4.392  10.172 -1.0850  1.9187 -0.3358
  101OSM    C1310118   1.160   4.129  10.273  0.6775 -0.5682  0.0828
  101OSM   H13A10119   1.125   4.028  10.264 -0.2930 -0.1467 -1.4532
  101OSM   H13B10120   1.165   4.154  10.378  2.0989  3.6258 -0.7668
  101OSM   H13C10121   1.260   4.141  10.232 -0.7532  1.0558 -3.3740
  101OSM    C1210122   1.066   4.186  10.053 -0.1553 -0.7277 -0.0132
  101OSM   H12A10123   0.989   4.234   9.994  0.5975 -1.6720 -1.8549
  101OSM   H12B10124   1.052   4.081  10.032 -2.7861 -0.3704 -0.4586
  101OSM    C1110125   1.193   4.237   9.976 -0.0271  0.1757  0.5514
  101OSM   H11A10126   1.204   4.194   9.874 -0.7601  0.5681  0.2994
  101OSM   H11B10127   1.281   4.202  10.034 -1.0667 -2.1681  0.8279
  101OSM      P10128   1.123   4.467   9.870  0.2470  0.0212 -0.0826
  101OSM    O1310129   0.979   4.425   9.862 -0.2828 -0.4754  0.2616
  101OSM    O1410130   1.141   4.604   9.916  0.0530 -0.1718 -0.3427
  101OSM    O1110131   1.184   4.446   9.723 -0.8277 -0.3649 -0.0639
  101OSM    O1210132   1.202   4.376   9.975 -0.5807  0.1337 -0.1606
  101OSM    C1S10133   1.316   4.495   9.693  0.6469  0.2170 -0.6835
  101OSM    H1S10134   1.392   4.450   9.761 -1.2901  0.2922  1.6749
  101OSM    H1T10135   1.315   4.605   9.711  0.2262  1.0092 -4.7435
  101OSM     NF10136   1.496   4.474   9.518  0.6496  0.9859  0.1029
  101OSM    HNF10137   1.529   4.561   9.480  2.1828 -0.5641 -2.4163
  101OSM    C2S10138   1.354   4.475   9.544 -0.3392  0.5847 -0.1776
  101OSM    H2S10139   1.318   4.376   9.510  2.0482  0.2047 -1.8790
  101OSM    C3S10140   1.279   4.580   9.456  0.1641  0.1932 -0.4191
  101OSM    H3S10141   1.315   4.684   9.473  0.6350  0.4344 -2.5470
  101OSM     O310142   1.139   4.567   9.475 -0.0221 -0.3261  0.4915
  101OSM    HO310143   1.131   4.536   9.566 -0.1303  3.6214  2.0636
  101OSM    C4S10144   1.297   4.548   9.317  0.1335  0.5838 -0.0072
  101OSM    H4S10145   1.270   4.445   9.288  1.7881 -0.1363  0.8608
  101OSM    C5S10146   1.358   4.623   9.220 -0.2333 -0.3662  0.0199
  101OSM    H5S10147   1.401   4.720   9.248  1.4956 -0.8370 -0.8627
  101OSM    C6S10148   1.391   4.579   9.082 -0.6429  1.1504  0.0791
  101OSM    H6S10149   1.495   4.610   9.061 -0.0513  0.7096  2.1436
  101OSM    H6T10150   1.320   4.635   9.017 -3.6462 -0.4110  1.7464
  101OSM    C7S10151   1.373   4.432   9.037  0.1210  0.1776 -0.0743
  101OSM    H7S10152   1.263   4.413   9.038  0.1316  0.0328 -0.9157
  101OSM    H7T10153   1.400   4.361   9.118 -0.0456  0.4424  0.2181
  101OSM    C8S10154   1.447   4.394   8.906  0.4137  0.1888 -0.7964
  101OSM    H8S10155   1.414   4.462   8.825  0.3210  0.1250 -0.8129
  101OSM    H8T10156   1.417   4.292   8.875 -1.3701  0.2264  0.6078
  101OSM    C9S10157   1.598   4.400   8.912 -0.0839 -0.2459  0.5677
  101OSM    H9S10158   1.635   4.355   9.006 -1.2282 -0.5210  0.9023
  101OSM    H9T10159   1.642   4.501   8.906  0.2506 -0.4665 -1.7402
  101OSM   C10S10160   1.664   4.304   8.804  0.1590  0.1293  0.6210
  101OSM   H10S10161   1.623   4.201   8.808  0.1423 -0.0941 -2.7490
  101OSM   H10T10162   1.773   4.303   8.824 -0.1036  0.1757  2.2148
  101OSM   C11S10163   1.651   4.347   8.656  0.0456  0.5518  0.0610
  101OSM   H11S10164   1.704   4.443   8.636 -2.6628  1.3542 -4.6702
  101OSM   H11T10165   1.548   4.362   8.618  1.0939  3.4169 -2.0630
  101OSM   C12S10166   1.711   4.245   8.560  0.7206 -0.6829  0.4450
  101OSM   H12S10167   1.685   4.145   8.602  0.8315 -0.7650  0.3216
  101OSM   H12T10168   1.822   4.251   8.569  0.7665  0.4405 -0.6218
  101OSM   C13S10169   1.673   4.253   8.410 -0.3749 -0.2470 -0.5833
  101OSM   H13S10170   1.562   4.255   8.399 -0.4690 -0.0088  0.3718
  101OSM   H13T10171   1.692   4.155   8.361 -2.1207 -0.4771 -0.8637
  101OSM   C14S10172   1.737   4.355   8.316 -0.4842  0.1937 -0.1511
  101OSM   H14S10173   1.712   4.341   8.209  1.1119  1.9435 -0.8183
  101OSM   H14T10174   1.848   4.347   8.324 -0.2718  1.8691 -0.9697
  101OSM   C15S10175   1.699   4.505   8.336 -0.6889  0.1103 -0.1085
  101OSM   H15S10176   1.707   4.546   8.439 -2.5089 -0.1494  0.1699
  101OSM   H15T10177   1.595   4.528   8.307 -1.1068 -0.1711  1.1233
  101OSM   C16S10178   1.791   4.597   8.249  0.1760  0.3736 -0.2301
  101OSM   H16S10179   1.735   4.674   8.193  0.1687 -1.1663 -2.4968
  101OSM   H16T10180   1.846   4.536   8.174  3.1314  1.4159  0.9277
  101OSM   C17S10181   1.899   4.654   8.335  0.1314 -0.0491  0.5615
  101OSM   H17S10182   1.960   4.575   8.383 -0.7264 -0.1268  1.5635
  101OSM   H17T10183   1.858   4.725   8.410 -3.0671  0.3270 -1.3389
  101OSM   C18S10184   1.999   4.730   8.246  0.0629  0.8835 -0.4269
  101OSM   H18S10185   2.038   4.671   8.160 -0.6445  0.8568 -0.7363
  101OSM   H18T10186   2.077   4.775   8.311 -2.0623  3.2293  0.6645
  101OSM   H18U10187   1.950   4.812   8.190  0.9563  0.2123 -2.2847
  101OSM    C1F10188   1.573   4.374   9.560  0.1048  0.0794 -0.5678
  101OSM     OF10189   1.530   4.269   9.613  0.2422 -0.3268  0.3420
  101OSM    C2F10190   1.721   4.395   9.550  0.4788  0.4489 -0.0833
  101OSM    H2F10191   1.765   4.410   9.651  0.8417  0.9595 -0.3135
  101OSM    H2G10192   1.744   4.488   9.493 -0.4421  1.2884  0.8615
  101OSM    C3F10193   1.796   4.278   9.481 -0.2983  0.6071  0.3956
  101OSM    H3F10194   1.762   4.181   9.523 -0.6113 -0.2220 -1.6572
  101OSM    H3G10195   1.904   4.290   9.505 -0.0286 -0.8978  0.0046
  101OSM    C4F10196   1.769   4.276   9.328  0.0168  0.3525 -0.4182
  101OSM    H4F10197   1.825   4.366   9.296  0.0368  1.5612  2.6899
  101OSM    H4G10198   1.660   4.291   9.314  0.1841  0.8265 -1.2821
  101OSM    C5F10199   1.823   4.148   9.270  0.4656  0.1765  0.2100
  101OSM    H5F10200   1.760   4.060   9.294 -1.4889  1.8717  1.5956
  101OSM    H5G10201   1.930   4.133   9.298  0.9906  0.4551 -1.4774
  101OSM    C6F10202   1.830   4.147   9.113 -0.1222 -1.3345 -0.3351
  101OSM    H6F10203   1.725   4.152   9.078  0.0572 -0.1237 -0.7445
  101OSM    H6G10204   1.889   4.234   9.077 -0.2619 -1.3517 -0.6097
  101OSM    C7F10205   1.891   4.021   9.057 -0.0393  0.1113 -0.3262
  101OSM    H7F10206   1.849   3.942   9.122  1.2132  0.1999  0.6379
  101OSM    H7G10207   2.002   4.022   9.071 -0.3236  0.8083  2.6864
  101OSM    C8F10208   1.864   4.011   8.903 -0.3110 -0.0753  0.0388
  101OSM    H8F10209   1.929   4.093   8.865 -0.5633  0.0017 -0.2379
  101OSM    H8G10210   1.759   4.045   8.889 -0.5402 -1.1954 -1.2087
  101OSM    C9F10211   1.880   3.872   8.845  0.2071  0.4306 -0.2000
  101OSM    H9F10212   1.867   3.793   8.921  0.4462  0.9195  0.3505
  101OSM   C10F10213   1.886   3.844   8.717 -0.2315 -0.2315 -0.2403
  101OSM   H10F10214   1.888   3.739   8.686  1.3539 -0.5061  0.7015
  101OSM   C11F10215   1.883   3.942   8.604  0.0527 -0.1968  0.3961
  101OSM   H11F10216   1.885   4.047   8.639 -0.0659 -0.3885  0.9885
  101OSM   H11G10217   1.792   3.935   8.540 -0.1896  3.1177  0.2291
  101OSM   C12F10218   2.009   3.916   8.520  0.0727 -0.1196  0.4116
  101OSM   H12F10219   2.012   3.826   8.455  0.0318  0.5299 -0.5161
  101OSM   H12G10220   2.098   3.920   8.585  1.2754  0.8129 -1.2342
  101OSM   C13F10221   2.026   4.024   8.409  0.2860  0.9317  0.2175
  101OSM   H13F10222   2.136   4.029   8.393  0.3804 -0.7418  0.1504
  101OSM   H13G10223   1.987   4.123   8.440 -3.0850 -0.9941  2.8351
  101OSM   C14F10224   1.956   3.988   8.278  0.2688 -0.2333 -0.3522
  101OSM   H14F10225   1.847   3.982   8.298  0.5135 -0.4794  0.9654
  101OSM   H14G10226   1.987   3.886   8.246 -1.7971 -0.7017 -1.0108
  101OSM   C15F10227   1.982   4.097   8.167 -0.1917  0.7768  0.2546
  101OSM   H15F10228   2.091   4.115   8.174  0.0538 -0.6165  0.2026
  101OSM   H15G10229   1.947   4.196   8.205 -0.1648  1.8305 -2.2435
  101OSM   C16F10230   1.939   4.067   8.027  0.3640 -0.5011 -0.5224
  101OSM   H16F10231   1.983   3.968   8.002  1.4847 -0.6180  1.6976
  101OSM   H16G10232   1.982   4.143   7.957 -1.5313 -1.2771 -2.6336
  101OSM   C17F10233   1.783   4.059   8.015  0.2711 -0.1646  0.2720
  101OSM   H17F10234   1.738   4.155   8.048  0.5746  0.6712 -1.5970
  101OSM   H17G10235   1.753   3.967   8.070 -0.8233 -2.0232 -3.0712
  101OSM   C18F10236   1.733   4.024   7.873 -0.3322 -0.7299 -0.8709
  101OSM   H18F10237   1.624   4.005   7.866 -1.0096  1.7585  1.5437
  101OSM   H18G10238   1.774   3.930   7.831 -1.3712 -0.1156 -3.4317
  101OSM   H18H10239   1.759   4.100   7.795  0.6651  0.4565  0.5586
  102OSM      N10240   3.901   5.685  10.532  0.2972 -0.3671  0.4771
  102OSM    C1510241   4.024   5.608  10.561 -0.4453  0.1931  0.0721
  102OSM   H15A10242   4.029   5.504  10.533 -0.4305  0.1469  0.2443
  102OSM   H15B10243   4.044   5.615  10.667  1.6595  1.4279 -0.3522
  102OSM   H15C10244   4.110   5.652  10.512 -1.0853 -0.1939 -1.4673
  102OSM    C1410245   3.778   5.626  10.599 -0.6478  0.2115  0.6586
  102OSM   H14A10246   3.690   5.679  10.566 -0.3434  0.3211  0.0164
  102OSM   H14B10247   3.778   5.642  10.706 -0.4040 -2.8826  1.2113
  102OSM   H14C10248   3.771   5.520  10.577  0.7397 -0.2589  2.2518
  102OSM    C1310249   3.924   5.816  10.595 -1.2617 -0.4201  0.0937
  102OSM   H13A10250   3.932   5.818  10.703  0.6288  1.5800  0.0022
  102OSM   H13B10251   3.851   5.890  10.566 -0.1398  0.2853 -1.0314
  102OSM   H13C10252   4.019   5.861  10.569 -0.8102  0.3592  2.7494
  102OSM    C1210253   3.874   5.708  10.390 -0.4374 -0.1898  0.1165
  102OSM   H12A10254   3.958   5.763  10.350  0.9067 -2.5312 -0.4782
  102OSM   H12B10255   3.786   5.769  10.384  0.2730  1.7427  4.8517
  102OSM    C1110256   3.849   5.588  10.294 -0.1851 -0.3896  0.4206
  102OSM   H11A10257   3.933   5.517  10.306 -0.0676 -1.2968 -3.9815
  102OSM   H11B10258   3.861   5.633  10.192  2.5294  1.1439  1.3038
  102OSM      P10259   3.582   5.592  10.281  0.3778 -0.1895 -0.3104
  102OSM    O1310260   3.477   5.487  10.282  0.4359  0.4031  0.6000
  102OSM    O1410261   3.564   5.709  10.360  0.0297 -0.2016 -0.1972
  102OSM    O1110262   3.588   5.634  10.128  0.1601  0.4019 -0.6351
  102OSM    O1210263   3.721   5.522  10.315  0.8431 -0.2189  0.5082
  102OSM    C1S10264   3.563   5.559  10.009  0.0759  0.3231  0.9652
  102OSM    H1S10265   3.458   5.524  10.004  0.7495 -1.7298 -0.7776
  102OSM    H1T10266   3.631   5.471  10.013 -2.7009 -2.2764 -1.9870
  102OSM     NF10267   3.570   5.564   9.773  0.1482  0.3265  0.3108
  102OSM    HNF10268   3.649   5.528   9.723 -0.2857 -0.6251  0.2904
  102OSM    C2S10269   3.597   5.651   9.885  0.0385  0.1684  0.0389
  102OSM    H2S10270   3.522   5.734   9.883 -0.9159 -0.6876 -1.2380
  102OSM    C3S10271   3.732   5.719   9.889  0.1689  0.4170 -0.3858
  102OSM    H3S10272   3.815   5.648   9.910 -0.2476  0.1864  0.5196
  102OSM     O310273   3.752   5.808  10.000  0.5045  0.3520 -0.0977
  102OSM    HO310274   3.696   5.775  10.070 -1.5334 -1.7279 -2.4993
  102OSM    C4S10275   3.762   5.797   9.764 -0.1027  0.4330  0.9915
  102OSM    H4S10276   3.692   5.881   9.747  0.4119  0.6078 -0.3847
  102OSM    C5S10277   3.858   5.771   9.676  0.6853 -0.2762  0.2082
  102OSM    H5S10278   3.925   5.684   9.687  1.4701  0.4049  0.9375
  102OSM    C6S10279   3.876   5.850   9.550 -0.7546  0.5554  0.0080
  102OSM    H6S10280   3.867   5.958   9.575 -0.7588  0.9167 -1.4629
  102OSM    H6T10281   3.801   5.822   9.473  1.7269 -0.2882 -2.2496
  102OSM    C7S10282   4.004   5.822   9.481 -0.2531  0.2066 -0.3782
  102OSM    H7S10283   4.028   5.715   9.462 -0.4040  0.0881  0.0899
  102OSM    H7T10284   4.095   5.855   9.536  0.8581 -0.4058 -1.7681
  102OSM    C8S10285   3.997   5.898   9.344 -0.5089 -0.0428  0.1616
  102OSM    H8S10286   3.971   6.005   9.357  0.0307  0.2590 -1.1185
  102OSM    H8T10287   3.920   5.856   9.276  1.7786  1.0470 -3.3767
  102OSM    C9S10288   4.133   5.890   9.264  0.0749 -0.3244 -1.4726
  102OSM    H9S10289   4.216   5.895   9.337 -0.3488 -1.1325 -0.9138
  102OSM    H9T10290   4.145   5.984   9.207  1.1448  0.6262  0.2300
  102OSM   C10S10291   4.146   5.764   9.181  0.3570 -0.4581 -0.1355
  102OSM   H10S10292   4.062   5.694   9.204 -1.8625  1.5904 -1.5802
  102OSM   H10T10293   4.245   5.721   9.206  0.2180 -0.0184  1.2647
  102OSM   C11S10294   4.130   5.788   9.024 -0.1680 -0.5587 -0.7505
  102OSM   H11S10295   4.207   5.864   9.000 -1.1400  0.0532 -2.0751
  102OSM   H11T10296   4.026   5.823   9.005 -0.1610  0.4409  0.9138
  102OSM   C12S10297   4.156   5.664   8.942 -0.4975 -0.6630 -0.3849
  102OSM   H12S10298   4.100   5.574   8.975 -0.6967 -0.3034  0.2818
  102OSM   H12T10299   4.261   5.643   8.970  0.2285  0.1850 -2.2789
  102OSM   C13S10300   4.163   5.704   8.796  0.5266  0.6355  0.2085
  102OSM   H13S10301   4.221   5.633   8.733 -0.0819  1.5353 -1.4390
  102OSM   H13T10302   4.209   5.806   8.797 -2.5811  2.1407  1.1399
  102OSM   C14S10303   4.025   5.713   8.729 -0.3968 -0.3919  1.7532
  102OSM   H14S10304   3.958   5.788   8.776 -2.2740 -2.7763  3.1288
  102OSM   H14T10305   3.969   5.619   8.746 -1.0380 -0.5925 -0.9341
  102OSM   C15S10306   4.039   5.729   8.577  0.4767 -0.4505 -0.1216
  102OSM   H15S10307   4.112   5.655   8.537  0.1721 -0.8613  0.0747
  102OSM   H15T10308   4.095   5.824   8.562 -0.5541  0.3470  0.9094
  102OSM   C16S10309   3.910   5.724   8.491  0.0023 -0.3545  0.2926
  102OSM   H16S10310   3.924   5.753   8.385  0.4107 -1.4448  0.0416
  102OSM   H16T10311   3.844   5.794   8.547 -0.9820 -2.3969  1.8288
  102OSM   C17S10312   3.839   5.582   8.504  0.3505  0.4527 -0.1635
  102OSM   H17S10313   3.809   5.569   8.610 -1.6215 -0.8028 -0.8139
  102OSM   H17T10314   3.905   5.498   8.474 -0.3614  0.6003 -2.3168
  102OSM   C18S10315   3.707   5.578   8.419 -0.0467  0.2932 -0.1220
  102OSM   H18S10316   3.732   5.601   8.313  0.9184  1.0432  0.2630
  102OSM   H18T10317   3.633   5.647   8.465 -0.8771 -0.2531 -0.5965
  102OSM   H18U10318   3.653   5.481   8.428  1.7552 -0.7027  0.3385
  102OSM    C1F10319   3.444   5.537   9.729 -0.9610  0.4341 -0.1625
  102OSM     OF10320   3.352   5.613   9.758 -0.5533 -0.0563 -0.0633
  102OSM    C2F10321   3.421   5.422   9.641 -0.2120 -0.2885  0.1543
  102OSM    H2F10322   3.367   5.339   9.692 -1.4346 -1.4339 -2.8088
  102OSM    H2G10323   3.518   5.377   9.613  0.3110 -1.5862  3.5009
  102OSM    C3F10324   3.320   5.461   9.529 -0.6325 -0.0463  0.6597
  102OSM    H3F10325   3.222   5.502   9.562 -0.8751  0.0091 -0.0955
  102OSM    H3G10326   3.293   5.375   9.464  0.7252 -1.3773  1.8214
  102OSM    C4F10327   3.383   5.559   9.427 -0.0008  0.1186  0.0457
  102OSM    H4F10328   3.485   5.527   9.398 -0.2262  0.4363 -1.1429
  102OSM    H4G10329   3.388   5.662   9.467  0.5017  1.1041 -2.4155
  102OSM    C5F10330   3.309   5.569   9.294 -0.0087 -0.3613 -0.5103
  102OSM    H5F10331   3.361   5.645   9.232  1.9490 -1.8503 -0.8067
  102OSM    H5G10332   3.203   5.603   9.300 -0.1515 -0.7167 -0.9239
  102OSM    C6F10333   3.300   5.444   9.209 -0.0838  0.3956  0.7474
  102OSM    H6F10334   3.225   5.376   9.256 -1.3038  1.6046  0.6129
  102OSM    H6G10335   3.391   5.386   9.236 -0.0284  0.7352  1.3098
  102OSM    C7F10336   3.307   5.474   9.058 -0.3009  0.3138  0.7284
  102OSM    H7F10337   3.316   5.378   9.004 -0.8096  0.4518  0.3808
  102OSM    H7G10338   3.403   5.527   9.040 -0.0833 -0.0905  0.7119
  102OSM    C8F10339   3.181   5.543   8.998 -0.4242 -0.0357  0.5822
  102OSM    H8F10340   3.201   5.561   8.890 -0.7479 -0.3192  0.4735
  102OSM    H8G10341   3.167   5.643   9.045  0.7224  0.5188 -0.2341
  102OSM    C9F10342   3.059   5.461   9.029 -0.0219 -0.3499 -0.5447
  102OSM    H9F10343   3.019   5.470   9.131  0.4431 -1.9791 -0.1867
  102OSM   C10F10344   2.971   5.393   8.947 -0.3261 -0.0046 -0.3368
  102OSM   H10F10345   2.877   5.360   8.994  0.6363 -1.9965  0.3139
  102OSM   C11F10346   2.997   5.366   8.796  0.3148 -0.1585 -0.3277
  102OSM   H11F10347   3.097   5.404   8.766  0.2370 -1.0001 -1.7436
  102OSM   H11G10348   2.925   5.413   8.725 -0.0116  0.7974  0.6058
  102OSM   C12F10349   2.986   5.214   8.778 -0.4869  0.1290  0.4265
  102OSM   H12F10350   2.884   5.186   8.812 -0.6944  1.5249  1.0449
  102OSM   H12G10351   3.066   5.157   8.829 -0.7189  0.2499  0.9403
  102OSM   C13F10352   3.007   5.174   8.633 -0.4197  0.2177 -0.0176
  102OSM   H13F10353   3.026   5.064   8.631 -0.2880  0.2097  1.1299
  102OSM   H13G10354   3.099   5.228   8.601  1.3421 -1.4860  1.8950
  102OSM   C14F10355   2.890   5.197   8.539  0.7484 -0.8030 -0.7643
  102OSM   H14F10356   2.862   5.304   8.538 -1.5803 -1.3563 -0.4628
  102OSM   H14G10357   2.794   5.155   8.576  1.1110 -1.5411 -0.6344
  102OSM   C15F10358   2.911   5.155   8.395 -0.4851 -0.1018 -0.3428
  102OSM   H15F10359   2.897   5.046   8.378  0.5638  0.1142 -2.9421
  102OSM   H15G10360   3.020   5.165   8.379 -0.1578 -0.2670  1.5509
  102OSM   C16F10361   2.839   5.238   8.298  0.0398 -1.1378 -0.4298
  102OSM   H16F10362   2.842   5.344   8.328 -1.0668 -1.2080 -0.0149
  102OSM   H16G10363   2.733   5.205   8.298 -0.8032  1.3643  0.8678
  102OSM   C17F10364   2.879   5.222   8.149 -0.3314  1.2031 -0.8934
  102OSM   H17F10365   2.869   5.116   8.116 -0.6248  0.6344  0.9237
  102OSM   H17G10366   2.987   5.244   8.152 -0.3277  1.1322 -0.4644
  102OSM   C18F10367   2.812   5.310   8.056  0.0547 -0.2522  0.0628
  102OSM   H18F10368   2.839   5.416   8.076 -0.9849  0.0242  0.0958
  102OSM   H18G10369   2.701   5.303   8.054 -0.2028  0.8671  3.6462
  102OSM   H18H10370   2.864   5.292   7.960 -1.6757 -1.7721 -0.6450
  103OSM      N10371   2.599   1.277  10.037  0.2714 -0.5412  0.7052
  103OSM    C1510372   2.593   1.286  10.185  0.1188 -0.3182 -0.3393
  103OSM   H15A10373   2.560   1.383  10.218 -0.0861 -0.3818 -0.3538
  103OSM   H15B10374   2.694   1.269  10.220 -0.0183 -1.0146 -0.2636
  103OSM   H15C10375   2.514   1.221  10.220  1.2054  0.2563  3.6701
  103OSM    C1410376   2.477   1.354   9.981  0.2473 -0.0038  0.0239
  103OSM   H14A10377   2.466   1.352   9.874  1.3773 -0.5396 -0.1005
  103OSM   H14B10378   2.501   1.455  10.010  1.0951  0.0911 -0.9517
  103OSM   H14C10379   2.380   1.336  10.025  0.2710 -0.6111 -0.1719
  103OSM    C1310380   2.723   1.350  10.004  0.4540 -0.0030 -0.0713
  103OSM   H13A10381   2.767   1.324   9.909  1.9154 -0.4626  0.6981
  103OSM   H13B10382   2.802   1.318  10.070 -0.0071  1.2872  1.1477
  103OSM   H13C10383   2.723   1.458  10.015  0.7256 -0.1635  1.8719
  103OSM    C1210384   2.586   1.134   9.995  0.3691 -1.0644  0.2115
  103OSM   H12A10385   2.572   1.139   9.888  2.2453  1.2847 -0.0321
  103OSM   H12B10386   2.498   1.093  10.042  0.8724  2.3554  4.9261
  103OSM    C1110387   2.714   1.050  10.021  0.3292  0.5041 -0.1492
  103OSM   H11A10388   2.796   1.108   9.974  0.1269 -1.9450 -3.8980
  103OSM   H11B10389   2.694   0.959   9.960  0.3835  0.7757 -0.5781
  103OSM      P10390   2.866   1.001  10.227  0.3606  0.2538 -0.2497
  103OSM    O1310391   2.898   1.138  10.267  0.0983 -0.7806  0.2354
  103OSM    O1410392   2.854   0.903  10.333 -0.1255 -0.5530 -0.0803
  103OSM    O1110393   2.958   0.946  10.116 -0.2320  0.1895  0.0677
  103OSM    O1210394   2.723   1.007  10.157  0.3664 -0.0973 -0.6125
  103OSM    C1S10395   2.941   0.814  10.070 -0.7191 -0.6263 -0.5007
  103OSM    H1S10396   2.837   0.774  10.070 -1.3870  1.0239 -1.2854
  103OSM    H1T10397   3.008   0.746  10.128  0.4016  1.0620  0.2489
  103OSM     NF10398   2.977   0.662   9.873  0.5468  0.2467 -0.0521
  103OSM    HNF10399   3.061   0.620   9.840  0.9055  0.9768 -0.1025
  103OSM    C2S10400   2.981   0.800   9.917 -0.3582 -0.6625  0.3328
  103OSM    H2S10401   2.911   0.857   9.852  2.2379 -0.3984 -2.4739
  103OSM    C3S10402   3.124   0.866   9.883 -0.5663 -0.5549  0.7712
  103OSM    H3S10403   3.198   0.791   9.919  0.7736 -0.1210 -0.9408
  103OSM     O310404   3.155   0.988   9.956 -0.2920 -0.1089 -0.1780
  103OSM    HO310405   3.084   0.997  10.020  1.2444  1.5576  1.4250
  103OSM    C4S10406   3.146   0.889   9.736 -0.1317  0.1936 -0.7973
  103OSM    H4S10407   3.197   0.805   9.687 -1.0910  0.3285 -2.0778
  103OSM    C5S10408   3.108   0.989   9.647 -0.4350  0.2004  0.1234
  103OSM    H5S10409   3.071   1.087   9.682  0.9569  1.1324 -0.8633
  103OSM    C6S10410   3.152   0.979   9.500 -0.2811 -0.1559  0.3581
  103OSM    H6S10411   3.241   0.913   9.502  3.3825  4.2348  1.8619
  103OSM    H6T10412   3.182   1.075   9.453 -0.2364 -0.7755 -0.9106
  103OSM    C7S10413   3.049   0.896   9.417 -0.1576  0.7312 -0.3673
  103OSM    H7S10414   2.949   0.943   9.402 -1.0633 -0.9303  0.0985
  103OSM    H7T10415   3.026   0.805   9.477 -0.8687  2.2840  1.8654
  103OSM    C8S10416   3.108   0.851   9.284  0.9267 -0.3159  0.8223
  103OSM    H8S10417   3.210   0.809   9.293  2.0664  1.1816 -3.1565
  103OSM    H8T10418   3.109   0.934   9.210  0.8385 -1.1786 -0.1703
  103OSM    C9S10419   3.028   0.734   9.225 -0.1321  0.2330  0.9063
  103OSM    H9S10420   2.920   0.763   9.223 -0.6345 -1.4919 -2.0049
  103OSM    H9T10421   3.023   0.642   9.287 -0.1195  0.2521  0.9366
  103OSM   C10S10422   3.065   0.701   9.074  0.8120 -0.0339 -0.1524
  103OSM   H10S10423   3.015   0.604   9.055  0.5089 -0.7872  3.6585
  103OSM   H10T10424   3.174   0.683   9.067  0.6496 -0.8130 -0.6975
  103OSM   C11S10425   3.012   0.808   8.973  0.5582 -0.8184 -0.3031
  103OSM   H11S10426   3.064   0.904   8.995 -1.1133 -0.2636  1.5615
  103OSM   H11T10427   2.905   0.838   8.979  0.9091  0.2588  1.5987
  103OSM   C12S10428   3.046   0.766   8.827 -0.7954 -0.5908  0.3583
  103OSM   H12S10429   2.989   0.673   8.807 -0.7811 -0.1993 -1.8008
  103OSM   H12T10430   3.152   0.736   8.844 -1.0837 -0.9592  1.5661
  103OSM   C13S10431   3.029   0.875   8.720  0.0348  0.5036  0.3749
  103OSM   H13S10432   3.066   0.972   8.758  0.9743  0.0259  0.7136
  103OSM   H13T10433   2.923   0.899   8.698  0.6517  0.7810 -2.8076
  103OSM   C14S10434   3.090   0.839   8.585  0.5110  0.4019  0.6723
  103OSM   H14S10435   3.196   0.812   8.608  0.9266  3.6326  3.2312
  103OSM   H14T10436   3.099   0.924   8.515  1.9308 -0.2283  0.0317
  103OSM   C15S10437   3.011   0.734   8.497 -0.5955 -0.9218 -0.0606
  103OSM   H15S10438   2.907   0.773   8.507  0.1574  0.8052  1.7629
  103OSM   H15T10439   3.012   0.627   8.530 -0.8966 -1.3799 -1.4925
  103OSM   C16S10440   3.053   0.745   8.348 -0.3835 -0.1658  0.4460
  103OSM   H16S10441   3.158   0.719   8.323 -0.1259  0.0242  1.3152
  103OSM   H16T10442   3.050   0.855   8.337 -0.0319 -0.0013  1.8265
  103OSM   C17S10443   2.947   0.672   8.261  0.3731 -0.0656  1.0493
  103OSM   H17S10444   2.843   0.659   8.299  0.4731 -0.1451  1.2920
  103OSM   H17T10445   2.996   0.577   8.232 -0.9609  0.1944 -2.6657
  103OSM   C18S10446   2.941   0.748   8.126  0.1363 -0.0692  0.2680
  103OSM   H18S10447   2.887   0.699   8.042 -0.3252  2.3152 -0.9280
  103OSM   H18T10448   3.043   0.762   8.084  0.3048  1.1673  1.0369
  103OSM   H18U10449   2.890   0.846   8.136  0.6403 -0.0681  4.1881
  103OSM    C1F10450   2.861   0.588   9.874 -0.6954  0.9724  0.6300
  103OSM     OF10451   2.751   0.638   9.892 -0.1160 -0.1914 -0.1818
  103OSM    C2F10452   2.867   0.436   9.838  0.3522  0.0942 -0.4765
  103OSM    H2F10453   2.836   0.373   9.923  2.1455 -0.4549 -0.1877
  103OSM    H2G10454   2.972   0.411   9.809  0.8626  0.1467  1.2558
  103OSM    C3F10455   2.788   0.395   9.714  0.6356  0.2845  0.7814
  103OSM    H3F10456   2.689   0.357   9.747 -0.3478 -0.1791 -2.4046
  103OSM    H3G10457   2.825   0.302   9.667 -1.2278 -0.0560 -0.0880
  103OSM    C4F10458   2.792   0.502   9.604 -0.1793 -0.6792  1.2567
  103OSM    H4F10459   2.897   0.507   9.568  0.3943  0.2659  2.9793
  103OSM    H4G10460   2.761   0.605   9.631 -0.2182  1.0448 -4.2035
  103OSM    C5F10461   2.709   0.458   9.480 -0.2099  0.0239  0.8009
  103OSM    H5F10462   2.600   0.458   9.501  0.0344  0.1965  2.1734
  103OSM    H5G10463   2.730   0.352   9.455 -0.3877 -0.4447  2.5169
  103OSM    C6F10464   2.744   0.556   9.361  0.7138  0.1218 -0.6634
  103OSM    H6F10465   2.847   0.531   9.328  1.9117  0.0675  2.7889
  103OSM    H6G10466   2.753   0.659   9.401  2.1537  0.0282 -0.7037
  103OSM    C7F10467   2.637   0.537   9.251 -0.4880  0.2606  1.0167
  103OSM    H7F10468   2.535   0.545   9.295 -1.5177 -1.8090 -0.8165
  103OSM    H7G10469   2.640   0.432   9.216  1.2539  0.7792 -0.5442
  103OSM    C8F10470   2.658   0.642   9.139  0.3548 -0.4612  0.1045
  103OSM    H8F10471   2.757   0.637   9.089  0.5550  1.9465  0.1708
  103OSM    H8G10472   2.670   0.739   9.192  0.3357 -1.5640  2.2705
  103OSM    C9F10473   2.553   0.661   9.035  0.1481  0.0226 -0.0026
  103OSM    H9F10474   2.460   0.703   9.077 -0.3854  0.2994 -1.4269
  103OSM   C10F10475   2.554   0.641   8.905 -0.0542  0.2198 -0.1585
  103OSM   H10F10476   2.474   0.688   8.846  0.2213  1.0206  0.0948
  103OSM   C11F10477   2.660   0.591   8.821 -0.2920  1.0556  0.6877
  103OSM   H11F10478   2.668   0.480   8.818 -2.3929  0.8600 -3.1305
  103OSM   H11G10479   2.762   0.629   8.846  2.4504 -4.4769 -0.4190
  103OSM   C12F10480   2.639   0.616   8.666 -0.3062  0.2746  0.0878
  103OSM   H12F10481   2.543   0.571   8.631 -0.1554  0.1163 -0.1219
  103OSM   H12G10482   2.718   0.572   8.602 -0.4076 -1.2343  0.9677
  103OSM   C13F10483   2.638   0.764   8.628 -0.0435  0.7235  0.5352
  103OSM   H13F10484   2.730   0.816   8.662  0.9309  0.1022 -1.0215
  103OSM   H13G10485   2.554   0.801   8.689  1.0284  1.0747  1.8489
  103OSM   C14F10486   2.611   0.786   8.476  0.6526  0.3203  0.3919
  103OSM   H14F10487   2.658   0.696   8.432  0.4582 -1.6675  3.8658
  103OSM   H14G10488   2.665   0.878   8.443  2.1607 -0.8347 -0.4952
  103OSM   C15F10489   2.462   0.800   8.448  0.0311 -0.8058 -0.1606
  103OSM   H15F10490   2.428   0.886   8.509  3.5253  0.7916 -0.2492
  103OSM   H15G10491   2.413   0.708   8.487 -1.1473 -0.1575 -0.0685
  103OSM   C16F10492   2.416   0.826   8.303  0.1210 -0.0058  0.5440
  103OSM   H16F10493   2.451   0.928   8.276 -1.6169  0.9865  1.8351
  103OSM   H16G10494   2.307   0.846   8.303  0.4705  2.2074  0.4129
  103OSM   C17F10495   2.462   0.717   8.202 -0.0171 -0.3588 -0.1763
  103OSM   H17F10496   2.430   0.618   8.241  0.4908 -0.8578 -0.9807
  103OSM   H17G10497   2.573   0.723   8.191 -0.2743  2.2058 -2.4848
  103OSM   C18F10498   2.411   0.751   8.059 -0.4849 -0.8966 -0.2852
  103OSM   H18F10499   2.459   0.682   7.987  1.2513  1.8736 -1.9687
  103OSM   H18G10500   2.438   0.854   8.030  1.7728 -1.6733 -1.1294
  103OSM   H18H10501   2.303   0.725   8.062 -0.1239 -2.5472  3.1828
  104OSM      N10502   3.607   0.671  10.062  0.2121  0.2254  0.1609
  104OSM    C1510503   3.549   0.699  10.201 -0.4220 -0.3946 -0.3537
  104OSM   H15A10504   3.500   0.796  10.205  3.3664  1.6859  0.6629
  104OSM   H15B10505   3.629   0.713  10.272 -0.1916  1.4911 -0.9129
  104OSM   H15C10506   3.493   0.612  10.230  0.1013 -0.2974  0.9942
  104OSM    C1410507   3.705   0.556  10.067  0.6953 -0.3782 -0.3328
  104OSM   H14A10508   3.746   0.542   9.968  2.0384  1.8110 -0.1560
  104OSM   H14B10509   3.645   0.479  10.112 -3.3385  2.4706 -0.2659
  104OSM   H14C10510   3.789   0.586  10.127  0.9865 -0.6790 -0.5889
  104OSM    C1310511   3.491   0.632   9.980 -0.6096 -0.5229 -0.0752
  104OSM   H13A10512   3.444   0.539  10.011  2.0064 -1.5052  1.2792
  104OSM   H13B10513   3.504   0.615   9.875 -0.5168  0.6429 -0.2618
  104OSM   H13C10514   3.412   0.705   9.984  2.1829  2.6986  0.5654
  104OSM    C1210515   3.683   0.793  10.009 -0.1389 -0.0269  0.2010
  104OSM   H12A10516   3.612   0.867   9.975 -1.4477 -0.8750  1.0162
  104OSM   H12B10517   3.735   0.764   9.919  0.3189 -0.6288  0.6531
  104OSM    C1110518   3.788   0.865  10.101  0.9297 -0.2607  1.3516
  104OSM   H11A10519   3.741   0.876  10.201  0.0624 -1.2190  1.0629
  104OSM   H11B10520   3.815   0.967  10.068  0.6206 -1.1974 -2.2992
  104OSM      P10521   4.021   0.772  10.024  0.5429  0.3524 -0.4574
  104OSM    O1310522   4.111   0.890  10.036  0.0104 -0.0775 -0.0655
  104OSM    O1410523   4.080   0.641  10.041  0.3153  0.0852 -0.2891
  104OSM    O1110524   3.948   0.773   9.879 -0.9176 -0.5597  0.2842
  104OSM    O1210525   3.902   0.789  10.133 -0.1073 -0.5276  0.4285
  104OSM    C1S10526   3.972   0.883   9.791  0.7671 -0.4181  0.7148
  104OSM    H1S10527   4.079   0.913   9.785 -0.3497  4.0098 -1.9528
  104OSM    H1T10528   3.922   0.976   9.826 -1.6397 -0.9991 -0.9386
  104OSM     NF10529   3.925   0.983   9.571  0.3240 -0.3104 -0.6858
  104OSM    HNF10530   3.850   1.049   9.578  0.7754  0.3892 -1.9698
  104OSM    C2S10531   3.907   0.860   9.651  0.4745 -0.0465  0.0319
  104OSM    H2S10532   3.963   0.777   9.603 -1.4039 -2.0137  1.0857
  104OSM    C3S10533   3.748   0.812   9.662 -0.5396 -0.5247 -0.0319
  104OSM    H3S10534   3.701   0.887   9.729  0.7316  1.4476 -1.2285
  104OSM     O310535   3.733   0.683   9.721  0.5447  0.5664 -0.4497
  104OSM    HO310536   3.820   0.664   9.755  0.0903  1.0330  1.0541
  104OSM    C4S10537   3.676   0.806   9.531 -0.5537 -0.5312  0.4104
  104OSM    H4S10538   3.706   0.736   9.451 -0.2836 -0.6239  0.5918
  104OSM    C5S10539   3.560   0.871   9.506 -0.1703  0.0148  0.5723
  104OSM    H5S10540   3.527   0.942   9.583  2.1887  3.0527 -0.9756
  104OSM    C6S10541   3.475   0.850   9.385  0.2794 -0.9314 -0.0046
  104OSM    H6S10542   3.411   0.939   9.367 -0.4766 -1.3039  0.7544
  104OSM    H6T10543   3.413   0.759   9.402  0.2668 -0.3887  3.5476
  104OSM    C7S10544   3.555   0.828   9.252 -0.5432 -0.2566  0.6657
  104OSM    H7S10545   3.604   0.729   9.260 -3.4096 -1.7374  0.9649
  104OSM    H7T10546   3.631   0.906   9.228 -0.3477 -0.2865  1.1696
  104OSM    C8S10547   3.468   0.817   9.123  0.0472 -0.1090 -0.0494
  104OSM    H8S10548   3.399   0.904   9.121  0.3659  0.1350 -0.7268
  104OSM    H8T10549   3.421   0.716   9.122  0.8466 -0.4935 -0.3666
  104OSM    C9S10550   3.547   0.805   8.993  0.1929 -0.6216 -0.1807
  104OSM    H9S10551   3.621   0.724   9.013  1.6398  0.6591 -0.1364
  104OSM    H9T10552   3.601   0.901   8.975  2.0868 -1.7461 -0.7325
  104OSM   C10S10553   3.467   0.751   8.874 -0.0545 -0.2038 -0.6249
  104OSM   H10S10554   3.404   0.835   8.837 -0.4244  0.0430  0.5251
  104OSM   H10T10555   3.405   0.663   8.900 -0.7636  0.6527  0.6659
  104OSM   C11S10556   3.556   0.709   8.762 -0.8516 -0.7279 -0.7008
  104OSM   H11S10557   3.609   0.618   8.796  0.3299  0.4369  0.6815
  104OSM   H11T10558   3.641   0.778   8.743  0.3750 -2.5404 -2.2603
  104OSM   C12S10559   3.487   0.693   8.629 -1.0128  0.5571 -0.1639
  104OSM   H12S10560   3.457   0.796   8.600  3.0987  1.7946 -0.6421
  104OSM   H12T10561   3.405   0.618   8.627  1.4823 -2.3988 -0.2253
  104OSM   C13S10562   3.579   0.646   8.520 -0.1938 -0.6780 -0.8372
  104OSM   H13S10563   3.608   0.543   8.549  1.1477  0.1911  1.1996
  104OSM   H13T10564   3.666   0.716   8.520  1.4843 -2.6781 -1.3526
  104OSM   C14S10565   3.500   0.662   8.389 -0.2782 -0.5064 -0.4185
  104OSM   H14S10566   3.469   0.769   8.383  1.2440 -0.0485 -0.6066
  104OSM   H14T10567   3.416   0.589   8.394 -0.4322 -0.3351 -0.4745
  104OSM   C15S10568   3.586   0.626   8.262  0.4233  0.3837  0.2878
  104OSM   H15S10569   3.658   0.705   8.231 -0.3264 -0.0588 -3.0436
  104OSM   H15T10570   3.511   0.611   8.181 -1.1448 -0.8167  1.8716
  104OSM   C16S10571   3.657   0.498   8.272 -0.1020  0.4743 -0.2134
  104OSM   H16S10572   3.582   0.425   8.309  0.4532 -0.3525 -0.6768
  104OSM   H16T10573   3.731   0.502   8.354  1.5209 -0.2273 -1.5859
  104OSM   C17S10574   3.704   0.448   8.145 -0.2296  0.5001  0.4110
  104OSM   H17S10575   3.799   0.400   8.176 -1.1673 -0.1012  2.5471
  104OSM   H17T10576   3.735   0.524   8.071  0.3043 -0.9734 -0.9325
  104OSM   C18S10577   3.609   0.365   8.055 -0.3316  0.4911 -0.5670
  104OSM   H18S10578   3.572   0.276   8.110  0.1429 -1.1581 -2.7744
  104OSM   H18T10579   3.667   0.324   7.969  1.9858  0.6606  0.8213
  104OSM   H18U10580   3.519   0.426   8.032  0.5829  1.7634 -0.8570
  104OSM    C1F10581   4.036   1.025   9.522 -0.2919 -0.3480  0.3624
  104OSM     OF10582   4.138   0.960   9.533  0.0189 -0.4483 -0.4125
  104OSM    C2F10583   4.036   1.165   9.466  0.0028  0.9994  0.0791
  104OSM    H2F10584   4.114   1.225   9.517  2.1408 -2.5561  1.3521
  104OSM    H2G10585   3.946   1.226   9.488 -0.5783  0.2303 -0.1207
  104OSM    C3F10586   4.061   1.156   9.309 -0.9156  0.0940  0.5956
  104OSM    H3F10587   4.151   1.092   9.296  0.4675  1.9421  0.7253
  104OSM    H3G10588   4.105   1.248   9.266 -0.7816 -1.4140 -2.8733
  104OSM    C4F10589   3.942   1.111   9.236  0.2067  0.3397  0.3468
  104OSM    H4F10590   3.850   1.116   9.299 -1.0431 -0.2572 -1.3728
  104OSM    H4G10591   3.951   1.000   9.228  1.1498  0.4762 -0.6433
  104OSM    C5F10592   3.895   1.177   9.110  0.0824  0.4861 -0.2436
  104OSM    H5F10593   3.990   1.220   9.071  0.0476 -1.0575 -2.1690
  104OSM    H5G10594   3.830   1.264   9.134 -1.2034 -0.8611  1.4584
  104OSM    C6F10595   3.832   1.082   9.015  0.3413  0.2353 -0.3364
  104OSM    H6F10596   3.745   1.134   8.969 -1.6179 -1.2246  1.4853
  104OSM    H6G10597   3.783   0.990   9.054  1.7286  0.7942  3.0046
  104OSM    C7F10598   3.929   1.046   8.897 -0.5910 -0.4012  0.0949
  104OSM    H7F10599   4.021   1.001   8.940 -0.7233 -0.0360  0.7789
  104OSM    H7G10600   3.956   1.147   8.859 -1.8658 -0.0260  0.1343
  104OSM    C8F10601   3.854   0.969   8.793 -0.4011 -0.1178  0.2698
  104OSM    H8F10602   3.808   0.876   8.831 -0.8803 -1.8404 -3.9276
  104OSM    H8G10603   3.933   0.935   8.722  0.4923  2.0685  0.1571
  104OSM    C9F10604   3.760   1.060   8.723 -0.1214 -0.3293 -0.1650
  104OSM    H9F10605   3.681   1.091   8.793 -1.0319 -1.7101 -0.5220
  104OSM   C10F10606   3.753   1.065   8.592  0.1274 -0.0609  0.2022
  104OSM   H10F10607   3.678   1.133   8.548  0.2468  0.9863  1.5488
  104OSM   C11F10608   3.850   1.008   8.482  1.1551  0.1180 -0.4737
  104OSM   H11F10609   3.883   0.907   8.513 -0.9636 -0.7893 -0.9989
  104OSM   H11G10610   3.928   1.085   8.461  0.8594  0.5122 -0.1439
  104OSM   C12F10611   3.758   0.983   8.370 -0.0557  0.3519  0.8715
  104OSM   H12F10612   3.711   1.072   8.323  1.0534  0.9008  0.7643
  104OSM   H12G10613   3.681   0.914   8.411  0.5519 -0.9717 -0.1315
  104OSM   C13F10614   3.842   0.919   8.251 -0.7907  0.1596  0.0280
  104OSM   H13F10615   3.783   0.864   8.175  0.9481  1.3436 -2.2801
  104OSM   H13G10616   3.917   0.850   8.293  0.7382  1.9722  0.4025
  104OSM   C14F10617   3.916   1.016   8.162 -0.1909 -0.1592 -0.0042
  104OSM   H14F10618   3.998   1.069   8.214 -1.5270  0.4955  1.5148
  104OSM   H14G10619   3.845   1.098   8.138  0.9085  1.1277  0.9542
  104OSM   C15F10620   3.972   0.951   8.035 -0.1386  0.4678  0.1887
  104OSM   H15F10621   4.030   0.862   8.069  0.8261  0.8044 -0.5333
  104OSM   H15G10622   4.054   1.012   7.990 -0.4007 -0.5796 -1.8177
  104OSM   C16F10623   3.869   0.938   7.926  0.5546 -0.5400  0.1061
  104OSM   H16F10624   3.777   0.884   7.956  1.1181 -1.2925  0.4960
  104OSM   H16G10625   3.907   0.867   7.850  0.6191  0.3919 -0.7592
  104OSM   C17F10626   3.839   1.070   7.851  0.1062 -0.2456 -0.6421
  104OSM   H17F10627   3.933   1.123   7.823  1.4763 -1.3294  1.5990
  104OSM   H17G10628   3.782   1.135   7.920 -0.1850  0.4688 -1.5466
  104OSM   C18F10629   3.763   1.058   7.721 -0.0493  0.3286  0.1836
  104OSM   H18F10630   3.665   1.013   7.745  0.3276  0.2552  1.6670
  104OSM   H18G10631   3.822   0.989   7.657 -1.0465  1.0524 -1.5720
  104OSM   H18H10632   3.743   1.153   7.668  1.7534  0.8390  0.3579
  105OSM      N10633   0.779   4.752   9.984 -0.2530  0.0938  0.0476
  105OSM    C1510634   0.879   4.712  10.088  0.8124  0.1611  0.4330
  105OSM   H15A10635   0.847   4.747  10.185 -2.7433 -1.3870 -0.0206
  105OSM   H15B10636   0.966   4.775  10.077  0.0311  1.0894 -0.8161
  105OSM   H15C10637   0.908   4.610  10.102 -1.0488 -0.4386  0.2309
  105OSM    C1410638   0.773   4.900   9.992 -0.3257  0.1449  0.1635
  105OSM   H14A10639   0.692   4.930   9.926 -0.6392 -0.9090  0.0477
  105OSM   H14B10640   0.869   4.941   9.966 -0.2907  0.8488  1.3496
  105OSM   H14C10641   0.749   4.924  10.094 -0.4150  1.2573 -0.1088
  105OSM    C1310642   0.827   4.705   9.850  0.0453  0.0499 -0.0549
  105OSM   H13A10643   0.914   4.762   9.822  0.3873  0.2777  1.3954
  105OSM   H13B10644   0.751   4.706   9.774  0.3460  0.3572 -0.3568
  105OSM   H13C10645   0.857   4.602   9.866  0.4150  0.3282  1.1167
  105OSM    C1210646   0.648   4.682  10.019 -0.1342 -0.0035 -0.0036
  105OSM   H12A10647   0.625   4.713  10.120  0.3342 -2.2595  0.8679
  105OSM   H12B10648   0.659   4.574  10.016  0.5005  0.0370  0.5223
  105OSM    C1110649   0.525   4.709   9.927 -0.0865 -0.2221  0.4614
  105OSM   H11A10650   0.440   4.641   9.948  0.8528 -0.6897  3.0804
  105OSM   H11B10651   0.565   4.681   9.827  0.7386 -2.4088  1.3360
  105OSM      P10652   0.349   4.903   9.862  0.0511 -0.1838  0.2013
  105OSM    O1310653   0.251   4.793   9.865 -0.0974  0.4605  0.3065
  105OSM    O1410654   0.305   5.027   9.929  0.1232  0.2935 -0.0915
  105OSM    O1110655   0.397   4.923   9.710  0.0203 -0.2627  0.0108
  105OSM    O1210656   0.482   4.844   9.936  0.4453 -0.2015  0.2237
  105OSM    C1S10657   0.529   4.942   9.672 -0.5675 -0.0816 -0.5970
  105OSM    H1S10658   0.582   4.849   9.703 -0.7416  0.6710  2.2230
  105OSM    H1T10659   0.572   5.027   9.728 -1.9032  0.6948 -0.7303
  105OSM     NF10660   0.694   4.959   9.497 -0.2703  0.0784 -0.1189
  105OSM    HNF10661   0.745   5.045   9.495  1.0794 -0.6849 -0.2476
  105OSM    C2S10662   0.552   4.969   9.525  0.0081  0.0515 -0.3205
  105OSM    H2S10663   0.501   4.894   9.461 -0.8263 -0.3144  0.7500
  105OSM    C3S10664   0.492   5.108   9.492 -0.9433  0.0354 -0.4032
  105OSM    H3S10665   0.535   5.186   9.559  0.1708  0.6320 -1.7654
  105OSM     O310666   0.347   5.107   9.497 -0.0396  0.5504 -0.6343
  105OSM    HO310667   0.328   5.014   9.511 -1.3801  0.7663 -0.8471
  105OSM    C4S10668   0.523   5.140   9.349 -0.3297  0.2879 -0.0127
  105OSM    H4S10669   0.481   5.072   9.273 -0.5110  0.5441 -0.1426
  105OSM    C5S10670   0.594   5.248   9.316  0.1551 -0.1150 -0.2242
  105OSM    H5S10671   0.626   5.320   9.392  0.1704  1.0503 -1.3001
  105OSM    C6S10672   0.617   5.289   9.168  0.2991 -0.1466  0.5097
  105OSM    H6S10673   0.648   5.395   9.156  0.2464  0.2081  3.0660
  105OSM    H6T10674   0.524   5.265   9.112 -0.2901  0.2936  1.2907
  105OSM    C7S10675   0.732   5.200   9.122 -0.2141  0.1486  0.1436
  105OSM    H7S10676   0.713   5.090   9.123  0.0606  0.0965  1.1230
  105OSM    H7T10677   0.825   5.224   9.178 -0.3748 -1.6012  1.2422
  105OSM    C8S10678   0.771   5.233   8.973 -0.0454  0.0932 -0.5464
  105OSM    H8S10679   0.803   5.339   8.984 -1.8830  0.4765  2.2559
  105OSM    H8T10680   0.677   5.222   8.914 -2.3449  4.4309  1.8436
  105OSM    C9S10681   0.893   5.157   8.920 -0.0262 -0.8791 -0.0782
  105OSM    H9S10682   0.864   5.050   8.910 -0.3431 -1.1858  3.1602
  105OSM    H9T10683   0.977   5.178   8.990 -1.3438  0.9037  1.0383
  105OSM   C10S10684   0.931   5.207   8.781  0.8214 -0.6751 -0.7475
  105OSM   H10S10685   0.991   5.134   8.723  0.3839 -0.1930 -1.8450
  105OSM   H10T10686   1.006   5.288   8.798  1.3153 -1.3276  0.2667
  105OSM   C11S10687   0.819   5.251   8.688  0.3322  0.6235 -0.3146
  105OSM   H11S10688   0.773   5.334   8.744 -1.7958  0.2834 -1.4590
  105OSM   H11T10689   0.741   5.175   8.667  0.1628  0.9501 -0.8929
  105OSM   C12S10690   0.881   5.294   8.552 -0.3868  0.0494  0.7713
  105OSM   H12S10691   0.938   5.214   8.499 -0.4157  1.5909 -1.7288
  105OSM   H12T10692   0.963   5.367   8.568 -0.5841  0.1671  1.2968
  105OSM   C13S10693   0.767   5.362   8.464 -0.1648 -0.5645 -0.5437
  105OSM   H13S10694   0.711   5.436   8.524  0.1022 -1.5267  0.9544
  105OSM   H13T10695   0.699   5.278   8.439 -1.4245 -1.1088  3.8632
  105OSM   C14S10696   0.818   5.431   8.339 -0.2649  0.2047 -0.1051
  105OSM   H14S10697   0.912   5.485   8.364  0.0145 -0.9285  1.4263
  105OSM   H14T10698   0.744   5.504   8.301 -1.3287 -1.3468 -1.1487
  105OSM   C15S10699   0.824   5.328   8.228 -0.6083  0.1123 -0.1203
  105OSM   H15S10700   0.862   5.232   8.269 -0.9081  0.2444  0.4853
  105OSM   H15T10701   0.895   5.359   8.148  0.8544 -2.8122 -0.0575
  105OSM   C16S10702   0.685   5.316   8.168 -0.7322 -0.1507 -0.5869
  105OSM   H16S10703   0.682   5.406   8.103 -0.0580  0.1665 -0.1908
  105OSM   H16T10704   0.608   5.318   8.248  0.2098 -0.1874  0.3384
  105OSM   C17S10705   0.656   5.201   8.068  0.5881 -1.0013  0.5398
  105OSM   H17S10706   0.573   5.237   8.003 -0.0897 -1.5917  1.0513
  105OSM   H17T10707   0.609   5.119   8.126 -2.0750 -1.6171 -2.1906
  105OSM   C18S10708   0.779   5.156   7.981 -0.9546  0.4488 -0.8247
  105OSM   H18S10709   0.806   5.233   7.906 -0.0161  0.1419 -0.8089
  105OSM   H18T10710   0.752   5.071   7.914  0.6757  0.0545 -1.0086
  105OSM   H18U10711   0.868   5.153   8.046 -0.2020  0.8658 -1.8171
  105OSM    C1F10712   0.772   4.848   9.493  0.5210 -0.5596  0.4431
  105OSM     OF10713   0.721   4.739   9.494 -0.6816  0.8262  0.0982
  105OSM    C2F10714   0.922   4.875   9.490  1.2193 -0.3909 -0.6960
  105OSM    H2F10715   0.978   4.781   9.506  1.0865 -0.7802 -2.2756
  105OSM    H2G10716   0.960   4.942   9.570 -0.0864 -0.3412 -0.0991
  105OSM    C3F10717   0.985   4.915   9.352 -0.1780  1.2192  0.1060
  105OSM    H3F10718   1.094   4.927   9.368 -0.0719  0.8792 -0.3529
  105OSM    H3G10719   0.951   5.016   9.320  0.9072  1.6781  0.3714
  105OSM    C4F10720   0.963   4.806   9.246  0.2121 -0.1105 -0.0922
  105OSM    H4F10721   0.860   4.765   9.250 -0.4394  1.5167  0.4357
  105OSM    H4G10722   1.036   4.727   9.274  3.2342  2.1708 -1.0000
  105OSM    C5F10723   1.003   4.838   9.101 -0.5676  0.0931  0.8461
  105OSM    H5F10724   1.102   4.888   9.095 -1.0811  1.0756  0.2382
  105OSM    H5G10725   0.940   4.918   9.056  0.1403  0.8369  1.1485
  105OSM    C6F10726   1.008   4.711   9.015  0.2268  0.0212 -0.5182
  105OSM    H6F10727   0.916   4.650   9.008 -0.1431  0.4898  0.1904
  105OSM    H6G10728   1.071   4.638   9.070 -0.5397  1.6923  2.7982
  105OSM    C7F10729   1.061   4.735   8.876  0.8875  0.0092  0.2200
  105OSM    H7F10730   1.155   4.792   8.893  1.8422 -2.1599  2.9234
  105OSM    H7G10731   0.990   4.794   8.813  1.4605  1.4433  0.8570
  105OSM    C8F10732   1.101   4.606   8.800  0.0182  0.6619  0.9448
  105OSM    H8F10733   1.132   4.527   8.872  3.5257 -0.5185 -1.5999
  105OSM    H8G10734   1.191   4.612   8.735  0.6301 -0.1279  1.6977
  105OSM    C9F10735   0.986   4.552   8.714 -0.1257 -0.2593 -0.1411
  105OSM    H9F10736   0.885   4.544   8.757  0.1253  0.5418  0.6286
  105OSM   C10F10737   0.989   4.515   8.586  0.6245 -0.0633  0.6706
  105OSM   H10F10738   0.892   4.478   8.551  0.7023  0.6483 -0.3560
  105OSM   C11F10739   1.108   4.511   8.486 -0.8525 -0.2061  0.6166
  105OSM   H11F10740   1.192   4.544   8.550 -2.6276  1.3851  2.2610
  105OSM   H11G10741   1.088   4.594   8.414  0.1716 -0.9707 -0.5837
  105OSM   C12F10742   1.131   4.379   8.416 -0.1618  0.7952 -0.0925
  105OSM   H12F10743   1.033   4.356   8.370 -0.5843 -3.5248  2.3935
  105OSM   H12G10744   1.158   4.297   8.486 -2.9353 -1.5111 -1.5115
  105OSM   C13F10745   1.239   4.405   8.305 -0.7585  0.6108 -0.1254
  105OSM   H13F10746   1.337   4.404   8.357 -1.2507 -1.0863  0.8604
  105OSM   H13G10747   1.219   4.508   8.267  2.3159  1.2189 -0.3682
  105OSM   C14F10748   1.240   4.305   8.187  0.0286 -0.0733  0.1756
  105OSM   H14F10749   1.139   4.290   8.143 -0.0071 -0.0079  0.2355
  105OSM   H14G10750   1.263   4.208   8.236  1.5475  1.7976  3.4598
  105OSM   C15F10751   1.360   4.335   8.095  0.6928  0.0873  0.1456
  105OSM   H15F10752   1.453   4.332   8.155  0.5926 -1.5610  0.2420
  105OSM   H15G10753   1.348   4.431   8.039 -0.0471 -0.7464 -1.1823
  105OSM   C16F10754   1.363   4.243   7.972 -0.3519 -0.0957 -0.6615
  105OSM   H16F10755   1.269   4.260   7.915 -1.0243  0.9827  0.7142
  105OSM   H16G10756   1.371   4.138   8.007  0.0590 -0.2976 -1.3261
  105OSM   C17F10757   1.488   4.265   7.880  0.3103 -0.2795  0.0110
  105OSM   H17F10758   1.576   4.226   7.936  1.5859  1.9685 -0.3409
  105OSM   H17G10759   1.497   4.374   7.863 -0.4239 -0.2094  0.0523
  105OSM   C18F10760   1.481   4.196   7.748  0.3310 -0.3773  0.6399
  105OSM   H18F10761   1.574   4.196   7.687 -0.9733  0.1600 -1.4622
  105OSM   H18G10762   1.399   4.247   7.694 -0.9866 -1.8770  1.1264
  105OSM   H18H10763   1.457   4.090   7.772  0.0998  0.0709  2.5014
  106OSM      N10764   0.840   2.656   9.858  0.2902 -0.3955  0.0335
  106OSM    C1510765   0.806   2.577   9.980  0.2379 -0.0911  0.3289
  106OSM   H15A10766   0.879   2.499   9.996  1.6335  1.3610  1.3671
  106OSM   H15B10767   0.710   2.530   9.968 -0.0651  0.7187 -0.5514
  106OSM   H15C10768   0.813   2.642  10.066 -3.6771  1.3877 -0.2204
  106OSM    C1410769   0.966   2.729   9.879 -0.3718 -0.1986  0.3120
  106OSM   H14A10770   0.999   2.790   9.796  2.2784 -2.3462 -0.3636
  106OSM   H14B10771   1.044   2.667   9.920 -0.9849 -1.3014 -0.1621
  106OSM   H14C10772   0.940   2.798   9.958  2.0024 -0.7503  1.6891
  106OSM    C1310773   0.856   2.568   9.737  0.2340  0.0512  0.1643
  106OSM   H13A10774   0.937   2.499   9.755 -0.1581 -0.3853  0.2840
  106OSM   H13B10775   0.877   2.621   9.646 -2.7630  2.2109  0.6029
  106OSM   H13C10776   0.764   2.519   9.710  0.6070 -0.0573 -0.9493
  106OSM    C1210777   0.725   2.755   9.830 -0.5758 -0.3564  0.0071
  106OSM   H12A10778   0.703   2.814   9.917  0.7114  1.9179 -1.1142
  106OSM   H12B10779   0.637   2.694   9.818 -0.2468 -2.1500  4.5246
  106OSM    C1110780   0.742   2.844   9.709 -0.5383 -0.5931  0.4151
  106OSM   H11A10781   0.647   2.892   9.676  1.2223  2.0308 -1.2075
  106OSM   H11B10782   0.769   2.784   9.619  0.6361 -0.4824  0.6784
  106OSM      P10783   0.822   3.069   9.816  0.9081 -0.0202 -0.0420
  106OSM    O1310784   0.754   3.031   9.944  0.0624  0.6581 -0.3597
  106OSM    O1410785   0.956   3.131   9.826  0.0998 -0.1596 -0.8131
  106OSM    O1110786   0.725   3.158   9.730 -0.1282  0.0438  0.4445
  106OSM    O1210787   0.839   2.940   9.722 -0.0399 -0.1381  0.4820
  106OSM    C1S10788   0.787   3.271   9.657 -0.4133 -0.6789 -1.0728
  106OSM    H1S10789   0.840   3.239   9.565 -0.4614 -0.8510 -1.0404
  106OSM    H1T10790   0.864   3.310   9.728 -0.2104 -2.7298 -0.0834
  106OSM     NF10791   0.758   3.492   9.530  0.3844  0.1943 -0.2548
  106OSM    HNF10792   0.780   3.577   9.576  2.4326 -1.3268  1.8157
  106OSM    C2S10793   0.686   3.384   9.603  0.0367  0.1640 -0.0466
  106OSM    H2S10794   0.614   3.333   9.536 -0.5233  0.1928  0.5278
  106OSM    C3S10795   0.601   3.438   9.723 -1.0080  0.4138  0.3800
  106OSM    H3S10796   0.677   3.487   9.787  0.9478 -1.1882 -0.6081
  106OSM     O310797   0.535   3.335   9.806 -0.7386  0.9326  0.4789
  106OSM    HO310798   0.578   3.252   9.787  0.9712  2.1306 -1.4066
  106OSM    C4S10799   0.503   3.548   9.683  0.5072  0.4320 -0.6605
  106OSM    H4S10800   0.556   3.643   9.667  1.5063 -0.0703 -0.3808
  106OSM    C5S10801   0.367   3.547   9.670 -0.1370 -0.5177 -0.5909
  106OSM    H5S10802   0.316   3.450   9.678  0.3601 -0.9136 -1.8715
  106OSM    C6S10803   0.281   3.658   9.618 -0.0693  0.0726 -1.0213
  106OSM    H6S10804   0.202   3.698   9.685 -1.9086 -2.5249 -1.4654
  106OSM    H6T10805   0.225   3.602   9.540 -0.1092  0.5294 -1.3245
  106OSM    C7S10806   0.357   3.773   9.545  0.3874 -0.4266  0.8697
  106OSM    H7S10807   0.439   3.734   9.480  1.6393  1.3343  1.3309
  106OSM    H7T10808   0.413   3.846   9.607  0.0550 -0.5843  1.3618
  106OSM    C8S10809   0.260   3.846   9.445  0.4831 -0.0287  0.0879
  106OSM    H8S10810   0.186   3.911   9.496  0.4145  0.4229 -0.5698
  106OSM    H8T10811   0.200   3.763   9.402 -0.6862  1.0735 -0.4819
  106OSM    C9S10812   0.332   3.935   9.342  0.0118  0.3279  1.2834
  106OSM    H9S10813   0.388   4.020   9.387 -0.1489  1.5090 -0.6206
  106OSM    H9T10814   0.252   3.975   9.275  1.9052  1.2680 -0.5462
  106OSM   C10S10815   0.416   3.851   9.245  0.2445  0.5151 -0.0245
  106OSM   H10S10816   0.371   3.751   9.228  0.4790  0.4933 -0.5262
  106OSM   H10T10817   0.517   3.838   9.290  0.9981  0.6024 -1.6384
  106OSM   C11S10818   0.420   3.913   9.103  0.4139 -0.8334 -0.0169
  106OSM   H11S10819   0.465   4.014   9.093  1.3343 -1.4066 -2.3969
  106OSM   H11T10820   0.315   3.927   9.068  1.1274 -0.4550 -2.1293
  106OSM   C12S10821   0.506   3.835   8.999  0.5054 -0.2497  0.0808
  106OSM   H12S10822   0.455   3.739   8.977  1.8358 -0.5128 -2.1149
  106OSM   H12T10823   0.600   3.799   9.046 -0.9078 -2.5704  1.2936
  106OSM   C13S10824   0.534   3.890   8.862 -0.1843 -0.0007  0.1755
  106OSM   H13S10825   0.446   3.914   8.799  1.3878  0.4094 -1.9762
  106OSM   H13T10826   0.596   3.810   8.816  0.2774 -1.8339  3.6007
  106OSM   C14S10827   0.626   4.016   8.859 -0.3060  0.0348  0.6589
  106OSM   H14S10828   0.732   3.982   8.863 -0.5931 -0.8885  0.6295
  106OSM   H14T10829   0.601   4.088   8.939 -1.9392 -2.3650  2.4580
  106OSM   C15S10830   0.608   4.101   8.731 -0.7721 -0.3214  0.0749
  106OSM   H15S10831   0.683   4.183   8.738 -0.6030  0.0254 -3.6955
  106OSM   H15T10832   0.507   4.146   8.730 -0.1841  1.1684 -2.3665
  106OSM   C16S10833   0.639   4.036   8.590 -0.2212  0.3666 -0.1010
  106OSM   H16S10834   0.551   3.973   8.563  0.3741 -1.2775  1.5891
  106OSM   H16T10835   0.734   3.979   8.581 -0.9064 -1.1055  1.4561
  106OSM   C17S10836   0.643   4.144   8.482 -0.4704 -0.0988  1.0913
  106OSM   H17S10837   0.553   4.207   8.499 -0.0247  0.5049  1.2146
  106OSM   H17T10838   0.632   4.085   8.388  1.2430  0.2313  0.6502
  106OSM   C18S10839   0.761   4.236   8.465  0.4899  0.5055  0.9150
  106OSM   H18S10840   0.853   4.180   8.436  0.7412  0.5363  1.6314
  106OSM   H18T10841   0.783   4.288   8.561 -0.3814  3.1967 -0.2395
  106OSM   H18U10842   0.739   4.309   8.383  1.5184 -0.5480 -0.3399
  106OSM    C1F10843   0.797   3.462   9.407 -0.8652  0.6099 -0.0860
  106OSM     OF10844   0.790   3.345   9.362  0.0951  0.0512 -0.8328
  106OSM    C2F10845   0.858   3.575   9.326  0.3741 -0.0315  0.0860
  106OSM    H2F10846   0.947   3.614   9.380  0.1891 -0.7698  0.9445
  106OSM    H2G10847   0.781   3.655   9.324 -0.7979 -1.0943  1.1861
  106OSM    C3F10848   0.908   3.540   9.185  0.1073  0.1955  0.5113
  106OSM    H3F10849   0.829   3.542   9.107 -0.4967  3.5617  1.0643
  106OSM    H3G10850   0.943   3.435   9.182  2.1390  0.8356 -0.9006
  106OSM    C4F10851   1.034   3.621   9.148 -0.1850 -0.4871  0.3075
  106OSM    H4F10852   1.123   3.573   9.194  1.9109 -1.6874 -4.3971
  106OSM    H4G10853   1.034   3.723   9.193 -1.5945 -0.3127 -0.0555
  106OSM    C5F10854   1.054   3.646   8.999 -0.3729  0.7441 -0.7640
  106OSM    H5F10855   1.140   3.716   8.989  0.5043 -0.3116 -0.8338
  106OSM    H5G10856   0.960   3.693   8.964 -0.8568  1.0555  0.8907
  106OSM    C6F10857   1.080   3.508   8.926  0.7194 -0.6547  0.0733
  106OSM    H6F10858   0.996   3.437   8.919  2.2420 -2.4688 -0.7590
  106OSM    H6G10859   1.164   3.461   8.982  0.9887 -0.9131 -0.5380
  106OSM    C7F10860   1.124   3.529   8.783  0.0361 -0.1985  0.3922
  106OSM    H7F10861   1.208   3.602   8.781 -0.7558  0.7486 -2.1869
  106OSM    H7G10862   1.042   3.573   8.724 -0.0940  0.4410  1.0349
  106OSM    C8F10863   1.147   3.391   8.722  0.5377  0.5446  0.9321
  106OSM    H8F10864   1.052   3.338   8.702  1.8003 -1.0567 -1.2220
  106OSM    H8G10865   1.194   3.319   8.793 -3.4352 -0.8409  2.4159
  106OSM    C9F10866   1.216   3.413   8.591  0.1186 -0.0837 -0.4249
  106OSM    H9F10867   1.223   3.520   8.563  2.2963  0.3376  1.4215
  106OSM   C10F10868   1.267   3.327   8.504  0.1184 -0.1808 -0.2573
  106OSM   H10F10869   1.318   3.358   8.411  2.3786  0.6222  1.1474
  106OSM   C11F10870   1.263   3.173   8.525  0.0122 -0.7605  0.2409
  106OSM   H11F10871   1.160   3.140   8.499 -0.7712  1.6724 -0.0250
  106OSM   H11G10872   1.285   3.148   8.631 -1.8861  1.0434  1.1301
  106OSM   C12F10873   1.364   3.099   8.442  0.8079  0.3899  0.3398
  106OSM   H12F10874   1.460   3.155   8.449  0.1696  1.3417  1.7659
  106OSM   H12G10875   1.329   3.098   8.337  1.2364  0.3379  0.1930
  106OSM   C13F10876   1.391   2.951   8.483 -0.0658 -0.5206  0.2781
  106OSM   H13F10877   1.315   2.885   8.436 -0.2027  0.1286 -0.4233
  106OSM   H13G10878   1.367   2.948   8.591  1.7592  2.2073  0.8529
  106OSM   C14F10879   1.532   2.910   8.447  0.0056 -0.0426 -0.1760
  106OSM   H14F10880   1.601   2.982   8.497  1.7249 -1.6259 -0.1306
  106OSM   H14G10881   1.549   2.937   8.340  2.5077  1.0929  0.4129
  106OSM   C15F10882   1.571   2.765   8.473 -0.2668  0.1949 -0.6654
  106OSM   H15F10883   1.503   2.687   8.432 -0.6480  0.5075 -0.6423
  106OSM   H15G10884   1.566   2.739   8.581  2.1418 -2.0653 -1.0016
  106OSM   C16F10885   1.719   2.739   8.433  0.4081  0.3285 -0.2822
  106OSM   H16F10886   1.788   2.814   8.478  2.0956 -2.2756  1.8096
  106OSM   H16G10887   1.722   2.753   8.323 -0.9997 -0.8528 -0.4916
  106OSM   C17F10888   1.762   2.598   8.465  0.4504 -0.1828  0.0074
  106OSM   H17F10889   1.712   2.526   8.397 -1.3356  0.8153  0.2044
  106OSM   H17G10890   1.739   2.571   8.570 -2.1477 -2.9858 -1.1457
  106OSM   C18F10891   1.910   2.592   8.471  0.3413  0.0119  0.6240
  106OSM   H18F10892   1.938   2.667   8.549  1.2468  1.0651 -0.6782
  106OSM   H18G10893   1.955   2.616   8.372 -1.3292  0.7285  0.0021
  106OSM   H18H10894   1.934   2.489   8.504  0.6073 -0.7129 -1.6619
  107OSM      N10895   2.586   0.635  10.277  0.0602 -0.0553  0.7475
  107OSM    C1510896   2.691   0.577  10.197  0.0097  0.2849  0.4135
  107OSM   H15A10897   2.778   0.639  10.183 -1.9213  2.5174 -3.1374
  107OSM   H15B10898   2.650   0.553  10.101 -1.5389 -0.5225  1.2328
  107OSM   H15C10899   2.724   0.484  10.241  1.4613  0.1994 -0.8074
  107OSM    C1410900   2.642   0.659  10.410  0.3266 -0.1574  0.1311
  107OSM   H14A10901   2.571   0.717  10.468  0.0088 -0.2403 -0.1725
  107OSM   H14B10902   2.735   0.712  10.402  1.6477 -2.2926  0.4130
  107OSM   H14C10903   2.654   0.561  10.456  0.1949 -0.1080  0.2724
  107OSM    C1310904   2.535   0.763  10.221  0.0556  0.7121  0.3527
  107OSM   H13A10905   2.503   0.758  10.118  3.2521  1.5297 -0.8127
  107OSM   H13B10906   2.608   0.843  10.221 -0.3722  1.1036  0.2104
  107OSM   H13C10907   2.460   0.802  10.288 -0.9757 -1.2897  0.4421
  107OSM    C1210908   2.467   0.546  10.292 -0.4304 -0.4715 -0.5411
  107OSM   H12A10909   2.397   0.610  10.343 -0.3929  1.5118 -2.8034
  107OSM   H12B10910   2.479   0.460  10.356 -1.4742  0.4771  0.9919
  107OSM    C1110911   2.410   0.488  10.158 -0.5200  0.0911  0.2469
  107OSM   H11A10912   2.391   0.582  10.102 -0.0793  0.9043  1.4134
  107OSM   H11B10913   2.313   0.438  10.181 -0.4735 -0.0818  0.0673
  107OSM      P10914   2.555   0.271  10.165  0.4477 -0.1383  0.0217
  107OSM    O1310915   2.703   0.268  10.159  0.2722  0.0187 -0.0253
  107OSM    O1410916   2.496   0.265  10.300  0.4212 -0.1873  0.5512
  107OSM    O1110917   2.490   0.160  10.071  0.7732  0.3702 -0.9497
  107OSM    O1210918   2.502   0.400  10.089 -0.1319  0.0259  0.2545
  107OSM    C1S10919   2.545   0.136   9.945 -0.1589  0.5655  0.2563
  107OSM    H1S10920   2.623   0.057   9.947 -0.7827 -0.1053 -1.0009
  107OSM    H1T10921   2.587   0.226   9.894 -1.9109  1.1708 -0.1966
  107OSM     NF10922   2.480   0.031   9.723  0.4113 -0.7059 -0.4485
  107OSM    HNF10923   2.484   0.099   9.650  2.9676  0.2079  0.4419
  107OSM    C2S10924   2.426   0.091   9.843 -0.1247  0.4205  0.0015
  107OSM    H2S10925   2.361   0.012   9.887  1.3061 -1.0657 -0.4562
  107OSM    C3S10926   2.333   0.212   9.818  0.3353  0.5197 -0.1407
  107OSM    H3S10927   2.409   0.289   9.795 -1.0026  2.1670  0.7139
  107OSM     O310928   2.263   0.252   9.929 -0.0903 -0.5472  0.2919
  107OSM    HO310929   2.317   0.228  10.005 -1.6926  0.2954  1.7793
  107OSM    C4S10930   2.251   0.194   9.696  0.1788  0.0524 -0.6207
  107OSM    H4S10931   2.181   0.109   9.704 -1.3771  1.3667  0.2407
  107OSM    C5S10932   2.258   0.272   9.587 -0.1562  1.3867 -0.0901
  107OSM    H5S10933   2.337   0.348   9.580  0.7560  0.3110 -2.6928
  107OSM    C6S10934   2.182   0.256   9.460  0.3087  0.1448  0.1979
  107OSM    H6S10935   2.106   0.334   9.439  2.1019  1.4609 -1.7888
  107OSM    H6T10936   2.132   0.157   9.459  0.7460 -0.0778 -0.0086
  107OSM    C7S10937   2.274   0.271   9.336  0.2168  0.2158  0.5465
  107OSM    H7S10938   2.358   0.197   9.339 -0.0379 -0.1354 -0.4167
  107OSM    H7T10939   2.309   0.376   9.342 -0.2496  0.4488 -0.5690
  107OSM    C8S10940   2.188   0.282   9.200  0.0394  1.1987 -0.2013
  107OSM    H8S10941   2.095   0.340   9.217  0.3013  1.4390  0.4308
  107OSM    H8T10942   2.168   0.182   9.157  0.5736  1.6640 -1.5910
  107OSM    C9S10943   2.267   0.348   9.092 -0.4996 -0.0212  0.2110
  107OSM    H9S10944   2.357   0.284   9.080  1.7993  2.8495  1.0375
  107OSM    H9T10945   2.296   0.451   9.122  2.2287 -1.0895  1.5603
  107OSM   C10S10946   2.186   0.356   8.961  0.5721  0.2518 -0.0650
  107OSM   H10S10947   2.091   0.409   8.981 -1.3549 -3.3889  1.4525
  107OSM   H10T10948   2.151   0.252   8.944  0.8598  0.3973 -1.6378
  107OSM   C11S10949   2.269   0.414   8.838 -0.3452 -0.5951 -0.1273
  107OSM   H11S10950   2.376   0.388   8.849 -0.1619 -0.2106 -0.8935
  107OSM   H11T10951   2.271   0.525   8.841 -0.7698 -0.6001  0.4612
  107OSM   C12S10952   2.217   0.347   8.705 -0.0266  0.4329  0.5219
  107OSM   H12S10953   2.111   0.328   8.729 -0.2177  0.2453 -0.4502
  107OSM   H12T10954   2.280   0.258   8.682 -2.6534 -1.3091 -0.2766
  107OSM   C13S10955   2.216   0.431   8.579  0.7059 -0.4049 -0.5822
  107OSM   H13S10956   2.324   0.450   8.564  0.5384  0.0225 -1.3135
  107OSM   H13T10957   2.158   0.524   8.596  0.4663 -0.2708 -2.0274
  107OSM   C14S10958   2.151   0.360   8.459  0.3746 -0.5412  0.1866
  107OSM   H14S10959   2.043   0.349   8.482  0.1421  1.1499  0.0376
  107OSM   H14T10960   2.196   0.259   8.445 -2.4701 -1.9925  0.6539
  107OSM   C15S10961   2.172   0.431   8.317 -0.9378  0.3248 -0.0890
  107OSM   H15S10962   2.276   0.401   8.289 -1.6391 -4.3547  1.4002
  107OSM   H15T10963   2.158   0.540   8.330  1.6686  1.0091 -2.1376
  107OSM   C16S10964   2.072   0.373   8.203  0.0679 -0.0797  0.0474
  107OSM   H16S10965   1.967   0.371   8.241 -0.0463 -0.2796 -0.2741
  107OSM   H16T10966   2.106   0.272   8.172  1.8744  0.7131 -0.6681
  107OSM   C17S10967   2.066   0.461   8.084 -0.3054  0.2438 -0.5700
  107OSM   H17S10968   1.999   0.425   8.003 -0.2294  0.1887 -0.6085
  107OSM   H17T10969   2.167   0.468   8.039  0.6345 -1.9627  1.0169
  107OSM   C18S10970   2.012   0.600   8.126  0.2984  0.0782 -0.0099
  107OSM   H18S10971   2.090   0.656   8.182  2.1427 -1.6162 -0.7651
  107OSM   H18T10972   1.922   0.582   8.188 -0.8819  0.2141 -1.6374
  107OSM   H18U10973   1.982   0.657   8.036  0.8086 -2.7841 -2.1170
  107OSM    C1F10974   2.546  -0.087   9.710 -0.0691 -0.1769 -0.3395
  107OSM     OF10975   2.533  -0.175   9.796  0.0267  0.0596  0.8164
  107OSM    C2F10976   2.627  -0.103   9.584 -0.2819 -0.2847  0.9651
  107OSM    H2F10977   2.575  -0.180   9.523 -1.3214  0.0283  1.4383
  107OSM    H2G10978   2.728  -0.148   9.596  1.1271  2.1270 -0.8749
  107OSM    C3F10979   2.652   0.031   9.517 -0.1599 -0.0623  0.2568
  107OSM    H3F10980   2.706   0.103   9.582 -2.6446  1.5065  0.7210
  107OSM    H3G10981   2.571   0.107   9.509  3.5170  4.4886  1.5589
  107OSM    C4F10982   2.721   0.018   9.381 -0.5524  0.0425 -1.0778
  107OSM    H4F10983   2.782  -0.074   9.380 -2.0929 -1.0534 -3.6411
  107OSM    H4G10984   2.782   0.107   9.353  0.5607 -0.2306  0.3597
  107OSM    C5F10985   2.628  -0.009   9.263 -0.0528  0.5451 -0.4831
  107OSM    H5F10986   2.537   0.051   9.280 -0.3122 -0.1148  0.5359
  107OSM    H5G10987   2.603  -0.117   9.277  0.4098  0.5347  0.3478
  107OSM    C6F10988   2.689   0.021   9.116  0.2305 -0.5931  0.1251
  107OSM    H6F10989   2.767  -0.057   9.102  1.8279  0.9464 -0.0003
  107OSM    H6G10990   2.728   0.125   9.121 -0.8721 -0.2248  1.8913
  107OSM    C7F10991   2.591   0.005   8.998 -0.2453 -0.8935  0.1226
  107OSM    H7F10992   2.511   0.072   9.035  1.2331  1.5150 -0.7335
  107OSM    H7G10993   2.560  -0.100   8.983  0.1795 -0.8686 -1.1129
  107OSM    C8F10994   2.647   0.073   8.872  0.0043 -0.1918 -0.3117
  107OSM    H8F10995   2.721  -0.001   8.835  0.4551  0.3245 -0.4565
  107OSM    H8G10996   2.701   0.162   8.911 -0.3492  0.2228 -0.7669
  107OSM    C9F10997   2.551   0.120   8.774 -0.5825  0.5388  0.2536
  107OSM    H9F10998   2.466   0.179   8.812 -1.0714  1.5728 -2.2769
  107OSM   C10F10999   2.547   0.096   8.643 -0.2067  0.6871  0.0650
  107OSM   H10F11000   2.453   0.107   8.588  0.7842 -1.3750 -2.2102
  107OSM   C11F11001   2.658   0.047   8.556 -0.4719 -0.6894 -0.7715
  107OSM   H11F11002   2.622   0.011   8.458  2.1871 -1.2395 -1.6500
  107OSM   H11G11003   2.731  -0.019   8.608  2.2761  2.8709  0.3559
  107OSM   C12F11004   2.754   0.166   8.535  0.6665  0.1512  0.3032
  107OSM   H12F11005   2.840   0.130   8.473 -1.3543  0.6016 -3.0342
  107OSM   H12G11006   2.789   0.192   8.637 -0.2742  1.4948  0.3125
  107OSM   C13F11007   2.693   0.290   8.469  0.0381  0.7634 -0.8557
  107OSM   H13F11008   2.758   0.375   8.498  1.2622 -0.6651  0.8251
  107OSM   H13G11009   2.585   0.304   8.492  0.1354 -1.2635  1.1762
  107OSM   C14F11010   2.709   0.290   8.315  1.7812  0.5774 -0.6129
  107OSM   H14F11011   2.655   0.198   8.287  0.9715  0.9772 -0.4062
  107OSM   H14G11012   2.814   0.276   8.282  2.1623  0.0352  0.7634
  107OSM   C15F11013   2.637   0.409   8.247 -0.2744 -0.8730 -0.1492
  107OSM   H15F11014   2.675   0.505   8.289  1.2116 -0.4814 -2.2434
  107OSM   H15G11015   2.526   0.397   8.251 -0.8290  2.3924 -1.7234
  107OSM   C16F11016   2.684   0.421   8.098  0.0353 -1.0587  0.7555
  107OSM   H16F11017   2.793   0.435   8.084 -0.0586  1.0215  1.6577
  107OSM   H16G11018   2.637   0.512   8.056  2.3038  0.4053  1.2116
  107OSM   C17F11019   2.639   0.295   8.022 -0.0196 -0.3239  0.4465
  107OSM   H17F11020   2.542   0.268   8.068  0.2412  1.5415  2.2500
  107OSM   H17G11021   2.715   0.216   8.043 -1.8094 -2.3691 -0.4360
  107OSM   C18F11022   2.613   0.303   7.866 -0.6388  0.5748  0.0970
  107OSM   H18F11023   2.538   0.382   7.844 -0.0656  1.2286  0.4611
  107OSM   H18G11024   2.582   0.202   7.830  1.5818 -0.3623  0.6554
  107OSM   H18H11025   2.711   0.320   7.816 -0.8757 -0.3250 -0.7111
  108OSM      N11026   0.777   1.441   9.901 -0.9130  0.4690  0.1860
  108OSM    C1511027   0.775   1.302   9.844  0.0661  0.3211  0.1219
  108OSM   H15A11028   0.841   1.293   9.759  0.5139 -3.2944  0.7209
  108OSM   H15B11029   0.678   1.276   9.804  0.4560  2.0016 -2.1225
  108OSM   H15C11030   0.804   1.222   9.910  1.0320 -0.8099 -1.6165
  108OSM    C1411031   0.702   1.451  10.027  1.3167  1.0812 -0.6536
  108OSM   H14A11032   0.596   1.441  10.006  0.8159 -0.7072  2.1108
  108OSM   H14B11033   0.709   1.554  10.061 -1.9218  0.8337  1.1516
  108OSM   H14C11034   0.727   1.387  10.111 -2.1986  1.6083  0.9756
  108OSM    C1311035   0.922   1.482   9.939  0.5144  0.5294  0.2607
  108OSM   H13A11036   0.987   1.450   9.859 -2.0634 -0.8225 -1.4349
  108OSM   H13B11037   0.961   1.443  10.032  1.1600  2.3916  0.8137
  108OSM   H13C11038   0.926   1.589   9.950  2.2198  0.4669  0.6138
  108OSM    C1211039   0.726   1.548   9.802 -0.1729  0.5486  0.3621
  108OSM   H12A11040   0.632   1.517   9.759  0.1552  0.0012  0.0302
  108OSM   H12B11041   0.804   1.529   9.730 -0.5166 -0.2494  0.1793
  108OSM    C1111042   0.682   1.692   9.843  0.2058 -0.0542  0.4529
  108OSM   H11A11043   0.607   1.677   9.924  1.4889  0.9044  1.8648
  108OSM   H11B11044   0.632   1.747   9.760  0.4466 -1.5530 -0.7465
  108OSM      P11045   0.867   1.871   9.818 -0.1139  0.1642 -0.2816
  108OSM    O1311046   0.941   1.951   9.920 -0.6756  0.6922  0.8716
  108OSM    O1411047   0.937   1.809   9.703  0.1733  0.2996  0.4023
  108OSM    O1111048   0.748   1.957   9.760  0.0590  0.3016  0.4374
  108OSM    O1211049   0.782   1.771   9.907 -0.0757  0.2697  0.4423
  108OSM    C1S11050   0.778   2.076   9.694  0.3113 -0.2314 -0.3702
  108OSM    H1S11051   0.875   2.120   9.723 -0.5859  0.1450  2.3793
  108OSM    H1T11052   0.703   2.153   9.723 -1.4471 -1.7025 -0.7667
  108OSM     NF11053   0.852   2.181   9.505  0.0146 -0.5044  0.5045
  108OSM    HNF11054   0.811   2.263   9.466  1.2074 -0.1428 -0.0172
  108OSM    C2S11055   0.776   2.065   9.540 -0.0310 -0.1437 -0.6057
  108OSM    H2S11056   0.827   1.970   9.516  1.0999 -0.4419  2.5453
  108OSM    C3S11057   0.625   2.061   9.489  0.1055  0.0007 -0.4365
  108OSM    H3S11058   0.575   2.159   9.505 -1.3939 -0.6588 -0.9324
  108OSM     O311059   0.551   1.979   9.577  0.4948 -0.2188 -0.0717
  108OSM    HO311060   0.616   1.950   9.642 -1.0201  0.9434  2.0840
  108OSM    C4S11061   0.598   2.021   9.348  0.0265 -0.3108  0.6022
  108OSM    H4S11062   0.601   1.914   9.324  1.4059  0.1161 -1.3174
  108OSM    C5S11063   0.542   2.109   9.262 -0.4532  0.2158 -0.1445
  108OSM    H5S11064   0.523   2.204   9.314 -1.8303 -0.4917  0.7176
  108OSM    C6S11065   0.505   2.081   9.120 -0.1275 -0.3590 -0.2981
  108OSM    H6S11066   0.449   1.985   9.114 -0.8308  0.0823 -0.8695
  108OSM    H6T11067   0.601   2.060   9.067  0.5987  2.1343 -0.0732
  108OSM    C7S11068   0.435   2.188   9.033 -0.1149  0.5995 -0.4491
  108OSM    H7S11069   0.502   2.277   9.026  0.4617  0.1313 -0.9994
  108OSM    H7T11070   0.343   2.231   9.076 -0.9375  0.5841 -2.1006
  108OSM    C8S11071   0.404   2.132   8.898  0.8741  0.2963  0.0671
  108OSM    H8S11072   0.337   2.044   8.906  1.3339 -0.0648 -0.0700
  108OSM    H8T11073   0.493   2.085   8.851  0.1912 -2.7278  1.5445
  108OSM    C9S11074   0.320   2.233   8.814  0.6569  0.5304 -0.4722
  108OSM    H9S11075   0.379   2.326   8.798  0.0890  0.6781 -1.9190
  108OSM    H9T11076   0.230   2.247   8.877  0.7805 -1.9594  0.3640
  108OSM   C10S11077   0.282   2.173   8.685  0.3092 -0.2380 -0.2919
  108OSM   H10S11078   0.185   2.124   8.706  0.9878 -0.9051  1.5858
  108OSM   H10T11079   0.349   2.087   8.662  1.0458  0.1396  0.3698
  108OSM   C11S11080   0.288   2.254   8.558 -0.2726  0.4614 -0.6832
  108OSM   H11S11081   0.389   2.245   8.512 -0.8215 -2.4313 -1.5641
  108OSM   H11T11082   0.261   2.360   8.578 -0.5342  0.2218  0.2652
  108OSM   C12S11083   0.196   2.197   8.447 -0.8328 -0.2766  0.1189
  108OSM   H12S11084   0.090   2.196   8.482 -0.8518  0.8544  0.1424
  108OSM   H12T11085   0.223   2.095   8.412 -2.6248 -0.8160  0.1788
  108OSM   C13S11086   0.194   2.292   8.324  0.5243 -0.2643  0.3868
  108OSM   H13S11087   0.290   2.293   8.267  0.9482  0.6973  1.0775
  108OSM   H13T11088   0.183   2.399   8.353  0.8413 -0.2020  0.2859
  108OSM   C14S11089   0.089   2.270   8.212  0.3357 -0.3117  0.5505
  108OSM   H14S11090  -0.011   2.288   8.257  1.0762  0.0374  2.1122
  108OSM   H14T11091   0.082   2.164   8.180  0.0763  0.2180 -1.2619
  108OSM   C15S11092   0.108   2.357   8.086 -0.2560 -0.5827  0.1252
  108OSM   H15S11093   0.199   2.319   8.033 -0.3868  0.2884 -0.7456
  108OSM   H15T11094   0.135   2.462   8.110  2.3133 -0.5574 -2.2904
  108OSM   C16S11095  -0.018   2.358   8.003  0.6698  0.4241 -0.0901
  108OSM   H16S11096  -0.007   2.420   7.911  0.7113 -1.1959 -1.2133
  108OSM   H16T11097  -0.096   2.424   8.046  0.2713  0.1601 -0.4006
  108OSM   C17S11098  -0.068   2.225   7.957  0.3034 -0.4930 -0.3573
  108OSM   H17S11099  -0.101   2.167   8.046 -1.2603 -1.3058 -1.4195
  108OSM   H17T11100   0.018   2.169   7.914 -0.5518 -0.3386 -2.3912
  108OSM   C18S11101  -0.188   2.232   7.869 -0.3384  0.0345  0.2546
  108OSM   H18S11102  -0.278   2.268   7.925  0.7042  2.2629  0.6143
  108OSM   H18T11103  -0.213   2.128   7.841 -0.3421  0.1109 -0.0296
  108OSM   H18U11104  -0.173   2.301   7.783  3.3776 -1.3747 -0.4087
  108OSM    C1F11105   0.987   2.189   9.507  0.4878 -0.4542  0.1387
  108OSM     OF11106   1.059   2.089   9.532 -0.2384 -0.2242 -0.6233
  108OSM    C2F11107   1.050   2.321   9.474  0.6164 -0.1313  0.5653
  108OSM    H2F11108   1.127   2.350   9.548  3.3310 -0.7469 -1.8457
  108OSM    H2G11109   0.971   2.399   9.476 -0.4558 -1.1491 -0.0575
  108OSM    C3F11110   1.106   2.318   9.327  0.9911  0.1858 -0.6725
  108OSM    H3F11111   1.183   2.240   9.310  1.2229  0.5488 -1.3245
  108OSM    H3G11112   1.156   2.413   9.299 -0.3858  1.3127  0.5231
  108OSM    C4F11113   0.996   2.296   9.224  0.5919  0.1999  1.1834
  108OSM    H4F11114   0.917   2.370   9.249 -1.3594 -0.9324 -1.2065
  108OSM    H4G11115   0.949   2.195   9.234 -0.9529  0.9355  1.6503
  108OSM    C5F11116   1.047   2.315   9.076  0.9671  0.9040 -0.4056
  108OSM    H5F11117   1.151   2.274   9.070  1.3683  1.8335 -0.0408
  108OSM    H5G11118   1.052   2.422   9.049  0.4215  1.0840  0.1885
  108OSM    C6F11119   0.962   2.234   8.976  0.4779  0.2351 -0.2994
  108OSM    H6F11120   0.859   2.274   8.986 -0.0271 -1.0546 -0.1454
  108OSM    H6G11121   0.962   2.126   9.002  1.1352  0.5580  1.1699
  108OSM    C7F11122   1.007   2.246   8.832  0.1939  0.3112  0.2460
  108OSM    H7F11123   1.114   2.217   8.831  0.6765  1.9605  1.0473
  108OSM    H7G11124   1.001   2.352   8.798 -0.2145  0.4850  0.8449
  108OSM    C8F11125   0.933   2.164   8.723  0.2240 -0.2447 -0.3341
  108OSM    H8F11126   0.957   2.057   8.738 -1.6717 -0.5502  0.8157
  108OSM    H8G11127   0.974   2.191   8.623  0.0292  1.0784 -0.0796
  108OSM    C9F11128   0.776   2.167   8.735 -0.4654  0.0563  0.3299
  108OSM    H9F11129   0.725   2.111   8.815  0.8603 -0.9116  0.5389
  108OSM   C10F11130   0.703   2.248   8.656 -0.1224  0.6648  0.1422
  108OSM   H10F11131   0.594   2.240   8.668  0.1218 -1.8890  1.3832
  108OSM   C11F11132   0.744   2.328   8.538 -1.0805 -0.0207  0.1668
  108OSM   H11F11133   0.847   2.368   8.548 -1.0920 -0.1415  0.8056
  108OSM   H11G11134   0.676   2.415   8.532 -2.5338 -1.0345  1.1981
  108OSM   C12F11135   0.744   2.260   8.402  0.1758  1.2197  0.3561
  108OSM   H12F11136   0.812   2.173   8.412 -2.6313 -1.2627 -0.7013
  108OSM   H12G11137   0.785   2.328   8.325 -0.7031  0.6764 -0.6161
  108OSM   C13F11138   0.601   2.210   8.362 -0.0000 -0.1789  0.2621
  108OSM   H13F11139   0.534   2.294   8.332  1.2343  0.4142 -1.0041
  108OSM   H13G11140   0.559   2.149   8.444  2.3299 -0.4139  1.3461
  108OSM   C14F11141   0.599   2.108   8.245 -0.1329  0.1230  0.7326
  108OSM   H14F11142   0.494   2.072   8.240  0.8284 -2.7287 -1.1116
  108OSM   H14G11143   0.665   2.026   8.281  0.7230  1.4249  2.2570
  108OSM   C15F11144   0.636   2.170   8.118  0.2497 -0.0407 -0.5697
  108OSM   H15F11145   0.682   2.268   8.143  1.0070 -0.7623  0.9884
  108OSM   H15G11146   0.553   2.193   8.048  0.2123  0.7925 -0.2649
  108OSM   C16F11147   0.732   2.093   8.033  0.7538  0.2578  1.0890
  108OSM   H16F11148   0.689   2.008   7.976  0.4535  1.6473 -0.8534
  108OSM   H16G11149   0.812   2.036   8.085  0.7485 -1.4957 -0.7040
  108OSM   C17F11150   0.816   2.191   7.945  0.3654 -0.2720 -0.1196
  108OSM   H17F11151   0.909   2.148   7.902 -0.2274 -1.0412 -0.6621
  108OSM   H17G11152   0.845   2.272   8.015 -2.2953  2.4259 -1.8759
  108OSM   C18F11153   0.756   2.244   7.823  0.1110  0.4798  0.4375
  108OSM   H18F11154   0.816   2.320   7.769  0.3743 -0.3121 -0.4012
  108OSM   H18G11155   0.660   2.297   7.841  0.9303  1.5275  1.9207
  108OSM   H18H11156   0.733   2.161   7.753  0.4727  0.5164  0.2725
  109OSM      N11157   5.978   1.663   9.584  0.3441 -0.2119  0.3872
  109OSM    C1511158   5.872   1.758   9.639  0.0583 -0.4468  0.1464
  109OSM   H15A11159   5.905   1.860   9.655 -1.3659  0.1029 -0.2635
  109OSM   H15B11160   5.859   1.716   9.738  1.7009  2.2353  1.6561
  109OSM   H15C11161   5.791   1.754   9.568 -0.2746 -3.6593  0.5681
  109OSM    C1411162   5.928   1.529   9.561  0.3574 -0.2738 -0.5189
  109OSM   H14A11163   5.846   1.520   9.491 -1.2086  1.5308  0.9712
  109OSM   H14B11164   5.895   1.500   9.660  3.5728  3.8666  2.1045
  109OSM   H14C11165   6.003   1.467   9.514  0.2626 -1.1672  0.4754
  109OSM    C1311166   6.029   1.725   9.456 -0.3115 -0.1444  0.3460
  109OSM   H13A11167   6.063   1.643   9.394  3.0803 -1.0762  3.0940
  109OSM   H13B11168   6.101   1.804   9.472 -1.0240  1.0145 -1.7376
  109OSM   H13C11169   5.955   1.775   9.395  0.1719  1.1776  0.8216
  109OSM    C1211170   6.089   1.662   9.694  0.2465  0.0168 -0.1340
  109OSM   H12A11171   6.045   1.631   9.787 -1.9436  1.0759 -0.7573
  109OSM   H12B11172   6.110   1.764   9.720 -0.2502 -0.0502  0.5546
  109OSM    C1111173   6.215   1.569   9.670 -1.0535 -0.5108 -0.1278
  109OSM   H11A11174   6.273   1.584   9.763 -2.0952 -1.7173  0.7651
  109OSM   H11B11175   6.273   1.616   9.588 -0.5563  1.2484  1.1767
  109OSM      P11176   6.253   1.315   9.717  0.1331 -0.0680 -0.3191
  109OSM    O1311177   6.325   1.366   9.842 -0.1221 -0.1566 -0.2325
  109OSM    O1411178   6.157   1.203   9.740  0.2217  0.0185  0.4362
  109OSM    O1111179   6.359   1.278   9.604  0.0764  0.0518 -0.6558
  109OSM    O1211180   6.178   1.433   9.647  0.0628 -0.4722 -0.1174
  109OSM    C1S11181   6.307   1.248   9.473 -0.5740 -0.8759 -0.8404
  109OSM    H1S11182   6.204   1.205   9.473 -1.7808  1.8556 -0.9442
  109OSM    H1T11183   6.379   1.182   9.420  1.1323 -0.1908  0.5445
  109OSM     NF11184   6.214   1.335   9.263  0.3052 -0.4620  0.2953
  109OSM    HNF11185   6.267   1.313   9.182  1.3174  0.3410  0.7177
  109OSM    C2S11186   6.286   1.373   9.380  0.3064  0.1050  0.0841
  109OSM    H2S11187   6.225   1.451   9.430 -3.0971 -2.9177  1.0617
  109OSM    C3S11188   6.431   1.420   9.343  0.4131  0.3258 -0.6564
  109OSM    H3S11189   6.473   1.334   9.288 -0.9197 -1.3404  0.7925
  109OSM     O311190   6.504   1.443   9.464  0.6360  0.2918  0.3092
  109OSM    HO311191   6.444   1.404   9.528  0.7143 -0.5948 -0.1318
  109OSM    C4S11192   6.429   1.543   9.258 -1.2918 -0.0344  0.0184
  109OSM    H4S11193   6.416   1.635   9.317  2.2106  0.2062  0.5977
  109OSM    C5S11194   6.459   1.546   9.127  0.6576 -0.5869 -0.1290
  109OSM    H5S11195   6.483   1.452   9.076 -0.7477 -0.6968 -0.6451
  109OSM    C6S11196   6.454   1.672   9.034  0.4493 -0.1208 -0.1012
  109OSM    H6S11197   6.558   1.700   9.008  1.1400  0.6801  3.0978
  109OSM    H6T11198   6.415   1.763   9.085  1.9742 -1.2821  3.4104
  109OSM    C7S11199   6.361   1.654   8.910 -0.7827 -0.2417 -0.2224
  109OSM    H7S11200   6.373   1.747   8.851  1.4535 -1.6093 -2.1286
  109OSM    H7T11201   6.254   1.646   8.938 -0.3352  0.0354  1.6530
  109OSM    C8S11202   6.399   1.546   8.804  0.0725 -0.3517 -0.6825
  109OSM    H8S11203   6.346   1.577   8.711  0.9704  1.5491 -0.6175
  109OSM    H8T11204   6.364   1.449   8.842  0.2604  0.0648  0.6063
  109OSM    C9S11205   6.553   1.538   8.787  0.2345  0.1001  0.4582
  109OSM    H9S11206   6.593   1.478   8.871  1.7053 -3.5857 -2.5469
  109OSM    H9T11207   6.602   1.638   8.792  1.4463 -0.4178 -0.5215
  109OSM   C10S11208   6.600   1.488   8.654  0.0127  0.2224  0.1991
  109OSM   H10S11209   6.549   1.389   8.643  0.3711 -0.1928  1.9623
  109OSM   H10T11210   6.711   1.478   8.647 -0.0303  0.9675 -2.7761
  109OSM   C11S11211   6.547   1.570   8.533  0.2912  0.2500 -0.8519
  109OSM   H11S11212   6.548   1.678   8.560 -0.2228  0.1422 -0.3909
  109OSM   H11T11213   6.440   1.542   8.522  0.8368 -2.8123  0.6524
  109OSM   C12S11214   6.635   1.559   8.413 -0.1156  0.0460  0.2680
  109OSM   H12S11215   6.625   1.451   8.389 -0.5129  0.2785 -0.6322
  109OSM   H12T11216   6.742   1.573   8.439 -0.6167  3.4449  1.0383
  109OSM   C13S11217   6.590   1.655   8.300 -0.7138 -0.7997 -0.4103
  109OSM   H13S11218   6.610   1.762   8.323 -1.7416 -0.0146 -2.7715
  109OSM   H13T11219   6.484   1.641   8.271 -1.5522 -1.7011  2.7851
  109OSM   C14S11220   6.677   1.633   8.174 -0.0892 -0.4725  0.4540
  109OSM   H14S11221   6.785   1.653   8.187 -0.3922 -0.4191  3.7331
  109OSM   H14T11222   6.641   1.709   8.101 -0.0822 -0.5793  0.3391
  109OSM   C15S11223   6.650   1.496   8.122  0.1598 -0.5980  0.1479
  109OSM   H15S11224   6.545   1.462   8.126  0.2387 -0.9953 -0.8349
  109OSM   H15T11225   6.707   1.412   8.168 -0.9611 -2.6284 -1.8985
  109OSM   C16S11226   6.673   1.499   7.968 -0.3114  0.1427 -0.2266
  109OSM   H16S11227   6.769   1.548   7.940 -1.9086  1.1278 -4.8933
  109OSM   H16T11228   6.603   1.562   7.910  1.6590  1.9787 -0.7599
  109OSM   C17S11229   6.660   1.364   7.893 -0.1250 -0.1669 -0.2258
  109OSM   H17S11230   6.706   1.286   7.956 -0.5423 -1.3613 -1.3635
  109OSM   H17T11231   6.705   1.376   7.792 -0.7799  0.6983 -0.4324
  109OSM   C18S11232   6.513   1.330   7.880 -0.0281 -0.1321  0.2465
  109OSM   H18S11233   6.475   1.312   7.983 -1.1018  1.3569  0.1455
  109OSM   H18T11234   6.508   1.238   7.818  1.5373  1.0577 -1.7646
  109OSM   H18U11235   6.446   1.406   7.834 -1.0757 -0.7989  0.6335
  109OSM    C1F11236   6.086   1.318   9.260 -0.0313  0.6111  0.5673
  109OSM     OF11237   6.013   1.334   9.361  0.1821  0.1471  0.1548
  109OSM    C2F11238   6.032   1.257   9.129 -0.4179 -0.2673 -0.2284
  109OSM    H2F11239   5.921   1.258   9.125 -0.3924  1.3314 -2.4337
  109OSM    H2G11240   6.067   1.152   9.124  1.0489  0.0375  2.2736
  109OSM    C3F11241   6.081   1.330   8.998  0.1435 -0.5986  0.2967
  109OSM    H3F11242   6.192   1.329   8.989  0.1662  0.7173  0.2165
  109OSM    H3G11243   6.057   1.438   9.009 -0.0379 -0.5798 -0.2531
  109OSM    C4F11244   6.020   1.264   8.876 -0.2266  0.5993 -0.4581
  109OSM    H4F11245   5.909   1.262   8.881 -0.1798 -0.1220  1.7999
  109OSM    H4G11246   6.053   1.158   8.878 -2.1210 -0.0099  0.7262
  109OSM    C5F11247   6.064   1.329   8.750  0.3051  0.4353  0.4243
  109OSM    H5F11248   6.173   1.317   8.733  0.1417 -0.8075  0.1633
  109OSM    H5G11249   6.034   1.436   8.755  2.7536  1.2387 -0.4151
  109OSM    C6F11250   5.998   1.272   8.631 -0.9323 -0.0091 -1.1737
  109OSM    H6F11251   5.890   1.293   8.622 -0.8181  1.5978  0.5819
  109OSM    H6G11252   6.017   1.163   8.641  0.6275  0.4478  2.4266
  109OSM    C7F11253   6.065   1.297   8.492  0.4896  0.1724 -0.4233
  109OSM    H7F11254   6.173   1.276   8.511  1.1558  3.1942 -0.2316
  109OSM    H7G11255   6.054   1.405   8.466 -0.7470  0.9779  2.8852
  109OSM    C8F11256   6.027   1.200   8.373 -0.3168 -0.8674  0.1116
  109OSM    H8F11257   6.069   1.099   8.388  0.7383 -0.5691 -0.7708
  109OSM    H8G11258   6.090   1.238   8.290 -1.2894  0.6782  0.0346
  109OSM    C9F11259   5.892   1.213   8.322 -0.2858 -0.5083  0.0418
  109OSM    H9F11260   5.863   1.316   8.298  0.1496 -0.9329 -2.5535
  109OSM   C10F11261   5.799   1.119   8.301 -0.3866 -0.3928  0.8061
  109OSM   H10F11262   5.699   1.142   8.260  0.9201 -0.4948 -2.7894
  109OSM   C11F11263   5.817   0.977   8.351  0.2071 -0.0724 -0.2095
  109OSM   H11F11264   5.905   0.966   8.418 -0.0588 -0.2793  0.1083
  109OSM   H11G11265   5.826   0.897   8.274  3.2670 -0.2160  0.1687
  109OSM   C12F11266   5.693   0.927   8.428  0.0888 -0.5275 -0.7128
  109OSM   H12F11267   5.601   0.969   8.382 -0.2583 -1.1373 -0.5872
  109OSM   H12G11268   5.705   0.972   8.528 -1.7311  2.1205 -1.5746
  109OSM   C13F11269   5.690   0.774   8.449 -0.3714  0.2759 -0.2147
  109OSM   H13F11270   5.789   0.727   8.463 -0.2394  0.7085  0.3494
  109OSM   H13G11271   5.657   0.719   8.358 -0.2671  0.8133 -0.5867
  109OSM   C14F11272   5.600   0.737   8.567  0.8082 -0.2807  0.3632
  109OSM   H14F11273   5.633   0.801   8.651  0.1152 -1.1694  1.3352
  109OSM   H14G11274   5.596   0.630   8.600 -4.4833 -0.7641 -0.9075
  109OSM   C15F11275   5.457   0.754   8.523 -0.5417 -0.0717 -0.0466
  109OSM   H15F11276   5.436   0.665   8.460  2.2309 -1.3517  0.6311
  109OSM   H15G11277   5.436   0.843   8.460  0.0292 -0.3360 -0.6153
  109OSM   C16F11278   5.365   0.746   8.641  0.4833  0.1278  0.3641
  109OSM   H16F11279   5.386   0.836   8.702  0.4216 -0.2274  0.9166
  109OSM   H16G11280   5.389   0.649   8.690 -1.3022 -0.2478  0.5823
  109OSM   C17F11281   5.211   0.736   8.607  0.0779  1.0142 -0.0497
  109OSM   H17F11282   5.181   0.631   8.588 -1.0640  1.0457  1.4217
  109OSM   H17G11283   5.196   0.784   8.508  0.4078  0.3147 -0.4405
  109OSM   C18F11284   5.124   0.796   8.720 -0.6165  0.4015  0.7382
  109OSM   H18F11285   5.172   0.868   8.790  0.5920  2.5699 -2.1239
  109OSM   H18G11286   5.083   0.711   8.778 -0.8864  0.0195 -0.0072
  109OSM   H18H11287   5.032   0.853   8.694 -0.5047  1.1337  1.8453
  110OSM      N11288   5.874   6.003  10.268  0.2026 -0.2968 -0.5199
  110OSM    C1511289   6.017   6.007  10.294 -0.4371  0.0653  0.2163
  110OSM   H15A11290   6.074   5.969  10.210 -1.3649 -2.2298  0.5412
  110OSM   H15B11291   6.046   5.944  10.377  1.9487  1.0944  0.2568
  110OSM   H15C11292   6.041   6.108  10.322  0.0499  0.0002  0.0398
  110OSM    C1411293   5.844   5.860  10.235  0.3193  0.3340  0.1900
  110OSM   H14A11294   5.850   5.807  10.328  0.9137  0.8720  0.4606
  110OSM   H14B11295   5.919   5.823  10.167 -0.8795 -0.8576 -0.5433
  110OSM   H14C11296   5.745   5.839  10.198 -0.6012  0.6999  2.3103
  110OSM    C1311297   5.788   6.043  10.387 -0.3408 -0.1747 -0.6205
  110OSM   H13A11298   5.684   6.020  10.367 -1.3359  1.9309  1.6279
  110OSM   H13B11299   5.780   6.150  10.393 -1.1498 -0.1854 -1.2169
  110OSM   H13C11300   5.809   5.986  10.476 -1.4620 -0.1077 -0.2974
  110OSM    C1211301   5.851   6.083  10.145 -0.3702 -0.2152  0.1089
  110OSM   H12A11302   5.923   6.040  10.078 -1.6114 -2.4157  0.1131
  110OSM   H12B11303   5.886   6.184  10.163 -0.6330 -0.4400  2.1005
  110OSM    C1111304   5.701   6.073  10.094 -0.0257  0.8114  0.0317
  110OSM   H11A11305   5.660   5.971  10.110 -2.6792  1.9596  1.2091
  110OSM   H11B11306   5.697   6.081   9.984  0.0715 -0.2719 -0.0550
  110OSM      P11307   5.649   6.321  10.127  0.1332  0.1389  0.0427
  110OSM    O1311308   5.528   6.391  10.185  0.2021  0.5195  0.3370
  110OSM    O1411309   5.781   6.367  10.174 -0.2412  0.5025  0.3572
  110OSM    O1111310   5.641   6.330   9.973 -0.0029  0.0972  0.4109
  110OSM    O1211311   5.624   6.166  10.159 -0.1670  0.0666 -0.0240
  110OSM    C1S11312   5.508   6.326   9.912 -0.7862 -0.3545  0.9277
  110OSM    H1S11313   5.435   6.401   9.951 -3.7824 -2.1259 -0.8572
  110OSM    H1T11314   5.457   6.233   9.944  0.7115 -0.4665  3.1862
  110OSM     NF11315   5.363   6.335   9.706 -0.3341  0.2284 -0.1055
  110OSM    HNF11316   5.341   6.253   9.652 -1.4121  0.8338 -0.6163
  110OSM    C2S11317   5.504   6.343   9.752  0.1603  0.3169 -0.3150
  110OSM    H2S11318   5.546   6.442   9.722  0.0431  0.2198 -0.7950
  110OSM    C3S11319   5.597   6.234   9.678  0.3406 -0.4470  0.7697
  110OSM    H3S11320   5.558   6.132   9.701  0.6885 -0.5599  0.8651
  110OSM     O311321   5.727   6.240   9.740  1.3314 -0.4221  0.4629
  110OSM    HO311322   5.714   6.292   9.820  1.6997  1.6047 -0.7155
  110OSM    C4S11323   5.597   6.261   9.528 -0.1115  0.8538  0.5417
  110OSM    H4S11324   5.498   6.237   9.486 -0.5325  0.3352  1.7615
  110OSM    C5S11325   5.694   6.295   9.444 -0.2479 -0.4377  0.8957
  110OSM    H5S11326   5.794   6.307   9.488 -0.5667  0.0669  1.4838
  110OSM    C6S11327   5.667   6.325   9.296 -0.0507 -0.2402 -0.2586
  110OSM    H6S11328   5.562   6.316   9.262 -0.0566 -0.8241 -0.0949
  110OSM    H6T11329   5.726   6.249   9.240  1.3554 -0.2677  1.1870
  110OSM    C7S11330   5.724   6.468   9.268  0.0971  0.5800 -0.0795
  110OSM    H7S11331   5.831   6.473   9.297 -0.3598 -0.1775  1.8760
  110OSM    H7T11332   5.685   6.544   9.339  0.4116 -0.5694  1.3703
  110OSM    C8S11333   5.716   6.527   9.124 -0.8005 -0.5539  0.3530
  110OSM    H8S11334   5.773   6.622   9.116 -0.4427 -0.8618 -1.2719
  110OSM    H8T11335   5.608   6.550   9.111 -0.4731  0.1752 -1.4295
  110OSM    C9S11336   5.779   6.428   9.013  0.1227 -0.4330 -0.0454
  110OSM    H9S11337   5.733   6.330   9.039  1.4345 -0.8571  0.8163
  110OSM    H9T11338   5.889   6.419   9.027  0.2254  0.6388 -0.1063
  110OSM   C10S11339   5.748   6.473   8.874  0.1020 -0.5013  0.3834
  110OSM   H10S11340   5.805   6.565   8.848 -0.8981 -0.3830 -1.5695
  110OSM   H10T11341   5.640   6.502   8.870 -0.1252 -1.3442 -3.0032
  110OSM   C11S11342   5.777   6.359   8.780  0.1596  0.0938 -0.0362
  110OSM   H11S11343   5.731   6.264   8.814  1.9183 -0.2225  1.6022
  110OSM   H11T11344   5.887   6.342   8.773 -0.0009 -0.9742 -0.1347
  110OSM   C12S11345   5.728   6.400   8.643  0.5692  0.5677  0.7892
  110OSM   H12S11346   5.769   6.499   8.612 -0.2833  0.5304 -0.5030
  110OSM   H12T11347   5.618   6.411   8.636  0.1706 -2.9173 -0.6160
  110OSM   C13S11348   5.767   6.292   8.536 -0.0634  0.0548  0.6643
  110OSM   H13S11349   5.708   6.206   8.574  2.1764 -1.9667 -0.1606
  110OSM   H13T11350   5.875   6.265   8.549 -0.3778 -0.9062  1.4080
  110OSM   C14S11351   5.718   6.321   8.393  0.4129 -0.3241 -0.3369
  110OSM   H14S11352   5.783   6.403   8.357 -1.2532 -0.4742 -4.2853
  110OSM   H14T11353   5.617   6.368   8.402  1.1621  1.2293  0.3419
  110OSM   C15S11354   5.727   6.203   8.296  0.1519  0.1961  0.0169
  110OSM   H15S11355   5.685   6.109   8.336 -0.5841 -0.3243 -1.8578
  110OSM   H15T11356   5.832   6.174   8.274  0.0088  0.6287 -1.3442
  110OSM   C16S11357   5.663   6.242   8.158 -0.0561 -0.3090 -0.2605
  110OSM   H16S11358   5.561   6.275   8.186  0.8540  2.9348 -0.3567
  110OSM   H16T11359   5.652   6.149   8.097 -0.7825  1.3613 -2.8577
  110OSM   C17S11360   5.739   6.351   8.083 -0.2149 -0.0144 -0.1710
  110OSM   H17S11361   5.847   6.326   8.070 -0.9615 -2.2895 -2.9762
  110OSM   H17T11362   5.716   6.447   8.135 -1.2630 -0.1356 -0.4072
  110OSM   C18S11363   5.702   6.365   7.933  0.4114 -0.3136 -0.4587
  110OSM   H18S11364   5.740   6.277   7.876  1.7915  1.0358 -1.7109
  110OSM   H18T11365   5.742   6.464   7.902  0.2884  0.6650  2.2892
  110OSM   H18U11366   5.591   6.368   7.935  0.2832 -0.6965  4.6442
  110OSM    C1F11367   5.279   6.444   9.706  0.3691  0.4228  0.4724
  110OSM     OF11368   5.321   6.550   9.748 -0.6749  0.0609 -0.1496
  110OSM    C2F11369   5.133   6.427   9.654 -0.2769  0.1370  0.5596
  110OSM    H2F11370   5.073   6.474   9.735 -0.4920  2.7390 -1.0238
  110OSM    H2G11371   5.117   6.317   9.643 -0.1694  0.0689  1.0521
  110OSM    C3F11372   5.123   6.516   9.530  0.8118  0.3963 -0.6167
  110OSM    H3F11373   5.208   6.495   9.462 -1.5478 -3.0486 -2.7663
  110OSM    H3G11374   5.118   6.622   9.564 -1.5627 -0.4480  2.0365
  110OSM    C4F11375   4.998   6.484   9.453 -0.0797 -0.3395  0.4262
  110OSM    H4F11376   4.908   6.523   9.505  0.6549  0.0119  1.4694
  110OSM    H4G11377   4.992   6.373   9.445 -1.2042 -0.3285  1.0070
  110OSM    C5F11378   5.014   6.523   9.306  0.5928  0.9906  0.3767
  110OSM    H5F11379   5.108   6.501   9.252  0.3604  2.0369 -0.4970
  110OSM    H5G11380   4.994   6.631   9.288 -1.4290  0.2162 -2.7429
  110OSM    C6F11381   4.893   6.462   9.229  0.2373  0.7912 -0.4172
  110OSM    H6F11382   4.796   6.494   9.273 -0.5355 -0.0610 -1.4649
  110OSM    H6G11383   4.883   6.351   9.233 -1.5553  0.9039 -1.0381
  110OSM    C7F11384   4.887   6.480   9.075  0.1822 -0.0656  0.6338
  110OSM    H7F11385   4.987   6.454   9.033  1.0639  0.9751  1.9909
  110OSM    H7G11386   4.865   6.588   9.065 -1.7465 -0.5797 -1.2809
  110OSM    C8F11387   4.788   6.392   9.007  0.3833  0.2451 -0.2364
  110OSM    H8F11388   4.697   6.398   9.070  0.7139  0.3636  0.2360
  110OSM    H8G11389   4.814   6.285   8.993 -2.3275 -0.5544  0.2304
  110OSM    C9F11390   4.754   6.449   8.866  0.7549 -0.4754 -0.6116
  110OSM    H9F11391   4.699   6.545   8.865  0.0858 -0.8089  1.0119
  110OSM   C10F11392   4.792   6.399   8.749  0.2912  0.0671 -0.3232
  110OSM   H10F11393   4.757   6.454   8.660 -0.0122  0.9418  0.3221
  110OSM   C11F11394   4.878   6.275   8.736  0.0014  0.2394  0.2755
  110OSM   H11F11395   4.824   6.187   8.777 -1.4032  1.2905  0.7548
  110OSM   H11G11396   4.967   6.295   8.799  0.5037 -2.0500  0.3904
  110OSM   C12F11397   4.918   6.244   8.584 -0.4409  0.4897  0.0411
  110OSM   H12F11398   4.978   6.152   8.599 -0.6682  0.6674  2.4630
  110OSM   H12G11399   4.976   6.326   8.537 -1.2124  0.2344 -1.4224
  110OSM   C13F11400   4.798   6.238   8.500 -0.4728  0.1388 -0.1693
  110OSM   H13F11401   4.728   6.323   8.512 -0.4472  0.4729 -2.1863
  110OSM   H13G11402   4.745   6.152   8.547  0.7883 -0.8366 -0.4509
  110OSM   C14F11403   4.815   6.198   8.352  0.6629 -0.2402  0.1587
  110OSM   H14F11404   4.717   6.173   8.307  1.0306  1.8051 -1.9712
  110OSM   H14G11405   4.892   6.118   8.349  1.8157  0.8248 -0.0100
  110OSM   C15F11406   4.883   6.303   8.265 -0.0497  0.1151 -0.4750
  110OSM   H15F11407   4.991   6.310   8.287 -0.1559  0.4509 -0.0440
  110OSM   H15G11408   4.830   6.398   8.289  3.4759  1.6503  1.9580
  110OSM   C16F11409   4.869   6.260   8.114  0.1960 -0.3642 -0.0515
  110OSM   H16F11410   4.761   6.237   8.102  0.4105 -1.7082  0.3959
  110OSM   H16G11411   4.930   6.172   8.083  0.4064 -0.1008 -0.3872
  110OSM   C17F11412   4.901   6.379   8.011  0.5095  0.2442  0.4091
  110OSM   H17F11413   4.811   6.443   8.027  0.2861 -0.5354  2.6182
  110OSM   H17G11414   4.903   6.348   7.904  2.5645  3.7380 -0.6943
  110OSM   C18F11415   5.016   6.474   8.041 -0.3235  0.8595  0.5320
  110OSM   H18F11416   5.014   6.510   8.146 -0.6417  1.0961  0.4460
  110OSM   H18G11417   5.010   6.567   7.981 -1.7780 -0.0716 -0.8447
  110OSM   H18H11418   5.111   6.417   8.051  0.2503  1.6150 -0.4072
  111OSM      N11419   0.320   5.494  10.075  0.1133  0.1010 -0.2206
  111OSM    C1511420   0.340   5.365  10.006 -0.4152 -0.2466  0.1822
  111OSM   H15A11421   0.280   5.348   9.919 -0.0279 -1.1227  0.0743
  111OSM   H15B11422   0.314   5.286  10.074 -1.4215  0.3554  0.5175
  111OSM   H15C11423   0.441   5.355   9.968 -1.3800 -0.1288 -2.6044
  111OSM    C1411424   0.389   5.494  10.209 -0.2202 -0.1619  0.3414
  111OSM   H14A11425   0.334   5.425  10.270 -1.9327 -0.3004 -1.2783
  111OSM   H14B11426   0.372   5.590  10.255  0.7465 -0.7207  1.9722
  111OSM   H14C11427   0.493   5.467  10.194 -0.2194 -0.0564  0.1573
  111OSM    C1311428   0.384   5.605   9.996  0.0229  0.3203  0.2664
  111OSM   H13A11429   0.486   5.578   9.973 -0.6797 -1.3332 -1.0897
  111OSM   H13B11430   0.369   5.698  10.048 -0.9081  0.5365 -0.3603
  111OSM   H13C11431   0.339   5.614   9.898 -0.0872  0.5098  0.3339
  111OSM    C1211432   0.170   5.515  10.105 -0.7196  0.3563 -0.0322
  111OSM   H12A11433   0.113   5.525  10.013 -0.6157  2.2810  0.0643
  111OSM   H12B11434   0.155   5.606  10.161  0.4006  0.4965  0.0508
  111OSM    C1111435   0.099   5.409  10.195  0.2734 -0.2017  0.1919
  111OSM   H11A11436   0.016   5.452  10.254  0.4447  0.9762 -0.3843
  111OSM   H11B11437   0.168   5.371  10.273 -0.8324 -0.4009  1.0845
  111OSM      P11438  -0.103   5.288  10.067  0.0384  0.2594 -0.2732
  111OSM    O1311439  -0.143   5.156  10.110 -0.3389  0.1010 -0.2053
  111OSM    O1411440  -0.177   5.412  10.114 -0.7174  0.4599  0.6271
  111OSM    O1111441  -0.096   5.281   9.903 -0.1258  0.1298  0.1560
  111OSM    O1211442   0.052   5.301  10.114 -0.3461  0.3818 -0.1926
  111OSM    C1S11443  -0.005   5.185   9.839  1.2736  0.2280 -0.8254
  111OSM    H1S11444  -0.048   5.083   9.846 -0.6169  1.0308 -0.1283
  111OSM    H1T11445   0.094   5.184   9.891 -0.3833 -0.7931  2.6299
  111OSM     NF11446   0.080   5.104   9.615  0.0583  0.3238 -0.4657
  111OSM    HNF11447   0.171   5.124   9.580  0.0209 -1.9973 -2.0908
  111OSM    C2S11448   0.013   5.207   9.682 -0.9217 -0.2152  0.3561
  111OSM    H2S11449  -0.089   5.214   9.638 -1.0879 -0.2423  0.7275
  111OSM    C3S11450   0.083   5.348   9.653  0.2651  0.4557 -0.4323
  111OSM    H3S11451   0.190   5.349   9.683 -0.4648  0.0535  2.4286
  111OSM     O311452   0.020   5.453   9.732  0.0435 -0.7713 -0.2313
  111OSM    HO311453  -0.038   5.411   9.797  3.4622 -2.2013  2.2091
  111OSM    C4S11454   0.080   5.371   9.505 -0.2663 -0.2783 -0.4633
  111OSM    H4S11455  -0.021   5.367   9.461 -0.6623  0.3802  0.3540
  111OSM    C5S11456   0.191   5.393   9.431 -0.1643  0.4040 -0.1291
  111OSM    H5S11457   0.292   5.385   9.475  0.0412 -1.2729 -0.8350
  111OSM    C6S11458   0.193   5.416   9.285  0.0387 -0.4404 -0.1946
  111OSM    H6S11459   0.228   5.325   9.231  0.7179  0.3143 -1.0662
  111OSM    H6T11460   0.276   5.484   9.258  0.3582 -1.7273 -2.8810
  111OSM    C7S11461   0.058   5.463   9.214  0.0486  0.1602  0.5284
  111OSM    H7S11462   0.018   5.558   9.256  1.8615  0.9368  0.5750
  111OSM    H7T11463  -0.011   5.380   9.240 -1.1871  0.6961 -0.9052
  111OSM    C8S11464   0.078   5.470   9.062  0.1528 -0.8281  0.8179
  111OSM    H8S11465   0.125   5.373   9.033 -0.6755 -0.7619 -0.9034
  111OSM    H8T11466   0.147   5.551   9.033  0.2302 -1.0797  0.2827
  111OSM    C9S11467  -0.057   5.490   8.984 -0.2854 -0.8047  0.1065
  111OSM    H9S11468  -0.128   5.549   9.046  0.1650 -0.6400  0.4735
  111OSM    H9T11469  -0.111   5.395   8.966 -1.7796  0.4512 -2.7440
  111OSM   C10S11470  -0.030   5.543   8.848  0.8488  0.2401  0.5806
  111OSM   H10S11471   0.054   5.483   8.807  0.1592 -0.5613  0.3099
  111OSM   H10T11472  -0.003   5.651   8.853  0.6158  0.2667  1.2664
  111OSM   C11S11473  -0.154   5.542   8.753  0.6978  0.6334  0.0080
  111OSM   H11S11474  -0.225   5.616   8.795  0.1335 -0.0885  0.3507
  111OSM   H11T11475  -0.183   5.435   8.762  2.3018  0.3195  3.3697
  111OSM   C12S11476  -0.113   5.565   8.603 -0.7891  0.0213 -0.3328
  111OSM   H12S11477  -0.031   5.499   8.569  1.4694  2.2198  0.5458
  111OSM   H12T11478  -0.084   5.672   8.592  1.9412 -0.3587  2.0092
  111OSM   C13S11479  -0.236   5.538   8.522 -0.1494 -0.3760  0.1681
  111OSM   H13S11480  -0.327   5.583   8.567  1.0297  0.6371  1.6690
  111OSM   H13T11481  -0.238   5.429   8.505 -0.4729 -0.3263 -0.1172
  111OSM   C14S11482  -0.219   5.592   8.380  0.3405  0.1310 -0.0702
  111OSM   H14S11483  -0.144   5.530   8.326 -0.5493 -0.8819 -0.1855
  111OSM   H14T11484  -0.178   5.695   8.381 -2.1821  1.2194 -1.0098
  111OSM   C15S11485  -0.345   5.589   8.294  0.3023 -0.4921  0.3026
  111OSM   H15S11486  -0.428   5.645   8.344  0.6588 -0.0655  0.4214
  111OSM   H15T11487  -0.378   5.486   8.272 -2.4164  0.3254  0.1320
  111OSM   C16S11488  -0.319   5.670   8.168 -0.6052  0.3531  0.2994
  111OSM   H16S11489  -0.237   5.621   8.111  0.9810  1.5412  1.4925
  111OSM   H16T11490  -0.299   5.775   8.199 -1.8347  0.8120 -0.3904
  111OSM   C17S11491  -0.433   5.661   8.066 -0.4246 -0.8805 -0.0069
  111OSM   H17S11492  -0.530   5.682   8.116 -0.2945 -0.3580  0.0272
  111OSM   H17T11493  -0.442   5.557   8.027  0.4083 -0.5132 -1.2287
  111OSM   C18S11494  -0.403   5.759   7.955 -0.5448 -0.4280 -0.5691
  111OSM   H18S11495  -0.366   5.855   7.997  1.9443 -1.5141 -0.0804
  111OSM   H18T11496  -0.493   5.777   7.892 -1.7166 -0.6684  0.9753
  111OSM   H18U11497  -0.328   5.713   7.887 -0.5650 -2.6275  0.8024
  111OSM    C1F11498   0.033   4.977   9.600  0.3551  0.1447 -0.7523
  111OSM     OF11499  -0.082   4.955   9.632  0.0904  0.2069 -0.0492
  111OSM    C2F11500   0.113   4.875   9.543  0.3201  0.9816  0.4568
  111OSM    H2F11501   0.116   4.791   9.616  0.4529  0.1464 -0.4973
  111OSM    H2G11502   0.221   4.898   9.528  0.9519 -1.8983  0.0235
  111OSM    C3F11503   0.051   4.819   9.411  0.1132  0.6273 -0.5824
  111OSM    H3F11504  -0.051   4.785   9.439  1.3746  0.2205  4.4917
  111OSM    H3G11505   0.098   4.723   9.382  0.3184  0.2316  1.0121
  111OSM    C4F11506   0.046   4.925   9.306  0.2614  0.4536 -0.1089
  111OSM    H4F11507   0.001   5.016   9.352  1.6277  0.6767  0.8587
  111OSM    H4G11508  -0.033   4.897   9.233 -1.6223 -1.7749  2.5564
  111OSM    C5F11509   0.185   4.947   9.234 -0.8884 -0.2217  0.2405
  111OSM    H5F11510   0.232   4.847   9.245 -1.0935 -0.2782  0.6200
  111OSM    H5G11511   0.245   5.015   9.299 -1.1913 -0.1672  0.4662
  111OSM    C6F11512   0.170   4.993   9.080 -1.3135  0.3848 -0.6612
  111OSM    H6F11513   0.111   5.088   9.083 -1.3213  0.4122 -1.5304
  111OSM    H6G11514   0.109   4.911   9.037 -1.4011  0.4300 -0.6226
  111OSM    C7F11515   0.295   4.998   8.989  1.3365  0.1874 -0.5515
  111OSM    H7F11516   0.344   4.900   9.010 -1.9047 -1.0300  2.3661
  111OSM    H7G11517   0.361   5.082   9.020 -0.0832  0.1317  3.1778
  111OSM    C8F11518   0.254   5.008   8.840  0.5092  0.7988 -0.1936
  111OSM    H8F11519   0.202   4.914   8.810  2.2275 -0.1401 -0.3231
  111OSM    H8G11520   0.346   5.010   8.778 -0.9705 -4.1921 -3.1124
  111OSM    C9F11521   0.161   5.128   8.805  0.4012 -0.0303  0.2074
  111OSM    H9F11522   0.129   5.193   8.888 -2.0890  0.6629 -1.1959
  111OSM   C10F11523   0.146   5.177   8.684 -0.6057  0.9646 -0.1268
  111OSM   H10F11524   0.095   5.274   8.681  0.4103  1.5728  1.0276
  111OSM   C11F11525   0.218   5.122   8.567 -0.3016  0.8149  0.1461
  111OSM   H11F11526   0.161   5.035   8.528 -0.5893  1.7538 -1.6466
  111OSM   H11G11527   0.321   5.080   8.578  0.4919  2.4758 -0.5789
  111OSM   C12F11528   0.239   5.218   8.449  0.2753 -0.8283 -0.5341
  111OSM   H12F11529   0.142   5.231   8.396 -1.2978 -0.8295  2.1584
  111OSM   H12G11530   0.319   5.191   8.378  1.5439  1.6192 -0.1429
  111OSM   C13F11531   0.279   5.361   8.496 -0.1782  0.3562 -0.1218
  111OSM   H13F11532   0.197   5.397   8.562  0.0026 -1.1182  0.9689
  111OSM   H13G11533   0.287   5.427   8.407 -0.4688 -0.2780 -0.6296
  111OSM   C14F11534   0.405   5.362   8.576  0.0118  0.3161  0.2482
  111OSM   H14F11535   0.475   5.318   8.503 -1.1106  2.5650 -2.3948
  111OSM   H14G11536   0.390   5.294   8.663 -0.9514 -0.4447 -0.4945
  111OSM   C15F11537   0.439   5.503   8.623 -0.0928 -0.2272 -0.5200
  111OSM   H15F11538   0.350   5.551   8.670 -0.1417 -1.6586  0.9387
  111OSM   H15G11539   0.470   5.567   8.538  0.5044  0.9850  0.5558
  111OSM   C16F11540   0.547   5.523   8.740 -0.1372  0.0623  0.7505
  111OSM   H16F11541   0.578   5.628   8.755  1.1879  0.2708 -2.6314
  111OSM   H16G11542   0.634   5.466   8.703  0.0666  0.9485 -0.1600
  111OSM   C17F11543   0.510   5.472   8.876  0.1139 -0.5206 -0.0084
  111OSM   H17F11544   0.599   5.460   8.943  0.0657 -1.7713 -0.1436
  111OSM   H17G11545   0.474   5.368   8.861 -0.4341 -0.6621  2.0017
  111OSM   C18F11546   0.395   5.548   8.948 -0.8535 -0.0098  0.0680
  111OSM   H18F11547   0.311   5.561   8.877 -0.3387  0.5704 -0.4501
  111OSM   H18G11548   0.436   5.641   8.993  0.1230 -0.5030  0.2267
  111OSM   H18H11549   0.364   5.484   9.033  1.2793 -0.9376  0.2087
  112OSM      N11550   0.361   2.935  10.043 -0.2617 -0.0817  1.2067
  112OSM    C1511551   0.452   2.842  10.123  0.2240 -0.5807 -0.3046
  112OSM   H15A11552   0.396   2.808  10.209  0.6476  2.1185  1.1520
  112OSM   H15B11553   0.540   2.892  10.161  0.8134 -1.4404 -0.5163
  112OSM   H15C11554   0.473   2.760  10.056 -0.8748 -0.3376 -0.9751
  112OSM    C1411555   0.300   3.032  10.137 -0.0820 -0.2179  0.4949
  112OSM   H14A11556   0.242   2.981  10.213 -1.1660  0.9654  0.5060
  112OSM   H14B11557   0.232   3.103  10.092  0.8442 -0.3029 -1.0837
  112OSM   H14C11558   0.377   3.087  10.190  0.5974 -0.0809 -0.6149
  112OSM    C1311559   0.439   3.014   9.937 -0.4660  0.4210  0.1116
  112OSM   H13A11560   0.503   2.942   9.888  0.6091 -0.5007  2.6727
  112OSM   H13B11561   0.506   3.082   9.987 -0.2295 -0.1787  0.6244
  112OSM   H13C11562   0.371   3.061   9.867 -0.7502 -1.1442 -0.7159
  112OSM    C1211563   0.258   2.850   9.975  0.6790 -0.6230  0.2241
  112OSM   H12A11564   0.168   2.903   9.949  0.0151 -1.3748  0.9181
  112OSM   H12B11565   0.212   2.785  10.048  2.3844 -1.0064  1.0168
  112OSM    C1111566   0.310   2.752   9.860  0.5370 -0.8149  0.8935
  112OSM   H11A11567   0.359   2.814   9.783 -1.6525  0.6616  0.5947
  112OSM   H11B11568   0.227   2.698   9.810  1.4391 -1.4368  0.0436
  112OSM      P11569   0.394   2.496   9.883  0.1371  0.0103 -0.4788
  112OSM    O1311570   0.527   2.446   9.922 -0.3946  0.2088 -0.4643
  112OSM    O1411571   0.280   2.442   9.950  0.6274  0.1360 -0.6442
  112OSM    O1111572   0.370   2.486   9.728  0.2800  0.0327  0.0321
  112OSM    O1211573   0.396   2.659   9.905  0.1271  0.3048 -1.2160
  112OSM    C1S11574   0.470   2.527   9.639  0.4436  0.2478  0.0985
  112OSM    H1S11575   0.557   2.459   9.656  0.6284  0.5555  0.4150
  112OSM    H1T11576   0.504   2.633   9.641  1.1849  0.0113  0.5823
  112OSM     NF11577   0.503   2.543   9.390 -0.3408  0.2443 -0.2401
  112OSM    HNF11578   0.473   2.633   9.359  1.3739  1.3174  1.0741
  112OSM    C2S11579   0.420   2.487   9.494 -0.2334  0.2742  0.3233
  112OSM    H2S11580   0.419   2.376   9.480 -0.4532  0.4797 -1.5522
  112OSM    C3S11581   0.269   2.534   9.468  0.1642  0.8471  0.1502
  112OSM    H3S11582   0.248   2.638   9.500 -0.6965  0.8480 -0.3844
  112OSM     O311583   0.177   2.464   9.556  0.7898  0.7042  0.3159
  112OSM    HO311584   0.232   2.426   9.624  0.5575 -0.7212 -0.2648
  112OSM    C4S11585   0.226   2.488   9.330  0.2613 -0.0597  0.0766
  112OSM    H4S11586   0.229   2.379   9.310  1.8410 -0.1620  0.6851
  112OSM    C5S11587   0.185   2.574   9.234  0.1180  0.9910 -0.4109
  112OSM    H5S11588   0.167   2.677   9.267 -0.9194  0.8766 -0.5845
  112OSM    C6S11589   0.140   2.514   9.100 -0.6329  0.0307 -0.6990
  112OSM    H6S11590   0.199   2.425   9.069 -1.1597 -0.8503  0.7307
  112OSM    H6T11591   0.149   2.591   9.021  0.4497  1.8437  1.0949
  112OSM    C7S11592  -0.009   2.459   9.095  0.9778  0.0201  0.2216
  112OSM    H7S11593  -0.071   2.550   9.107 -1.0209 -1.2665  0.1363
  112OSM    H7T11594  -0.021   2.389   9.180 -1.7322  1.2615  0.9550
  112OSM    C8S11595  -0.045   2.390   8.965  0.1497 -0.2819  0.2154
  112OSM    H8S11596  -0.149   2.353   8.974 -0.2856  0.9785  0.5841
  112OSM    H8T11597   0.030   2.308   8.951 -1.7652 -1.8492 -1.4163
  112OSM    C9S11598  -0.051   2.478   8.837 -0.8781  0.5739  0.3814
  112OSM    H9S11599   0.052   2.470   8.795 -1.2513 -1.6623 -0.2587
  112OSM    H9T11600  -0.078   2.583   8.859 -2.7521  0.4529 -1.0977
  112OSM   C10S11601  -0.144   2.407   8.742  0.1426  0.3076  0.3544
  112OSM   H10S11602  -0.247   2.398   8.782  0.3600 -1.0753  0.6449
  112OSM   H10T11603  -0.108   2.303   8.730  1.0100  0.2885  2.5899
  112OSM   C11S11604  -0.158   2.462   8.598 -0.0092 -0.1353  0.3620
  112OSM   H11S11605  -0.074   2.417   8.540 -1.1366  2.2055 -3.4307
  112OSM   H11T11606  -0.148   2.572   8.598  2.2581 -0.2606  2.4975
  112OSM   C12S11607  -0.288   2.412   8.524 -0.1318 -1.0784  0.5284
  112OSM   H12S11608  -0.379   2.451   8.574  0.6814  0.2550  1.0073
  112OSM   H12T11609  -0.276   2.302   8.534 -0.7118 -1.1023  0.9765
  112OSM   C13S11610  -0.278   2.443   8.377  0.2141  0.2007  0.3335
  112OSM   H13S11611  -0.184   2.409   8.329 -0.0570  1.1033 -0.8588
  112OSM   H13T11612  -0.296   2.550   8.355 -1.5970 -0.3380 -1.0248
  112OSM   C14S11613  -0.392   2.374   8.299 -0.4779  0.1854  0.4584
  112OSM   H14S11614  -0.406   2.421   8.199  1.5491 -0.2326 -0.0639
  112OSM   H14T11615  -0.490   2.376   8.353 -1.2086 -1.0355 -0.7678
  112OSM   C15S11616  -0.367   2.234   8.256  0.9593 -0.2125 -0.3336
  112OSM   H15S11617  -0.389   2.179   8.350 -0.7626  2.2440  0.8073
  112OSM   H15T11618  -0.266   2.206   8.219  0.2226 -1.4891 -1.4644
  112OSM   C16S11619  -0.459   2.182   8.142 -0.1814 -1.1107 -0.5668
  112OSM   H16S11620  -0.474   2.251   8.057 -2.4903 -0.8533 -0.0147
  112OSM   H16T11621  -0.560   2.174   8.187 -0.4977  0.3355 -0.9705
  112OSM   C17S11622  -0.425   2.037   8.101  0.1573 -0.6231  0.6058
  112OSM   H17S11623  -0.451   1.960   8.177 -2.6539 -1.0285 -0.6880
  112OSM   H17T11624  -0.315   2.042   8.087  0.1118 -1.6641 -0.2367
  112OSM   C18S11625  -0.502   1.999   7.980  0.4054 -0.1052  0.0825
  112OSM   H18S11626  -0.606   1.992   8.019  0.3214  1.9691  0.2999
  112OSM   H18T11627  -0.457   1.904   7.943 -1.2874 -1.4000  1.1860
  112OSM   H18U11628  -0.512   2.077   7.903  0.8767 -0.3576 -0.2398
  112OSM    C1F11629   0.627   2.510   9.377 -0.2494  0.6464  0.2556
  112OSM     OF11630   0.679   2.416   9.438  0.1081  0.5169  0.1002
  112OSM    C2F11631   0.712   2.608   9.298 -0.3549 -0.3395 -0.1474
  112OSM    H2F11632   0.822   2.598   9.308 -0.3450  0.1200  0.2068
  112OSM    H2G11633   0.679   2.709   9.330  1.1017  0.3747 -0.7837
  112OSM    C3F11634   0.685   2.578   9.141 -0.2239 -0.6042 -0.1298
  112OSM    H3F11635   0.670   2.468   9.134 -2.0888 -0.5053  1.5074
  112OSM    H3G11636   0.780   2.597   9.086 -0.3777 -1.8924 -0.8781
  112OSM    C4F11637   0.573   2.666   9.079 -0.2240 -0.7562 -0.6855
  112OSM    H4F11638   0.623   2.764   9.061  0.7499 -0.5257  2.6202
  112OSM    H4G11639   0.487   2.690   9.144  1.0315 -0.2993  0.8586
  112OSM    C5F11640   0.528   2.623   8.938  1.2323 -0.2941 -0.1153
  112OSM    H5F11641   0.488   2.519   8.940  1.8432 -0.5241  0.0608
  112OSM    H5G11642   0.618   2.621   8.874  1.0168 -2.8802 -0.4399
  112OSM    C6F11643   0.420   2.711   8.864 -0.1597 -0.2815  0.0379
  112OSM    H6F11644   0.479   2.770   8.791  2.2622 -1.8885  0.5727
  112OSM    H6G11645   0.366   2.774   8.938 -0.1058  0.5853 -0.6495
  112OSM    C7F11646   0.316   2.636   8.786 -0.0968 -0.7939  0.1211
  112OSM    H7F11647   0.249   2.581   8.855  1.7231 -2.1169  0.9385
  112OSM    H7G11648   0.372   2.562   8.725 -0.6495  0.4020 -1.9188
  112OSM    C8F11649   0.255   2.723   8.677  0.0395  0.1308  0.3162
  112OSM    H8F11650   0.332   2.785   8.626 -1.0094  1.9322  0.8158
  112OSM    H8G11651   0.198   2.798   8.736 -3.4514 -1.4597 -0.7790
  112OSM    C9F11652   0.158   2.651   8.588  0.0788 -0.3967 -0.5079
  112OSM    H9F11653   0.063   2.625   8.639  1.2177  0.1585  2.0836
  112OSM   C10F11654   0.164   2.643   8.453  0.0251  0.5105 -0.1322
  112OSM   H10F11655   0.067   2.615   8.408 -0.4735 -0.8772  1.7065
  112OSM   C11F11656   0.272   2.695   8.363  0.6240  0.5526  0.4471
  112OSM   H11F11657   0.275   2.638   8.267  0.6365 -2.6967  2.2291
  112OSM   H11G11658   0.375   2.692   8.404  1.2197  1.0387 -0.9419
  112OSM   C12F11659   0.234   2.841   8.332 -0.5117  0.0695 -0.2820
  112OSM   H12F11660   0.251   2.907   8.420  1.7067 -0.0068 -0.5811
  112OSM   H12G11661   0.129   2.853   8.299 -0.8179  2.0007  1.2077
  112OSM   C13F11662   0.309   2.897   8.211  0.0261  0.0891 -0.0969
  112OSM   H13F11663   0.297   2.828   8.126 -0.5788 -0.5670  0.5058
  112OSM   H13G11664   0.419   2.904   8.223 -0.2219  1.3934  1.9615
  112OSM   C14F11665   0.278   3.046   8.173  0.1997  0.0839 -0.5906
  112OSM   H14F11666   0.286   3.118   8.258  0.5663  0.5196 -0.9884
  112OSM   H14G11667   0.174   3.036   8.138  0.0466  0.7241 -0.3219
  112OSM   C15F11668   0.363   3.100   8.061  0.1298 -0.3476 -0.3769
  112OSM   H15F11669   0.349   3.034   7.973  1.0152 -2.3222  0.8811
  112OSM   H15G11670   0.471   3.088   8.082  0.7483  4.2678 -0.0493
  112OSM   C16F11671   0.335   3.251   8.033 -0.1642 -0.2630 -0.5150
  112OSM   H16F11672   0.357   3.302   8.130 -2.8857 -0.0368  0.0728
  112OSM   H16G11673   0.227   3.267   8.015 -0.4295  1.0790  1.8674
  112OSM   C17F11674   0.418   3.326   7.928  0.5517  0.4838 -0.3248
  112OSM   H17F11675   0.523   3.316   7.964  0.3793 -1.7965 -0.2587
  112OSM   H17G11676   0.384   3.431   7.930  0.1246  0.3650  2.2794
  112OSM   C18F11677   0.404   3.266   7.787 -0.6449 -0.1684 -0.0634
  112OSM   H18F11678   0.470   3.333   7.727 -1.4263  2.5619  1.9402
  112OSM   H18G11679   0.298   3.274   7.754 -0.4728  0.5169 -0.4846
  112OSM   H18H11680   0.439   3.161   7.784  0.5296  0.2091  0.0322
  113OSM      N11681   0.362   2.083   9.902  1.2610  0.8987 -0.3245
  113OSM    C1511682   0.329   2.142   9.763 -0.2361 -0.1263 -0.7811
  113OSM   H15A11683   0.232   2.121   9.721  1.0000  0.2750 -4.1240
  113OSM   H15B11684   0.404   2.100   9.698 -0.9896 -1.4053 -0.8481
  113OSM   H15C11685   0.351   2.248   9.757  0.1068 -0.2503 -2.3085
  113OSM    C1411686   0.357   1.931   9.884 -0.0587 -0.1239 -0.2395
  113OSM   H14A11687   0.431   1.889   9.818 -1.6764 -2.7364 -0.5861
  113OSM   H14B11688   0.263   1.898   9.841 -0.2776  2.3247 -1.7731
  113OSM   H14C11689   0.377   1.881   9.978  0.2834 -2.7605 -1.6134
  113OSM    C1311690   0.493   2.132   9.944  0.4426 -0.0207 -0.3750
  113OSM   H13A11691   0.500   2.239   9.941 -1.3090  0.3887  3.5382
  113OSM   H13B11692   0.565   2.081   9.882  0.1780 -0.8050 -0.0484
  113OSM   H13C11693   0.513   2.099  10.046 -0.0259  0.0840 -0.2479
  113OSM    C1211694   0.265   2.128  10.009 -0.5215 -0.5231 -0.4343
  113OSM   H12A11695   0.294   2.231  10.024  0.7437 -0.6696 -1.6130
  113OSM   H12B11696   0.284   2.072  10.099 -3.2844 -2.5664 -0.9669
  113OSM    C1111697   0.108   2.125   9.983 -0.4642  0.3536  0.4721
  113OSM   H11A11698   0.087   2.197   9.902 -1.5749 -0.5326 -0.0605
  113OSM   H11B11699   0.063   2.161  10.078  0.2115 -2.5290  2.0274
  113OSM      P11700  -0.080   1.958   9.927 -0.3315 -0.1370  0.0666
  113OSM    O1311701  -0.110   1.822   9.985 -0.5189 -0.0892  0.3870
  113OSM    O1411702  -0.158   2.071   9.974  0.5930  0.4360 -0.2484
  113OSM    O1111703  -0.096   1.961   9.765 -0.3584  0.1451 -0.4266
  113OSM    O1211704   0.069   1.993   9.951 -0.3601 -0.0803  0.4056
  113OSM    C1S11705  -0.021   1.852   9.698 -1.0234  0.4331 -0.4808
  113OSM    H1S11706  -0.062   1.757   9.738 -0.4339  0.5491  0.4296
  113OSM    H1T11707   0.085   1.858   9.732 -1.4400 -1.8035  1.4200
  113OSM     NF11708   0.029   1.726   9.491  0.5680 -0.3176 -0.6443
  113OSM    HNF11709   0.125   1.723   9.463  1.3305 -1.7695  1.7595
  113OSM    C2S11710  -0.019   1.857   9.543  0.4060 -0.4718  0.2872
  113OSM    H2S11711  -0.126   1.873   9.521  0.8749  1.5941 -0.7340
  113OSM    C3S11712   0.052   1.989   9.501 -0.0021  0.2322 -0.0817
  113OSM    H3S11713   0.156   1.992   9.541  0.9352  0.7896 -2.3881
  113OSM     O311714  -0.010   2.103   9.556 -0.2604  0.4021 -0.7958
  113OSM    HO311715  -0.052   2.068   9.635 -0.1149  0.4686 -0.6880
  113OSM    C4S11716   0.044   2.001   9.349  0.0556 -0.1507  0.1573
  113OSM    H4S11717  -0.056   2.035   9.318  0.3841 -1.4457 -2.7029
  113OSM    C5S11718   0.138   1.962   9.262 -0.1310  0.1435  0.0219
  113OSM    H5S11719   0.227   1.904   9.290  1.1484  0.3536 -3.2156
  113OSM    C6S11720   0.117   1.956   9.114  1.1321  0.2409  0.7937
  113OSM    H6S11721   0.096   1.851   9.086  1.9886  0.2153  0.2076
  113OSM    H6T11722   0.202   1.995   9.054  1.2777  2.1545  2.1183
  113OSM    C7S11723  -0.000   2.046   9.066  0.3374 -0.3463 -0.0668
  113OSM    H7S11724   0.018   2.144   9.116  0.9485 -0.2078 -0.5554
  113OSM    H7T11725  -0.099   2.010   9.101  0.1647  0.9638  0.9247
  113OSM    C8S11726   0.003   2.060   8.915  0.9161 -0.3709 -0.2132
  113OSM    H8S11727   0.103   2.065   8.867 -0.2115  0.2295 -2.7048
  113OSM    H8T11728  -0.048   2.155   8.887  1.0656  0.2651  1.5862
  113OSM    C9S11729  -0.068   1.940   8.845  0.3416 -0.4186 -0.1565
  113OSM    H9S11730  -0.161   1.920   8.901  1.2714  1.2116  2.1464
  113OSM    H9T11731  -0.002   1.851   8.853  0.6059 -0.1054  1.5566
  113OSM   C10S11732  -0.098   1.978   8.696  0.2970 -0.3958 -0.2390
  113OSM   H10S11733  -0.007   2.029   8.659 -0.0102 -0.2177 -0.7604
  113OSM   H10T11734  -0.186   2.046   8.693  0.3641 -0.3020 -0.0837
  113OSM   C11S11735  -0.122   1.854   8.609  0.1698 -0.0486  0.1122
  113OSM   H11S11736  -0.218   1.805   8.638  0.4758 -1.8274 -1.6309
  113OSM   H11T11737  -0.048   1.773   8.626 -0.3168 -1.1635 -2.5317
  113OSM   C12S11738  -0.116   1.886   8.460  0.7506 -0.2597 -0.6216
  113OSM   H12S11739  -0.017   1.932   8.438  0.1002  0.1953 -2.8232
  113OSM   H12T11740  -0.191   1.961   8.429  1.4528  0.4839 -0.5769
  113OSM   C13S11741  -0.138   1.763   8.370  0.8106 -0.6173 -1.1207
  113OSM   H13S11742  -0.240   1.727   8.394  0.7518 -1.4167 -2.4960
  113OSM   H13T11743  -0.067   1.688   8.412  0.2779 -1.9575 -2.5152
  113OSM   C14S11744  -0.112   1.789   8.222 -0.3184 -0.0143  0.3310
  113OSM   H14S11745  -0.032   1.866   8.211  0.8630 -1.3166 -0.4516
  113OSM   H14T11746  -0.210   1.829   8.187 -0.3746 -0.4853 -0.0524
  113OSM   C15S11747  -0.075   1.667   8.136 -0.1113 -1.0195 -0.9228
  113OSM   H15S11748  -0.157   1.596   8.158 -2.9584  2.4437  0.5551
  113OSM   H15T11749   0.025   1.633   8.171  0.5013  1.8595  0.3912
  113OSM   C16S11750  -0.069   1.688   7.985  0.8171 -0.3066 -0.6994
  113OSM   H16S11751  -0.010   1.782   7.972  2.5794 -1.4514 -1.3064
  113OSM   H16T11752  -0.174   1.697   7.952 -0.0140 -0.5220  1.7078
  113OSM   C17S11753   0.001   1.564   7.923 -0.1639  0.2316  0.4572
  113OSM   H17S11754  -0.068   1.477   7.930 -0.5746  0.5169 -0.0458
  113OSM   H17T11755   0.096   1.538   7.975  0.4419 -0.3799 -0.8908
  113OSM   C18S11756   0.039   1.581   7.776  0.6031  0.5284 -0.5682
  113OSM   H18S11757  -0.060   1.593   7.727 -0.6200  2.5370  2.1486
  113OSM   H18T11758   0.084   1.486   7.741  0.1697 -0.5002  1.5105
  113OSM   H18U11759   0.089   1.678   7.755 -0.1796  1.5741  2.0605
  113OSM    C1F11760  -0.040   1.612   9.501  0.8962  0.1572 -0.7395
  113OSM     OF11761  -0.153   1.606   9.550 -0.2086 -0.5469 -0.4952
  113OSM    C2F11762   0.027   1.488   9.451  0.5567 -0.3803 -0.0767
  113OSM    H2F11763  -0.050   1.415   9.418  0.4666 -0.4435  0.2642
  113OSM    H2G11764   0.064   1.424   9.534 -2.5161 -0.7390  1.1649
  113OSM    C3F11765   0.137   1.514   9.345  0.1697 -0.4099  0.1869
  113OSM    H3F11766   0.229   1.555   9.394  0.4822  0.3077 -0.9624
  113OSM    H3G11767   0.097   1.585   9.269 -0.7546 -2.0995 -0.9672
  113OSM    C4F11768   0.175   1.386   9.276  0.1829 -0.3658 -0.3532
  113OSM    H4F11769   0.083   1.330   9.251 -0.6392  0.0882  1.5125
  113OSM    H4G11770   0.229   1.320   9.348  0.1343 -0.3562 -0.3079
  113OSM    C5F11771   0.262   1.399   9.157 -0.1860  0.7635 -0.1254
  113OSM    H5F11772   0.368   1.412   9.190 -0.5204  0.5125  1.1002
  113OSM    H5G11773   0.229   1.489   9.100 -0.4305  0.7607  0.0133
  113OSM    C6F11774   0.259   1.267   9.065 -0.0199 -0.0455  0.1432
  113OSM    H6F11775   0.153   1.234   9.061  0.0361 -1.1452  3.8337
  113OSM    H6G11776   0.318   1.192   9.123  2.4293  1.2905 -0.4836
  113OSM    C7F11777   0.326   1.285   8.931 -0.1672 -0.2707 -0.6442
  113OSM    H7F11778   0.431   1.313   8.957  0.0934 -1.8779  0.1016
  113OSM    H7G11779   0.286   1.375   8.879 -0.3200 -0.0184 -0.0955
  113OSM    C8F11780   0.340   1.157   8.853 -0.1125  0.6243 -0.2412
  113OSM    H8F11781   0.360   1.076   8.927 -0.4868 -0.2522 -1.0680
  113OSM    H8G11782   0.432   1.156   8.791  0.1771  0.4893  0.1845
  113OSM    C9F11783   0.212   1.121   8.780  0.3773 -0.4076 -0.1240
  113OSM    H9F11784   0.120   1.116   8.841  1.5701  0.8534  1.8769
  113OSM   C10F11785   0.200   1.100   8.642 -0.6560  0.0827  0.2388
  113OSM   H10F11786   0.114   1.040   8.608  1.1116 -1.5769 -1.6113
  113OSM   C11F11787   0.303   1.112   8.537 -0.5979 -0.1081 -0.1127
  113OSM   H11F11788   0.398   1.149   8.581  0.2365 -1.4856 -0.6961
  113OSM   H11G11789   0.262   1.175   8.455 -0.6028  0.3178  0.2103
  113OSM   C12F11790   0.331   0.978   8.474  0.1378  0.0434 -0.1749
  113OSM   H12F11791   0.241   0.919   8.444  0.4629 -0.6817  0.2643
  113OSM   H12G11792   0.387   0.913   8.544  0.1861 -0.2233 -0.4591
  113OSM   C13F11793   0.414   0.998   8.348 -0.3570  0.3695  0.5036
  113OSM   H13F11794   0.508   1.052   8.375 -0.6462 -0.1944  2.8403
  113OSM   H13G11795   0.353   1.063   8.281 -1.4432  0.2402  1.3420
  113OSM   C14F11796   0.448   0.858   8.287  0.0784  0.0332 -0.7934
  113OSM   H14F11797   0.366   0.784   8.294  1.0422 -0.8883  2.2851
  113OSM   H14G11798   0.526   0.819   8.355  0.2798  1.1100 -0.3853
  113OSM   C15F11799   0.494   0.885   8.140  0.2201  0.1149  0.3704
  113OSM   H15F11800   0.570   0.965   8.128  0.3885  0.0526  1.0277
  113OSM   H15G11801   0.399   0.919   8.093  0.0394 -0.6854  0.1312
  113OSM   C16F11802   0.545   0.766   8.058 -0.3408 -0.0473  0.3602
  113OSM   H16F11803   0.482   0.676   8.077  1.1511 -0.8346  1.7732
  113OSM   H16G11804   0.648   0.746   8.093  0.9308  2.8854 -1.3529
  113OSM   C17F11805   0.564   0.797   7.906  0.2580 -0.5864  0.0739
  113OSM   H17F11806   0.640   0.877   7.894  0.4664 -0.6854  0.6991
  113OSM   H17G11807   0.466   0.832   7.869  0.5704  0.5119  0.2433
  113OSM   C18F11808   0.617   0.674   7.834  0.1695  0.3153 -0.0697
  113OSM   H18F11809   0.549   0.645   7.751  1.0575 -2.9521  0.2251
  113OSM   H18G11810   0.602   0.583   7.895  1.0224  0.8796  1.0210
  113OSM   H18H11811   0.726   0.682   7.817  0.1683  0.3946 -0.0406
  114OSM      N11812   0.569   0.537   9.991 -0.1974  0.3204 -0.0656
  114OSM    C1511813   0.684   0.449   9.950  0.1126  0.2896 -0.0395
  114OSM   H15A11814   0.689   0.450   9.842  0.0908  2.7623 -0.0615
  114OSM   H15B11815   0.672   0.343   9.970 -1.2264  0.6487  1.2772
  114OSM   H15C11816   0.773   0.484   9.998 -1.8725  0.6139  3.7927
  114OSM    C1411817   0.567   0.557  10.134 -0.2811 -0.0982 -0.9721
  114OSM   H14A11818   0.557   0.464  10.189 -0.8557  0.7547  0.4207
  114OSM   H14B11819   0.480   0.615  10.160 -1.0685 -1.9231  0.7622
  114OSM   H14C11820   0.659   0.602  10.169  0.1273 -1.3171 -0.4021
  114OSM    C1311821   0.581   0.661   9.919  0.8725  0.5074 -0.0190
  114OSM   H13A11822   0.507   0.733   9.949  0.3947 -0.2169  0.5729
  114OSM   H13B11823   0.570   0.636   9.815 -0.3172  0.0711  0.2077
  114OSM   H13C11824   0.678   0.704   9.940  2.1435 -2.3142  0.3328
  114OSM    C1211825   0.436   0.464   9.966  0.9064  0.7689  0.6588
  114OSM   H12A11826   0.360   0.536   9.995  2.3083  0.9947  4.2478
  114OSM   H12B11827   0.425   0.376  10.027 -0.9430 -1.2038 -2.2643
  114OSM    C1111828   0.400   0.412   9.827 -0.2594  0.1422 -0.0064
  114OSM   H11A11829   0.462   0.324   9.801 -0.6945  0.1378 -1.1078
  114OSM   H11B11830   0.426   0.474   9.738  0.1073 -0.2112 -0.1486
  114OSM      P11831   0.142   0.454   9.789  0.5103  0.2845 -0.2216
  114OSM    O1311832   0.021   0.370   9.807 -0.5980 -0.3564  0.4663
  114OSM    O1411833   0.154   0.584   9.856  0.0849  0.0948 -0.0362
  114OSM    O1111834   0.162   0.477   9.638  0.4469 -0.1919  0.6154
  114OSM    O1211835   0.266   0.369   9.829 -0.4455 -0.2335 -0.0432
  114OSM    C1S11836   0.176   0.386   9.525 -0.4959  0.2024  0.2102
  114OSM    H1S11837   0.102   0.303   9.524  0.4336 -0.8442  3.5656
  114OSM    H1T11838   0.276   0.338   9.539 -0.1803  0.9300  0.5077
  114OSM     NF11839   0.160   0.345   9.284 -0.1460  0.1557 -1.2777
  114OSM    HNF11840   0.236   0.332   9.222 -1.1946 -0.2891 -2.5081
  114OSM    C2S11841   0.168   0.451   9.387  0.3260 -0.5536  0.3916
  114OSM    H2S11842   0.073   0.505   9.407 -0.3910 -2.4445  2.5381
  114OSM    C3S11843   0.283   0.556   9.375 -0.2242  0.3650  0.5184
  114OSM    H3S11844   0.377   0.497   9.378 -0.7827 -0.6995 -1.3663
  114OSM     O311845   0.292   0.655   9.475 -0.0300  0.6342  0.3459
  114OSM    HO311846   0.242   0.619   9.549  3.0629 -1.7234  1.5202
  114OSM    C4S11847   0.277   0.619   9.238 -0.0434 -0.4288  0.3685
  114OSM    H4S11848   0.321   0.562   9.154 -2.5345 -1.7450 -0.1447
  114OSM    C5S11849   0.193   0.719   9.207 -0.0858 -0.1749 -0.0061
  114OSM    H5S11850   0.146   0.779   9.287 -0.6096  0.5715 -0.8614
  114OSM    C6S11851   0.162   0.767   9.065 -0.0330 -0.1203  0.0706
  114OSM    H6S11852   0.219   0.858   9.037  0.0026 -1.0034 -3.0216
  114OSM    H6T11853   0.057   0.801   9.069  0.9374  3.0915  1.9344
  114OSM    C7S11854   0.189   0.667   8.953  0.2135 -0.1156  0.1903
  114OSM    H7S11855   0.129   0.575   8.967  2.0721 -1.4532 -0.2480
  114OSM    H7T11856   0.296   0.638   8.951 -0.4595 -2.9506  0.6279
  114OSM    C8S11857   0.157   0.732   8.814  0.1299 -0.0508  0.9026
  114OSM    H8S11858   0.229   0.817   8.815  0.2207 -0.1150  2.0874
  114OSM    H8T11859   0.053   0.769   8.824  0.1386 -0.3278  2.2763
  114OSM    C9S11860   0.174   0.641   8.687 -0.2886  0.3140 -0.3649
  114OSM    H9S11861   0.162   0.707   8.598 -1.1794  1.9501  0.9187
  114OSM    H9T11862   0.092   0.566   8.686 -1.3115  1.3919 -1.2163
  114OSM   C10S11863   0.309   0.563   8.673  0.0853  0.0466 -0.1018
  114OSM   H10S11864   0.352   0.525   8.768  1.5580  0.2883 -0.6329
  114OSM   H10T11865   0.373   0.649   8.642 -2.3144  1.3709 -1.7467
  114OSM   C11S11866   0.305   0.461   8.566  0.0487  0.4794 -1.2096
  114OSM   H11S11867   0.407   0.439   8.527  1.5966  3.1114  1.0083
  114OSM   H11T11868   0.242   0.502   8.484 -0.9419  1.6357  0.0854
  114OSM   C12S11869   0.243   0.323   8.606 -0.5443 -0.3525 -0.0119
  114OSM   H12S11870   0.233   0.274   8.507 -1.6090  2.6625 -1.5100
  114OSM   H12T11871   0.141   0.336   8.649 -1.2067 -1.3997 -1.2181
  114OSM   C13S11872   0.339   0.260   8.704 -0.0051  0.1986 -0.3218
  114OSM   H13S11873   0.336   0.314   8.802 -1.4902 -2.6090  1.3174
  114OSM   H13T11874   0.441   0.259   8.661  0.0410  0.8670 -0.2392
  114OSM   C14S11875   0.297   0.110   8.728 -0.7527  0.1054 -0.3357
  114OSM   H14S11876   0.283   0.061   8.629 -0.3832  1.7701 -1.2670
  114OSM   H14T11877   0.201   0.117   8.784  0.2876  2.5184  1.3294
  114OSM   C15S11878   0.409   0.039   8.818  0.0234 -0.2836  0.0648
  114OSM   H15S11879   0.357  -0.045   8.870 -0.1664  1.0479  2.1417
  114OSM   H15T11880   0.430   0.107   8.903  0.0567 -2.2588  1.7222
  114OSM   C16S11881   0.535  -0.016   8.749 -0.3764  0.2112 -0.2517
  114OSM   H16S11882   0.609  -0.031   8.831 -1.4166 -0.4661  0.5975
  114OSM   H16T11883   0.580   0.061   8.683 -1.0055  1.5531  0.8411
  114OSM   C17S11884   0.506  -0.148   8.679  0.4005  0.2332 -0.6163
  114OSM   H17S11885   0.591  -0.189   8.620  1.4662  2.6074 -0.8366
  114OSM   H17T11886   0.435  -0.108   8.603  1.3948  0.7357 -1.3126
  114OSM   C18S11887   0.461  -0.260   8.775 -0.1095  0.0116 -0.5957
  114OSM   H18S11888   0.356  -0.250   8.809  0.0455 -2.5531  0.8737
  114OSM   H18T11889   0.522  -0.260   8.868 -0.5597  0.3360 -0.2932
  114OSM   H18U11890   0.460  -0.356   8.721 -1.1161  1.2575 -2.9427
  114OSM    C1F11891   0.051   0.269   9.271  0.6956 -0.0761  0.3968
  114OSM     OF11892  -0.059   0.294   9.325 -0.0565 -0.2962 -0.2932
  114OSM    C2F11893   0.062   0.135   9.192 -0.0566  0.0898  0.0697
  114OSM    H2F11894   0.040   0.050   9.260  1.1409 -0.2700  0.0278
  114OSM    H2G11895   0.164   0.119   9.149 -0.1458  2.2824 -1.1611
  114OSM    C3F11896  -0.053   0.109   9.091 -0.4596 -0.2442 -0.3394
  114OSM    H3F11897  -0.150   0.117   9.145 -0.3662  2.3737 -0.4539
  114OSM    H3G11898  -0.041   0.002   9.065 -1.1970 -0.2673 -0.6013
  114OSM    C4F11899  -0.046   0.190   8.963  1.0465  0.2356 -0.3792
  114OSM    H4F11900   0.052   0.184   8.912  0.3248  0.7958 -1.9250
  114OSM    H4G11901  -0.061   0.295   8.996  0.7713 -0.8293  3.2744
  114OSM    C5F11902  -0.151   0.150   8.852 -0.0429  0.1937 -0.6157
  114OSM    H5F11903  -0.245   0.136   8.909  1.3474 -0.1387  1.7114
  114OSM    H5G11904  -0.122   0.054   8.805 -0.2052 -0.0681 -0.1797
  114OSM    C6F11905  -0.174   0.247   8.745 -0.5594  0.1117  0.2717
  114OSM    H6F11906  -0.115   0.224   8.654  0.0644  3.4031 -0.2663
  114OSM    H6G11907  -0.144   0.345   8.787  1.2454 -0.6695  0.9200
  114OSM    C7F11908  -0.315   0.246   8.684 -0.1633  0.0878 -0.4549
  114OSM    H7F11909  -0.384   0.277   8.765 -1.5792 -0.6654 -1.3292
  114OSM    H7G11910  -0.343   0.144   8.650  2.3763 -0.5967 -0.6972
  114OSM    C8F11911  -0.322   0.332   8.557  0.1944  0.4817  0.5155
  114OSM    H8F11912  -0.422   0.320   8.510  1.0031  0.3937 -1.2640
  114OSM    H8G11913  -0.254   0.288   8.481 -2.4463 -0.4040 -1.5024
  114OSM    C9F11914  -0.278   0.479   8.577  0.1607  0.3225 -0.7031
  114OSM    H9F11915  -0.250   0.501   8.681  0.4746  0.5616 -0.8376
  114OSM   C10F11916  -0.317   0.579   8.504 -0.2336 -0.6247  0.4854
  114OSM   H10F11917  -0.297   0.685   8.522  4.4201 -1.5038  1.5845
  114OSM   C11F11918  -0.383   0.565   8.368  0.2416 -0.2742 -0.1771
  114OSM   H11F11919  -0.365   0.470   8.312 -1.6387  0.9076 -3.0258
  114OSM   H11G11920  -0.353   0.649   8.302  1.4301 -1.1552 -0.7908
  114OSM   C12F11921  -0.535   0.566   8.392 -0.2798 -0.0740 -0.2882
  114OSM   H12F11922  -0.554   0.652   8.461 -0.4724  1.5526 -2.2677
  114OSM   H12G11923  -0.560   0.472   8.445  3.1518 -0.9899 -0.0412
  114OSM   C13F11924  -0.618   0.583   8.266  0.4167  0.1731  0.4850
  114OSM   H13F11925  -0.603   0.498   8.196 -0.4361  0.6995 -0.3591
  114OSM   H13G11926  -0.593   0.673   8.207 -0.0130 -0.8417 -1.3022
  114OSM   C14F11927  -0.771   0.585   8.279 -0.6956 -0.0136  0.3016
  114OSM   H14F11928  -0.799   0.668   8.347  1.2200 -0.0160  1.1507
  114OSM   H14G11929  -0.810   0.495   8.331  0.0654 -0.4695  0.0950
  114OSM   C15F11930  -0.837   0.601   8.144 -0.3794 -0.8012  0.1049
  114OSM   H15F11931  -0.781   0.544   8.066  0.2558 -2.2295  1.5467
  114OSM   H15G11932  -0.838   0.710   8.124 -0.0310 -0.3919  2.1694
  114OSM   C16F11933  -0.978   0.559   8.132 -0.4139 -0.1308 -0.6345
  114OSM   H16F11934  -1.018   0.601   8.227  0.1450  0.8121 -0.8069
  114OSM   H16G11935  -0.984   0.448   8.134  1.4701 -0.2455  0.4565
  114OSM   C17F11936  -1.060   0.634   8.028  0.1122  0.4552 -0.0760
  114OSM   H17F11937  -1.038   0.743   8.023 -1.1421  0.7541  0.6306
  114OSM   H17G11938  -1.166   0.618   8.053  0.4642 -0.7518  0.6904
  114OSM   C18F11939  -1.053   0.577   7.889 -0.4309 -0.2075 -0.3479
  114OSM   H18F11940  -0.954   0.602   7.844  0.4453 -2.7876 -0.0106
  114OSM   H18G11941  -1.135   0.623   7.829 -1.4589 -1.3310  0.1629
  114OSM   H18H11942  -1.071   0.468   7.879  1.5649 -0.5759 -0.3406
  115OSM      N11943   3.374   3.854   5.477 -0.1629  0.5398 -0.0250
  115OSM    C1511944   3.348   3.997   5.420  0.6020  0.7748 -0.3911
  115OSM   H15A11945   3.361   3.992   5.313 -1.2596  2.3723 -0.7450
  115OSM   H15B11946   3.407   4.072   5.471 -1.1868  1.4834  0.7109
  115OSM   H15C11947   3.246   4.024   5.438 -0.4900 -3.5988  1.3156
  115OSM    C1411948   3.304   3.758   5.393  1.3286  0.9838  0.0918
  115OSM   H14A11949   3.310   3.658   5.431 -2.7907  0.6391  0.2918
  115OSM   H14B11950   3.347   3.749   5.294  1.1325 -0.1364  0.0968
  115OSM   H14C11951   3.197   3.774   5.391  1.1398  0.1432  1.8758
  115OSM    C1311952   3.518   3.810   5.467 -0.2540  0.0742 -0.4360
  115OSM   H13A11953   3.532   3.711   5.509  0.8793  0.1146 -0.7019
  115OSM   H13B11954   3.589   3.877   5.511  1.7315 -2.7488  0.9938
  115OSM   H13C11955   3.543   3.805   5.362 -2.6889 -0.8377 -1.0403
  115OSM    C1211956   3.329   3.840   5.623  0.2403  0.9765 -0.0149
  115OSM   H12A11957   3.356   3.739   5.652  1.0400  0.5622 -2.0321
  115OSM   H12B11958   3.222   3.848   5.632 -0.5655 -3.7187 -2.3489
  115OSM    C1111959   3.388   3.947   5.715 -0.1956 -0.1738 -0.4383
  115OSM   H11A11960   3.495   3.966   5.693  1.1061 -2.4506  2.9743
  115OSM   H11B11961   3.372   3.906   5.817  1.0773  1.5525  0.5072
  115OSM      P11962   3.180   4.101   5.763 -0.2294  0.1418  0.1143
  115OSM    O1311963   3.148   4.239   5.722 -0.1679 -0.7959 -0.2739
  115OSM    O1411964   3.091   3.988   5.722  0.4258 -0.6536  0.0799
  115OSM    O1111965   3.191   4.100   5.922  0.2919  0.4406 -0.4958
  115OSM    O1211966   3.319   4.072   5.694  0.1231  0.0669 -0.3156
  115OSM    C1S11967   3.285   4.199   5.970 -0.3706 -0.0309  0.3649
  115OSM    H1S11968   3.246   4.300   5.945 -1.3620 -0.3575  0.5300
  115OSM    H1T11969   3.385   4.195   5.922 -0.4581 -0.2074  0.1953
  115OSM     NF11970   3.364   4.317   6.167 -0.1985  0.2854  0.1947
  115OSM    HNF11971   3.459   4.319   6.196 -0.2482 -1.5850  0.6247
  115OSM    C2S11972   3.304   4.195   6.120 -0.0138  0.3131 -0.1416
  115OSM    H2S11973   3.206   4.199   6.173  0.2888  4.9263  0.5202
  115OSM    C3S11974   3.394   4.073   6.166  0.4208 -0.3379  0.0995
  115OSM    H3S11975   3.500   4.087   6.136  0.0708 -1.8764 -2.0522
  115OSM     O311976   3.347   3.948   6.111 -0.3316 -0.0962 -0.3270
  115OSM    HO311977   3.290   3.978   6.039 -0.1852  0.1445 -0.3449
  115OSM    C4S11978   3.387   4.060   6.317  0.1546 -0.1514 -0.2648
  115OSM    H4S11979   3.282   4.052   6.348 -0.5965 -1.6722 -2.8803
  115OSM    C5S11980   3.486   4.085   6.408  0.0822  0.6445  0.1173
  115OSM    H5S11981   3.584   4.120   6.372  0.1901 -0.5221 -0.7778
  115OSM    C6S11982   3.469   4.086   6.562 -0.4676 -0.5509 -0.3645
  115OSM    H6S11983   3.571   4.056   6.596 -0.3728  1.0256  0.8222
  115OSM    H6T11984   3.389   4.018   6.598 -0.4536 -0.7391 -0.6837
  115OSM    C7S11985   3.447   4.229   6.597 -0.2072 -0.1993 -0.9450
  115OSM    H7S11986   3.521   4.305   6.565 -0.0297  1.3804  2.7004
  115OSM    H7T11987   3.449   4.226   6.708  3.7072 -2.9596 -0.8929
  115OSM    C8S11988   3.313   4.294   6.557 -0.3630  0.0505 -0.1180
  115OSM    H8S11989   3.238   4.249   6.626  2.0050 -1.4923  1.6158
  115OSM    H8T11990   3.292   4.281   6.449  1.1929 -0.9938 -0.3316
  115OSM    C9S11991   3.317   4.450   6.590  0.6339  0.1214  0.4877
  115OSM    H9S11992   3.363   4.509   6.508 -0.8368 -0.2950 -0.6795
  115OSM    H9T11993   3.374   4.464   6.684 -0.3640 -2.7931  1.6367
  115OSM   C10S11994   3.171   4.503   6.590  0.4203  0.0296  0.8318
  115OSM   H10S11995   3.134   4.490   6.486 -0.7903  1.9597  0.9858
  115OSM   H10T11996   3.175   4.612   6.609  0.8060 -0.1623  1.8879
  115OSM   C11S11997   3.069   4.445   6.693 -0.5903  0.1473  0.2968
  115OSM   H11S11998   3.062   4.334   6.687 -0.3430  0.1957 -1.1642
  115OSM   H11T11999   2.965   4.468   6.662 -0.9461 -0.5874  0.8889
  115OSM   C12S12000   3.088   4.487   6.840 -0.5328  0.4186 -0.2258
  115OSM   H12S12001   3.076   4.597   6.846 -0.9914  0.3481  0.1718
  115OSM   H12T12002   3.188   4.462   6.881 -0.5845  1.8063  0.7926
  115OSM   C13S12003   2.982   4.427   6.938  0.4884  0.2999  0.1215
  115OSM   H13S12004   2.980   4.318   6.916 -0.0152  0.4407 -0.5550
  115OSM   H13T12005   2.878   4.460   6.916  0.3432  2.6071  3.5176
  115OSM   C14S12006   3.004   4.459   7.083  0.3060 -0.3643  0.1509
  115OSM   H14S12007   3.098   4.409   7.115  0.8027  0.5968  0.2084
  115OSM   H14T12008   2.925   4.416   7.148 -1.3548  2.2790  0.0023
  115OSM   C15S12009   3.010   4.610   7.120 -0.1056 -0.4579  0.1326
  115OSM   H15S12010   2.922   4.644   7.062 -0.0816 -0.3613  0.1536
  115OSM   H15T12011   3.097   4.658   7.071 -2.5019  2.1738 -1.8595
  115OSM   C16S12012   2.997   4.646   7.271 -0.0675  0.0249  0.1066
  115OSM   H16S12013   3.081   4.591   7.319 -1.0912 -0.2881  1.6085
  115OSM   H16T12014   2.897   4.616   7.308 -0.5129 -0.8386 -1.6953
  115OSM   C17S12015   3.023   4.799   7.291 -0.1085 -0.1650 -0.9078
  115OSM   H17S12016   3.112   4.823   7.228 -0.3681 -0.6141 -1.4544
  115OSM   H17T12017   3.032   4.807   7.401 -2.4350  3.7421 -0.7974
  115OSM   C18S12018   2.901   4.882   7.256  0.3617 -0.8025 -0.4635
  115OSM   H18S12019   2.925   4.982   7.299  0.2824 -1.6579  1.7156
  115OSM   H18T12020   2.818   4.829   7.308  1.4077 -2.6926 -0.6072
  115OSM   H18U12021   2.884   4.893   7.147 -2.3960  1.9593  0.1250
  115OSM    C1F12022   3.305   4.436   6.171 -0.0938 -0.2678 -0.0520
  115OSM     OF12023   3.186   4.439   6.155  0.0489  0.3164 -0.3398
  115OSM    C2F12024   3.376   4.561   6.207 -0.0824  0.1572 -0.6118
  115OSM    H2F12025   3.462   4.574   6.139 -0.6880  0.2749 -1.3648
  115OSM    H2G12026   3.419   4.553   6.309  0.2568  0.6093 -0.7209
  115OSM    C3F12027   3.283   4.677   6.175  0.1916 -0.9414 -0.3873
  115OSM    H3F12028   3.184   4.659   6.223 -0.3908  0.9183 -0.8002
  115OSM    H3G12029   3.284   4.701   6.067  0.0551  0.9627  0.0019
  115OSM    C4F12030   3.330   4.807   6.247  0.4744 -0.6544  0.0482
  115OSM    H4F12031   3.273   4.889   6.199 -0.1552 -1.9090 -1.4840
  115OSM    H4G12032   3.439   4.823   6.232  0.4282  1.8534  1.9056
  115OSM    C5F12033   3.300   4.810   6.396  0.6325 -0.1387 -0.0782
  115OSM    H5F12034   3.365   4.735   6.444  1.6967 -0.7484 -2.3408
  115OSM    H5G12035   3.194   4.785   6.421  0.5048  0.8485  0.4011
  115OSM    C6F12036   3.342   4.942   6.471 -0.2050  0.2085 -0.3680
  115OSM    H6F12037   3.261   5.014   6.448  0.0113  0.6727  0.3118
  115OSM    H6G12038   3.440   4.974   6.429  0.6131 -2.2729 -0.5512
  115OSM    C7F12039   3.366   4.913   6.623 -0.1869 -0.0764 -0.1852
  115OSM    H7F12040   3.419   5.001   6.664 -0.9718  0.9466 -1.2869
  115OSM    H7G12041   3.441   4.831   6.632  0.5059  0.5683 -0.0007
  115OSM    C8F12042   3.228   4.883   6.697  0.2651 -0.3280  0.8346
  115OSM    H8F12043   3.179   4.806   6.635 -0.4650  2.2350 -2.0184
  115OSM    H8G12044   3.168   4.976   6.691 -0.6810 -1.0068 -1.2208
  115OSM    C9F12045   3.241   4.843   6.836 -0.3054  0.0425 -0.3069
  115OSM    H9F12046   3.320   4.768   6.846  1.5071  1.7938 -0.7626
  115OSM   C10F12047   3.177   4.884   6.945 -0.3914  0.8974  0.1972
  115OSM   H10F12048   3.221   4.853   7.041  1.3580  1.8971 -0.2212
  115OSM   C11F12049   3.081   4.995   6.952  0.4788 -0.5403  0.4516
  115OSM   H11F12050   2.990   4.969   7.010 -0.6896  0.7315 -0.7315
  115OSM   H11G12051   3.045   5.032   6.853  0.5339  0.0819  0.6634
  115OSM   C12F12052   3.146   5.110   7.026  0.1719 -0.3808 -0.4867
  115OSM   H12F12053   3.190   5.083   7.125  0.3936  0.9773 -0.1929
  115OSM   H12G12054   3.060   5.174   7.054 -0.9380 -0.9943 -2.3265
  115OSM   C13F12055   3.248   5.203   6.952 -0.2378  0.5238 -0.2378
  115OSM   H13F12056   3.201   5.244   6.860 -0.6620  2.2422  0.7029
  115OSM   H13G12057   3.330   5.141   6.910 -0.8209 -1.1139  0.9050
  115OSM   C14F12058   3.293   5.320   7.034 -0.1516 -0.0575  0.5627
  115OSM   H14F12059   3.349   5.271   7.116 -1.7009 -2.0143  0.5233
  115OSM   H14G12060   3.207   5.376   7.077  0.0411  0.7734 -0.1076
  115OSM   C15F12061   3.374   5.413   6.950  0.1793  0.3247  0.4444
  115OSM   H15F12062   3.429   5.351   6.875 -1.5946  1.0384 -1.5429
  115OSM   H15G12063   3.449   5.464   7.015  0.7405  1.7249 -1.2169
  115OSM   C16F12064   3.306   5.527   6.879  0.1270 -0.0883  0.3682
  115OSM   H16F12065   3.229   5.567   6.949  0.3512  0.6197  0.2206
  115OSM   H16G12066   3.250   5.485   6.793 -0.5539 -0.5581  1.0306
  115OSM   C17F12067   3.402   5.639   6.838  0.0541  0.2967  0.3078
  115OSM   H17F12068   3.485   5.587   6.786 -0.5388 -0.8647  0.5088
  115OSM   H17G12069   3.449   5.698   6.920 -0.8980  2.0839 -0.3599
  115OSM   C18F12070   3.333   5.729   6.738  0.6877 -0.6700 -0.1547
  115OSM   H18F12071   3.302   5.686   6.640  1.6341  0.7894 -1.1228
  115OSM   H18G12072   3.394   5.819   6.716 -0.6457  0.3605  0.1767
  115OSM   H18H12073   3.235   5.760   6.781  0.3085 -0.6287 -1.0428
  116OSM      N12074   2.444   1.460   5.666  0.2032  0.3492 -0.3653
  116OSM    C1512075   2.570   1.420   5.592  0.3717 -0.0895 -0.5190
  116OSM   H15A12076   2.660   1.416   5.651 -0.8785  1.8519  1.7168
  116OSM   H15B12077   2.583   1.487   5.508  0.3974 -0.9425 -1.2004
  116OSM   H15C12078   2.550   1.322   5.551  1.2399  0.6735 -2.9549
  116OSM    C1412079   2.340   1.492   5.564  0.4014  0.8467 -0.6345
  116OSM   H14A12080   2.324   1.399   5.512 -2.1891 -0.4826  2.2427
  116OSM   H14B12081   2.369   1.575   5.501  0.2980  1.4223  0.0517
  116OSM   H14C12082   2.238   1.496   5.600  0.6259 -2.2978  0.6503
  116OSM    C1312083   2.398   1.344   5.759 -1.0033 -0.0724 -0.1597
  116OSM   H13A12084   2.464   1.348   5.844  0.4017  0.3724 -1.2324
  116OSM   H13B12085   2.409   1.246   5.714  0.5316  0.2694 -0.5578
  116OSM   H13C12086   2.296   1.361   5.792 -0.2337  1.0368  1.7935
  116OSM    C1212087   2.481   1.582   5.756 -0.0039  0.5201  0.4926
  116OSM   H12A12088   2.555   1.552   5.829  0.0013  0.3193  0.4048
  116OSM   H12B12089   2.397   1.597   5.821 -1.0442 -0.3553 -0.6112
  116OSM    C1112090   2.517   1.714   5.691  0.1252  0.1622  0.1072
  116OSM   H11A12091   2.532   1.787   5.773 -0.1577  0.0590  0.2552
  116OSM   H11B12092   2.426   1.752   5.639 -0.8215 -1.4196  0.5168
  116OSM      P12093   2.773   1.738   5.655  0.2447  0.3983  0.0548
  116OSM    O1312094   2.871   1.658   5.576  0.2459  0.0599  0.0480
  116OSM    O1412095   2.782   1.885   5.644 -0.3068 -0.5589 -0.0353
  116OSM    O1112096   2.772   1.706   5.811  0.0820  0.1781  0.3659
  116OSM    O1212097   2.629   1.707   5.607  0.4842 -0.1719  0.0548
  116OSM    C1S12098   2.903   1.683   5.872  1.0071  0.3726  1.2361
  116OSM    H1S12099   2.972   1.764   5.840  0.5621 -0.0783 -1.0353
  116OSM    H1T12100   2.947   1.583   5.852 -0.2292 -0.3230  1.8416
  116OSM     NF12101   3.026   1.682   6.094  0.6655  0.0948  0.4395
  116OSM    HNF12102   3.051   1.596   6.137 -0.3966  0.6571  2.2844
  116OSM    C2S12103   2.893   1.696   6.030 -0.1984 -0.0800  0.5406
  116OSM    H2S12104   2.862   1.801   6.052 -2.1128 -0.7162  1.0730
  116OSM    C3S12105   2.780   1.608   6.085  0.3907  0.3975 -0.1700
  116OSM    H3S12106   2.810   1.501   6.080  1.2475  0.6449 -0.3303
  116OSM     O312107   2.653   1.609   6.024 -0.2378  0.4232  0.4478
  116OSM    HO312108   2.665   1.646   5.936 -3.9656 -0.8588 -0.7653
  116OSM    C4S12109   2.769   1.639   6.237  0.9563  0.3881  0.6327
  116OSM    H4S12110   2.781   1.748   6.251  2.8287  0.1614  0.9721
  116OSM    C5S12111   2.727   1.562   6.331  0.2083  0.0954  0.4919
  116OSM    H5S12112   2.699   1.462   6.293  0.2421  0.0633  0.5499
  116OSM    C6S12113   2.699   1.581   6.480  0.1093 -0.5676  0.3575
  116OSM    H6S12114   2.590   1.597   6.497  0.5560  0.7076  2.5303
  116OSM    H6T12115   2.754   1.670   6.517 -1.7829  1.2624 -0.9370
  116OSM    C7S12116   2.751   1.475   6.569  0.3637  0.1147 -0.1584
  116OSM    H7S12117   2.860   1.454   6.555 -0.0331 -2.5890  0.2037
  116OSM    H7T12118   2.705   1.376   6.549 -0.6396  0.7205 -0.9366
  116OSM    C8S12119   2.735   1.496   6.722 -0.3240 -0.0280  0.3437
  116OSM    H8S12120   2.729   1.605   6.745  0.5656  1.0208 -3.6032
  116OSM    H8T12121   2.820   1.454   6.781 -0.3816  1.1055  1.2831
  116OSM    C9S12122   2.612   1.427   6.775 -0.0270  0.2838 -0.5815
  116OSM    H9S12123   2.602   1.318   6.754  1.5736 -0.3382  1.5981
  116OSM    H9T12124   2.525   1.472   6.723 -0.4446  0.4730  0.2647
  116OSM   C10S12125   2.587   1.431   6.925 -0.2802 -0.4152 -0.6219
  116OSM   H10S12126   2.580   1.537   6.956 -0.1719  0.0923 -2.2234
  116OSM   H10T12127   2.671   1.386   6.983 -2.9331 -1.8503  2.4236
  116OSM   C11S12128   2.463   1.348   6.969  0.2694  0.1307  0.1582
  116OSM   H11S12129   2.490   1.240   6.963 -0.6861 -0.1083 -0.1492
  116OSM   H11T12130   2.387   1.353   6.888 -2.1360  0.3919  2.3155
  116OSM   C12S12131   2.418   1.390   7.113  0.1701  0.6329 -0.1887
  116OSM   H12S12132   2.382   1.494   7.100  0.3854  0.6101 -1.0089
  116OSM   H12T12133   2.505   1.385   7.181 -0.4053  0.1374  0.5389
  116OSM   C13S12134   2.310   1.289   7.167  0.4336  0.0910 -0.5655
  116OSM   H13S12135   2.338   1.182   7.163 -0.2840 -0.1880  1.0123
  116OSM   H13T12136   2.219   1.299   7.104 -1.2990 -0.9373  1.6350
  116OSM   C14S12137   2.265   1.312   7.316 -0.1198 -0.0441  0.3878
  116OSM   H14S12138   2.218   1.412   7.326  0.5561  0.2300  0.8641
  116OSM   H14T12139   2.360   1.318   7.373  0.4452 -2.3732 -0.2182
  116OSM   C15S12140   2.169   1.208   7.361 -0.1757 -0.0922  0.0427
  116OSM   H15S12141   2.203   1.106   7.331 -1.9233 -0.8830  0.6465
  116OSM   H15T12142   2.067   1.220   7.320 -1.5246 -2.4026  2.3899
  116OSM   C16S12143   2.134   1.184   7.513  0.2361 -0.1433 -0.0242
  116OSM   H16S12144   2.118   1.276   7.573  2.3928  0.3611 -0.1313
  116OSM   H16T12145   2.225   1.146   7.564  0.3351  0.3591  0.1739
  116OSM   C17S12146   2.015   1.089   7.530 -0.6657 -0.0335  0.1409
  116OSM   H17S12147   2.041   0.990   7.487  0.1661 -0.8005  2.2578
  116OSM   H17T12148   1.921   1.125   7.483  0.0721 -1.0209 -2.2736
  116OSM   C18S12149   1.997   1.074   7.687  0.1056 -0.0545 -0.1818
  116OSM   H18S12150   2.095   1.069   7.739 -1.1918 -1.3285  2.2767
  116OSM   H18T12151   1.946   0.977   7.705 -0.2621 -0.1842 -1.7612
  116OSM   H18U12152   1.947   1.165   7.726  1.6762 -0.1937  2.3762
  116OSM    C1F12153   3.118   1.771   6.067  0.7493  0.4530 -0.2931
  116OSM     OF12154   3.096   1.871   5.996  1.0622  0.2056 -0.5604
  116OSM    C2F12155   3.256   1.743   6.108 -0.1603  0.6876  0.9546
  116OSM    H2F12156   3.320   1.731   6.018  0.3739  2.1931  1.1082
  116OSM    H2G12157   3.265   1.645   6.160 -1.9561 -0.3452 -0.5640
  116OSM    C3F12158   3.301   1.860   6.203 -0.2775 -0.4951  0.1509
  116OSM    H3F12159   3.297   1.961   6.157  0.3303  0.2491  1.6914
  116OSM    H3G12160   3.400   1.826   6.237 -0.5034 -2.7397 -1.2267
  116OSM    C4F12161   3.225   1.875   6.340  0.4363 -0.1368 -0.1012
  116OSM    H4F12162   3.117   1.865   6.315  0.3537 -1.1216  0.5961
  116OSM    H4G12163   3.257   1.966   6.395  0.1870 -0.1039 -0.0129
  116OSM    C5F12164   3.249   1.759   6.451  0.5174 -0.3875 -0.0638
  116OSM    H5F12165   3.358   1.749   6.472  0.7343  1.1917 -0.2705
  116OSM    H5G12166   3.219   1.668   6.396  0.3091 -0.8481  0.7972
  116OSM    C6F12167   3.185   1.780   6.588  0.2450 -0.1949 -0.5472
  116OSM    H6F12168   3.223   1.865   6.648 -1.4109  0.2551 -0.0859
  116OSM    H6G12169   3.194   1.684   6.642  0.7657 -0.3161 -0.8475
  116OSM    C7F12170   3.029   1.805   6.571 -0.9743 -0.8197  0.1082
  116OSM    H7F12171   2.994   1.720   6.509 -0.1701  0.3979 -2.1163
  116OSM    H7G12172   3.011   1.894   6.508  2.0388  0.7020  1.1574
  116OSM    C8F12173   2.967   1.813   6.705 -0.4926 -0.3430  0.1049
  116OSM    H8F12174   2.996   1.720   6.759  1.5408  1.3605  2.1823
  116OSM    H8G12175   2.857   1.810   6.688 -0.2857 -2.5634 -1.2046
  116OSM    C9F12176   3.001   1.919   6.807  0.2023  0.1305  0.9706
  116OSM    H9F12177   3.086   1.980   6.774  1.2816 -1.7263  0.1898
  116OSM   C10F12178   2.959   1.925   6.935 -0.1135 -0.4003  0.4064
  116OSM   H10F12179   3.000   2.006   6.998 -2.6036  1.0936  0.2340
  116OSM   C11F12180   2.867   1.825   7.007 -0.1710  0.2394 -0.5285
  116OSM   H11F12181   2.868   1.725   6.957 -0.5227 -0.3950  0.6977
  116OSM   H11G12182   2.761   1.858   7.009 -0.8742 -1.7987 -1.1514
  116OSM   C12F12183   2.921   1.807   7.147  0.6615  0.1417  0.4622
  116OSM   H12F12184   3.028   1.784   7.162  0.9094 -0.0622 -1.4220
  116OSM   H12G12185   2.878   1.712   7.189 -0.0649  1.3959  2.7465
  116OSM   C13F12186   2.867   1.917   7.248 -0.4827 -0.0953 -0.3808
  116OSM   H13F12187   2.781   1.972   7.205 -0.2496 -1.9598 -3.5110
  116OSM   H13G12188   2.948   1.993   7.254  1.1732 -1.7997 -0.1639
  116OSM   C14F12189   2.867   1.865   7.395  0.1680  0.9826 -0.5131
  116OSM   H14F12190   2.968   1.823   7.417 -0.6982 -0.3999  1.0723
  116OSM   H14G12191   2.788   1.787   7.394  0.3028  0.8082  0.6375
  116OSM   C15F12192   2.829   1.978   7.489 -0.2315 -0.1926  0.0810
  116OSM   H15F12193   2.764   2.051   7.436 -0.2523 -1.5073 -1.7827
  116OSM   H15G12194   2.919   2.035   7.518  2.1414 -3.0123 -1.1938
  116OSM   C16F12195   2.764   1.925   7.613 -0.6605  0.4855 -0.0725
  116OSM   H16F12196   2.661   1.886   7.598 -1.2270  2.1177 -0.6431
  116OSM   H16G12197   2.750   2.006   7.687  2.3795  0.8792  0.2141
  116OSM   C17F12198   2.847   1.814   7.686  0.2661 -0.3388  0.0484
  116OSM   H17F12199   2.893   1.743   7.614  3.1514  2.3588 -0.9970
  116OSM   H17G12200   2.766   1.764   7.743 -0.9998  0.2249 -1.2107
  116OSM   C18F12201   2.947   1.851   7.799  0.1612  0.0133  0.5329
  116OSM   H18F12202   2.903   1.932   7.861  2.0669  3.1945 -1.9406
  116OSM   H18G12203   3.038   1.895   7.751  1.2465 -1.6478  0.9710
  116OSM   H18H12204   2.980   1.768   7.865 -0.6997 -1.8017 -1.1958
  117OSM      N12205   1.840   3.550   5.697 -0.2624 -0.6132  0.5922
  117OSM    C1512206   1.785   3.695   5.706  0.2399 -0.4567  0.1939
  117OSM   H15A12207   1.807   3.762   5.625 -1.2351  0.9494  0.8776
  117OSM   H15B12208   1.829   3.747   5.790  0.6976  1.4205 -1.1374
  117OSM   H15C12209   1.677   3.691   5.705  0.1397  0.5060  2.0110
  117OSM    C1412210   1.772   3.465   5.598 -0.1823 -0.1665 -0.2195
  117OSM   H14A12211   1.765   3.512   5.502  0.1659  1.5815  0.5664
  117OSM   H14B12212   1.668   3.442   5.618 -0.5125  0.0929 -1.5785
  117OSM   H14C12213   1.821   3.370   5.584 -3.0015 -1.7954  0.2262
  117OSM    C1312214   1.980   3.571   5.656  0.5468  0.3986 -0.3978
  117OSM   H13A12215   2.029   3.479   5.625  0.3185  0.3556 -0.6328
  117OSM   H13B12216   2.039   3.608   5.738  1.5045 -0.6122 -0.6030
  117OSM   H13C12217   1.989   3.641   5.575  1.7044  0.0648 -0.5764
  117OSM    C1212218   1.827   3.485   5.837 -0.2447 -0.1601 -0.3119
  117OSM   H12A12219   1.727   3.492   5.876  0.3229 -1.9215  1.6726
  117OSM   H12B12220   1.883   3.550   5.902 -0.3722 -0.4910  0.1382
  117OSM    C1112221   1.877   3.343   5.862  0.2288 -0.0336  0.4056
  117OSM   H11A12222   1.817   3.272   5.800 -1.4258  2.1309 -0.6171
  117OSM   H11B12223   1.849   3.300   5.960 -0.0814 -2.7498 -0.7766
  117OSM      P12224   2.124   3.378   5.937 -0.4774  0.0597  0.0441
  117OSM    O1312225   2.256   3.354   5.882 -0.3423  0.6227  0.0644
  117OSM    O1412226   2.096   3.513   5.987 -0.3597 -0.1459  0.4549
  117OSM    O1112227   2.085   3.285   6.057 -0.4990  0.2236 -0.2707
  117OSM    O1212228   2.015   3.324   5.827 -0.3550  0.1310 -0.2827
  117OSM    C1S12229   2.082   3.145   6.025 -0.4614  0.1052 -0.6859
  117OSM    H1S12230   2.179   3.126   5.974  1.5479  1.8881  2.1947
  117OSM    H1T12231   1.999   3.108   5.960 -0.8861  1.3598 -0.8748
  117OSM     NF12232   2.097   2.922   6.149 -0.3258  0.3072  0.3523
  117OSM    HNF12233   2.020   2.866   6.118 -0.4178  1.1613 -1.0288
  117OSM    C2S12234   2.077   3.070   6.163  0.0439 -0.1958 -0.0632
  117OSM    H2S12235   2.161   3.112   6.223  0.8438  0.3565 -1.5320
  117OSM    C3S12236   1.941   3.107   6.235 -0.1716 -0.6284 -0.5150
  117OSM    H3S12237   1.857   3.073   6.170  0.4298 -0.7163 -1.2654
  117OSM     O312238   1.916   3.251   6.239 -0.2239  0.5470 -0.0016
  117OSM    HO312239   1.974   3.294   6.177 -0.4107  1.9089  0.7300
  117OSM    C4S12240   1.927   3.042   6.373 -0.0975 -0.3304  0.3020
  117OSM    H4S12241   1.992   3.089   6.448  2.6704  1.3752 -2.9000
  117OSM    C5S12242   1.832   2.953   6.408 -0.6847  0.0215  0.1717
  117OSM    H5S12243   1.775   2.913   6.322 -0.4073 -0.7959  0.3555
  117OSM    C6S12244   1.792   2.897   6.539  0.0194  0.3952 -0.9922
  117OSM    H6S12245   1.813   2.788   6.538 -2.1227 -0.0724 -0.4892
  117OSM    H6T12246   1.681   2.892   6.546  0.0500 -0.2089 -0.8563
  117OSM    C7S12247   1.845   2.974   6.669  0.1073  0.2299  0.5385
  117OSM    H7S12248   1.796   3.073   6.672 -4.5311 -1.8590  1.5380
  117OSM    H7T12249   1.953   2.998   6.651  0.1201  0.9291  1.5142
  117OSM    C8S12250   1.830   2.893   6.804  0.6834 -0.5281  0.3181
  117OSM    H8S12251   1.871   2.792   6.780  2.1659  0.3799 -1.2131
  117OSM    H8T12252   1.721   2.883   6.822  0.2920  1.2837 -0.7467
  117OSM    C9S12253   1.889   2.968   6.926 -0.0680  0.1229  0.3780
  117OSM    H9S12254   1.805   3.037   6.952 -1.3620 -0.1239 -2.7421
  117OSM    H9T12255   1.977   3.029   6.897 -0.6987  1.7539  1.6701
  117OSM   C10S12256   1.910   2.895   7.055  0.8883  0.1575  0.1933
  117OSM   H10S12257   1.983   2.813   7.037  0.8468  0.1176  0.2073
  117OSM   H10T12258   1.810   2.860   7.087  0.3565 -0.7202 -2.2358
  117OSM   C11S12259   1.955   2.980   7.172 -0.4440 -0.8133 -0.9699
  117OSM   H11S12260   1.954   2.927   7.270 -1.3064  0.6309 -0.1597
  117OSM   H11T12261   1.884   3.065   7.186  1.3066  0.5901 -0.1519
  117OSM   C12S12262   2.100   3.033   7.148  0.0825 -0.2448 -0.0375
  117OSM   H12S12263   2.123   3.068   7.045  2.7517 -1.9547 -0.1279
  117OSM   H12T12264   2.164   2.942   7.143  1.5669  0.7549  0.3297
  117OSM   C13S12265   2.150   3.130   7.256 -0.6051  0.0570 -0.2614
  117OSM   H13S12266   2.060   3.183   7.292 -0.6092  2.1253 -2.9240
  117OSM   H13T12267   2.212   3.216   7.221  0.6209 -0.0272  1.5725
  117OSM   C14S12268   2.214   3.054   7.381  0.4418 -0.3158  0.1492
  117OSM   H14S12269   2.311   3.011   7.348  0.7658  0.9914 -0.7088
  117OSM   H14T12270   2.147   2.971   7.412 -0.3709  0.4089  0.3684
  117OSM   C15S12271   2.258   3.145   7.496  0.6009 -0.3145 -0.2911
  117OSM   H15S12272   2.166   3.168   7.555  0.2206 -2.8995  0.2510
  117OSM   H15T12273   2.306   3.237   7.457 -0.8147 -0.3049 -2.1236
  117OSM   C16S12274   2.345   3.065   7.595  0.0143  0.5898 -0.4524
  117OSM   H16S12275   2.440   3.025   7.555  0.5531  1.6865 -0.2843
  117OSM   H16T12276   2.282   2.976   7.620  2.1652 -1.1626 -1.0005
  117OSM   C17S12277   2.402   3.143   7.716  0.3072  0.3622  0.6212
  117OSM   H17S12278   2.432   3.069   7.793 -1.9242 -0.5443  0.6941
  117OSM   H17T12279   2.314   3.193   7.762 -0.4038 -1.2206  1.0484
  117OSM   C18S12280   2.503   3.255   7.682  0.4451  0.2418 -0.8558
  117OSM   H18S12281   2.599   3.209   7.648 -0.2201 -1.9930  0.0656
  117OSM   H18T12282   2.536   3.307   7.774 -0.6520  0.8626 -0.7968
  117OSM   H18U12283   2.459   3.329   7.613 -0.8331  1.2838  0.9834
  117OSM    C1F12284   2.218   2.874   6.133 -0.6966  0.1198  0.5928
  117OSM     OF12285   2.315   2.944   6.133 -0.5928  0.1347 -0.5097
  117OSM    C2F12286   2.226   2.730   6.104 -0.5716 -0.4400 -1.0011
  117OSM    H2F12287   2.285   2.713   6.011  1.0314 -0.7584  0.0224
  117OSM    H2G12288   2.128   2.681   6.086  0.5510 -2.2360 -2.5544
  117OSM    C3F12289   2.306   2.659   6.216  0.2505  0.1837 -0.2833
  117OSM    H3F12290   2.279   2.551   6.221  1.4752 -0.0918  2.6022
  117OSM    H3G12291   2.283   2.704   6.315  0.6927 -0.5174  0.1498
  117OSM    C4F12292   2.459   2.664   6.205  0.1884  0.4658 -0.5709
  117OSM    H4F12293   2.488   2.771   6.199  0.1572  0.4890 -0.3316
  117OSM    H4G12294   2.494   2.620   6.109 -0.4802 -1.0235 -0.1636
  117OSM    C5F12295   2.538   2.580   6.311  0.5474 -0.0161 -0.0984
  117OSM    H5F12296   2.646   2.597   6.291  0.2613  1.0127 -0.9218
  117OSM    H5G12297   2.512   2.474   6.289  0.9663 -0.2185  0.3607
  117OSM    C6F12298   2.506   2.620   6.457 -0.6493 -0.6458  0.1760
  117OSM    H6F12299   2.398   2.622   6.485 -0.0239  0.2137  2.7739
  117OSM    H6G12300   2.533   2.727   6.467 -0.3602 -0.8840  2.2553
  117OSM    C7F12301   2.591   2.527   6.549 -0.4182  0.8497 -0.3914
  117OSM    H7F12302   2.697   2.559   6.546  0.3548 -1.4659  0.0746
  117OSM    H7G12303   2.577   2.423   6.512  1.1650  0.4917 -0.0564
  117OSM    C8F12304   2.533   2.521   6.692  0.2456 -0.1778 -0.0281
  117OSM    H8F12305   2.430   2.478   6.695  1.2987 -2.8029  0.8351
  117OSM    H8G12306   2.530   2.625   6.731 -0.7889 -0.3459  0.3639
  117OSM    C9F12307   2.611   2.443   6.790  0.0098  1.0833  0.0998
  117OSM    H9F12308   2.703   2.395   6.751 -1.0363 -1.9471  1.0841
  117OSM   C10F12309   2.569   2.397   6.907  0.8316 -0.2121 -0.8715
  117OSM   H10F12310   2.630   2.331   6.970 -0.4598 -0.0039  0.6603
  117OSM   C11F12311   2.441   2.449   6.977  0.2280  0.3233 -0.6474
  117OSM   H11F12312   2.399   2.367   7.039 -1.3803  1.2587 -0.4268
  117OSM   H11G12313   2.349   2.465   6.917 -0.2610  2.0293  0.4724
  117OSM   C12F12314   2.461   2.574   7.064  0.0152  0.6038 -0.0040
  117OSM   H12F12315   2.494   2.656   6.997  0.7896  0.9638  0.8018
  117OSM   H12G12316   2.544   2.544   7.132  0.2314 -3.4624 -1.7920
  117OSM   C13F12317   2.341   2.622   7.151  0.7749  0.5297  0.0285
  117OSM   H13F12318   2.308   2.543   7.223 -0.6179 -0.7798 -1.9344
  117OSM   H13G12319   2.251   2.627   7.087  0.1422 -1.4569  0.6892
  117OSM   C14F12320   2.355   2.755   7.223 -0.6341 -0.8211  0.7434
  117OSM   H14F12321   2.260   2.791   7.269 -1.4427  0.4571 -1.7317
  117OSM   H14G12322   2.383   2.833   7.150 -0.6275 -0.8807  0.6820
  117OSM   C15F12323   2.458   2.756   7.337  0.1233 -0.1118 -0.4351
  117OSM   H15F12324   2.473   2.862   7.367 -3.7698  0.9892 -1.7752
  117OSM   H15G12325   2.554   2.720   7.296  0.1367 -2.2879  1.3479
  117OSM   C16F12326   2.431   2.672   7.461  0.6481 -0.0466 -0.4478
  117OSM   H16F12327   2.421   2.564   7.438  0.3266 -0.2736  0.7360
  117OSM   H16G12328   2.340   2.721   7.502 -0.4839 -1.0247 -1.7064
  117OSM   C17F12329   2.546   2.681   7.566  0.0778  0.9184  0.0309
  117OSM   H17F12330   2.623   2.618   7.516  0.3693 -0.2498  1.8512
  117OSM   H17G12331   2.571   2.789   7.559 -1.7473  1.4642  1.4163
  117OSM   C18F12332   2.525   2.655   7.710  0.3419  0.0740 -0.1232
  117OSM   H18F12333   2.517   2.545   7.722 -2.7656  0.2093 -0.2783
  117OSM   H18G12334   2.428   2.690   7.751  0.8015  0.1165  0.9597
  117OSM   H18H12335   2.610   2.686   7.774  0.4882 -2.3092  0.9562
  118OSM      N12336   5.217   5.427   5.752 -0.0294  0.2269 -0.2883
  118OSM    C1512337   5.195   5.566   5.689  0.0177  1.2058 -0.4299
  118OSM   H15A12338   5.146   5.623   5.766  0.2653  0.5241  0.2410
  118OSM   H15B12339   5.142   5.566   5.594 -0.7998  0.3657  0.0077
  118OSM   H15C12340   5.290   5.606   5.657  2.0949 -2.2264  0.8563
  118OSM    C1412341   5.288   5.345   5.652  0.3821  0.0775 -0.4724
  118OSM   H14A12342   5.246   5.363   5.554 -0.4956  0.6190 -0.0168
  118OSM   H14B12343   5.272   5.240   5.674 -3.5776  0.3629 -1.2165
  118OSM   H14C12344   5.395   5.352   5.651  0.5936 -2.0342  1.2850
  118OSM    C1312345   5.300   5.446   5.874 -0.1862 -0.4176 -0.0694
  118OSM   H13A12346   5.396   5.483   5.840  0.1747 -0.9761  0.3169
  118OSM   H13B12347   5.304   5.362   5.941 -0.6845 -0.4974 -0.1399
  118OSM   H13C12348   5.255   5.524   5.933 -0.9755 -1.4702  0.7529
  118OSM    C1212349   5.089   5.358   5.792 -0.0928 -0.8251  0.0069
  118OSM   H12A12350   5.021   5.349   5.709  0.1825 -0.0704 -0.2998
  118OSM   H12B12351   5.033   5.415   5.865 -0.0818  0.7556 -1.1878
  118OSM    C1112352   5.097   5.214   5.847  0.7019  0.2410 -0.3997
  118OSM   H11A12353   5.003   5.200   5.905  1.7631  1.7838  1.8007
  118OSM   H11B12354   5.179   5.217   5.922  0.7902  0.7148 -0.5169
  118OSM      P12355   5.053   4.987   5.727 -0.1082 -0.1166 -0.0154
  118OSM    O1312356   4.967   4.990   5.608 -0.2118  0.3329  0.3222
  118OSM    O1412357   5.152   4.877   5.733  0.1424  0.5586 -0.0958
  118OSM    O1112358   4.963   4.971   5.859 -0.4766  0.7306 -0.3964
  118OSM    O1212359   5.124   5.128   5.741  0.4632  0.5771  0.4055
  118OSM    C1S12360   4.967   4.862   5.948 -0.3853  0.3610 -0.0265
  118OSM    H1S12361   5.067   4.865   5.998 -1.3882  2.2246  2.0531
  118OSM    H1T12362   4.961   4.767   5.890  0.2291  0.9969 -1.1562
  118OSM     NF12363   4.860   4.729   6.130  0.4233 -0.0844 -0.0255
  118OSM    HNF12364   4.799   4.654   6.106  0.4900  0.1372 -0.9283
  118OSM    C2S12365   4.855   4.855   6.061  0.3600  0.3256 -0.2116
  118OSM    H2S12366   4.863   4.935   6.137 -1.1561 -0.2580  0.6193
  118OSM    C3S12367   4.715   4.887   5.996  0.0351  0.0903 -0.7442
  118OSM    H3S12368   4.691   4.796   5.937  1.7488 -0.0191 -1.3190
  118OSM     O312369   4.708   4.983   5.895 -0.2239  0.1352  0.4233
  118OSM    HO312370   4.798   4.983   5.861  0.4535  3.0239  1.8981
  118OSM    C4S12371   4.611   4.898   6.108  0.3170 -0.1151 -0.0966
  118OSM    H4S12372   4.551   4.806   6.119 -0.7043  0.6653  1.1716
  118OSM    C5S12373   4.564   5.004   6.177  0.2709  0.4115 -0.4007
  118OSM    H5S12374   4.590   5.105   6.142  0.7475  0.1936 -0.6943
  118OSM    C6S12375   4.459   4.998   6.284  0.0919 -0.8468  0.6392
  118OSM    H6S12376   4.361   5.041   6.255 -0.1206 -2.2237 -0.8210
  118OSM    H6T12377   4.496   5.079   6.351 -2.0809  1.9296 -1.2600
  118OSM    C7S12378   4.434   4.869   6.358 -0.2592  0.3085  0.5162
  118OSM    H7S12379   4.522   4.808   6.387 -0.6971 -0.3010  0.5934
  118OSM    H7T12380   4.378   4.822   6.274 -1.1373  1.0917  0.6450
  118OSM    C8S12381   4.349   4.887   6.481  0.3816 -0.3436  0.2913
  118OSM    H8S12382   4.297   4.789   6.494  0.3071 -0.2567  0.6446
  118OSM    H8T12383   4.279   4.968   6.451  3.5183  2.1789 -0.7977
  118OSM    C9S12384   4.424   4.919   6.610  0.5216  0.3641 -0.0894
  118OSM    H9S12385   4.493   5.005   6.595  1.7480 -0.3287  1.2631
  118OSM    H9T12386   4.490   4.834   6.636  0.0569  0.2899  0.8959
  118OSM   C10S12387   4.335   4.923   6.727  0.3428 -0.3316  0.1596
  118OSM   H10S12388   4.284   4.825   6.737 -0.2281 -0.0909 -0.3196
  118OSM   H10T12389   4.274   5.014   6.705  2.1190  1.4020  1.9995
  118OSM   C11S12390   4.410   4.959   6.856 -0.0427  0.3764  0.6944
  118OSM   H11S12391   4.449   5.061   6.836  0.3117 -0.0184 -0.7283
  118OSM   H11T12392   4.498   4.892   6.865 -1.0887 -1.0710  0.4648
  118OSM   C12S12393   4.323   4.943   6.977  0.1331  0.9747  0.3300
  118OSM   H12S12394   4.303   4.834   6.986  0.3501  0.9701  0.7680
  118OSM   H12T12395   4.225   4.995   6.967  0.5934  1.6219 -0.9800
  118OSM   C13S12396   4.373   4.975   7.118  0.8527 -0.2245  0.2407
  118OSM   H13S12397   4.390   5.085   7.123  0.5726 -0.1902  0.5435
  118OSM   H13T12398   4.468   4.919   7.128  0.5822 -1.2037 -2.0011
  118OSM   C14S12399   4.296   4.926   7.241  0.7057  0.0158  0.3615
  118OSM   H14S12400   4.303   4.815   7.233 -0.4858  0.0255 -1.0726
  118OSM   H14T12401   4.187   4.934   7.223  0.8909  1.1733 -0.3076
  118OSM   C15S12402   4.347   4.979   7.374  0.2452 -0.7135  0.3024
  118OSM   H15S12403   4.292   5.073   7.393 -0.4480 -1.4809  2.3789
  118OSM   H15T12404   4.454   5.009   7.362 -0.0596  0.4900  0.4869
  118OSM   C16S12405   4.327   4.880   7.491 -0.3885 -0.3337  0.6786
  118OSM   H16S12406   4.387   4.789   7.471 -0.7784 -0.8123  1.5785
  118OSM   H16T12407   4.222   4.846   7.477 -0.0994 -0.6919 -0.7804
  118OSM   C17S12408   4.353   4.939   7.629 -0.2690  0.0261  0.8494
  118OSM   H17S12409   4.306   5.039   7.641  1.8594  1.5938 -2.4117
  118OSM   H17T12410   4.458   4.975   7.633 -0.9138  2.4980 -1.3900
  118OSM   C18S12411   4.321   4.840   7.740 -0.2257 -0.6975  0.6958
  118OSM   H18S12412   4.393   4.756   7.753  0.2836 -0.0928  2.0966
  118OSM   H18T12413   4.226   4.792   7.710  0.3534 -1.1535 -0.4779
  118OSM   H18U12414   4.302   4.889   7.838 -2.5366  1.9456 -0.9338
  118OSM    C1F12415   4.946   4.708   6.229 -0.0536  0.6754  0.4851
  118OSM     OF12416   5.029   4.798   6.255 -0.3551  0.3754 -0.3346
  118OSM    C2F12417   4.946   4.571   6.291  0.0549 -0.0659 -0.3827
  118OSM    H2F12418   5.033   4.510   6.258 -0.9951 -1.3604 -0.8425
  118OSM    H2G12419   4.853   4.517   6.266  0.2895  0.2830 -2.1941
  118OSM    C3F12420   4.968   4.591   6.444  0.1112  0.1623 -0.2342
  118OSM    H3F12421   5.058   4.648   6.472  0.5094 -1.0683  1.0983
  118OSM    H3G12422   5.001   4.497   6.493  0.1165  1.3116  2.1081
  118OSM    C4F12423   4.849   4.645   6.515  0.0575 -0.4176  0.0535
  118OSM    H4F12424   4.757   4.586   6.494 -1.5079  2.1707 -0.9246
  118OSM    H4G12425   4.829   4.745   6.470 -1.1440  0.1824  1.8041
  118OSM    C5F12426   4.874   4.672   6.663 -0.1269 -0.4040 -0.0043
  118OSM    H5F12427   4.970   4.725   6.681 -0.3357 -0.2409  0.6647
  118OSM    H5G12428   4.878   4.580   6.725  0.2740  0.0461  0.6551
  118OSM    C6F12429   4.771   4.775   6.721  0.2028 -0.5509  0.5574
  118OSM    H6F12430   4.668   4.741   6.698  0.8166 -0.9748 -1.7711
  118OSM    H6G12431   4.785   4.878   6.681  0.8514 -0.4411  1.0533
  118OSM    C7F12432   4.793   4.813   6.871  0.0177  0.2110  0.2022
  118OSM    H7F12433   4.712   4.885   6.896 -2.4077 -2.4874  0.6680
  118OSM    H7G12434   4.890   4.862   6.895  1.6234 -1.9928 -1.3859
  118OSM    C8F12435   4.768   4.693   6.970  0.7959  0.0034  0.1789
  118OSM    H8F12436   4.800   4.731   7.069  1.6193  3.0601 -1.1484
  118OSM    H8G12437   4.835   4.613   6.931  0.8277  0.1185 -0.0029
  118OSM    C9F12438   4.623   4.655   6.970 -0.5214  0.6262 -0.3789
  118OSM    H9F12439   4.564   4.677   6.881 -0.8252 -0.0850 -0.3591
  118OSM   C10F12440   4.554   4.630   7.081  0.1951 -0.1033  0.3811
  118OSM   H10F12441   4.444   4.633   7.082  0.2061  0.4275  1.1931
  118OSM   C11F12442   4.615   4.599   7.213 -0.0939  0.1817 -0.3239
  118OSM   H11F12443   4.616   4.681   7.289 -0.4608 -0.4802  0.4108
  118OSM   H11G12444   4.722   4.576   7.194 -0.2386 -0.7259 -0.0575
  118OSM   C12F12445   4.549   4.474   7.280 -0.5234 -0.0016 -0.5281
  118OSM   H12F12446   4.614   4.445   7.366  0.3801 -1.8055 -1.7458
  118OSM   H12G12447   4.557   4.393   7.204 -2.9403  0.0841 -0.9386
  118OSM   C13F12448   4.406   4.492   7.323  0.8616 -0.2931  0.0772
  118OSM   H13F12449   4.343   4.510   7.234 -1.5467 -0.0633  1.7488
  118OSM   H13G12450   4.398   4.573   7.399  0.1568  0.2884 -0.6053
  118OSM   C14F12451   4.358   4.365   7.396 -0.2611 -0.0925 -0.5697
  118OSM   H14F12452   4.420   4.338   7.484 -1.1388 -0.1664  0.0428
  118OSM   H14G12453   4.370   4.280   7.326  0.1161  0.5929 -1.3474
  118OSM   C15F12454   4.204   4.377   7.432  0.2195  0.0150 -0.4427
  118OSM   H15F12455   4.145   4.376   7.338  0.3962 -1.9991 -0.5920
  118OSM   H15G12456   4.187   4.479   7.472 -0.0317 -0.5798  1.0515
  118OSM   C16F12457   4.142   4.296   7.552 -0.4411  0.2989 -0.1710
  118OSM   H16F12458   4.137   4.187   7.527 -0.9300  0.3198 -0.1658
  118OSM   H16G12459   4.037   4.332   7.560  0.2523  2.4220 -0.1465
  118OSM   C17F12460   4.220   4.305   7.690 -0.3690 -0.3858  0.8194
  118OSM   H17F12461   4.323   4.266   7.680 -0.7807 -1.4064  0.4916
  118OSM   H17G12462   4.182   4.229   7.762  0.2124  0.2911  1.8721
  118OSM   C18F12463   4.258   4.450   7.750  0.1571 -0.0671  0.1302
  118OSM   H18F12464   4.163   4.507   7.761 -0.2116 -0.7708  0.7152
  118OSM   H18G12465   4.330   4.506   7.688  1.6559  1.6116  3.1775
  118OSM   H18H12466   4.302   4.440   7.852 -1.5182  0.1139  0.9077
  119OSM      N12467   4.831   4.634   5.585  0.5468  0.1396 -0.1950
  119OSM    C1512468   4.804   4.508   5.511 -0.4455 -0.0051 -0.4999
  119OSM   H15A12469   4.796   4.423   5.577  2.0063  0.4997  0.5702
  119OSM   H15B12470   4.894   4.487   5.455  0.7285 -0.2907  1.3666
  119OSM   H15C12471   4.727   4.520   5.437  0.1591 -0.9314 -1.2930
  119OSM    C1412472   4.812   4.750   5.499 -0.5155 -0.7198  0.3292
  119OSM   H14A12473   4.880   4.753   5.415 -1.3404 -2.9524 -0.4844
  119OSM   H14B12474   4.833   4.843   5.550 -1.3229  1.2063 -2.5303
  119OSM   H14C12475   4.710   4.764   5.464  0.3468 -0.0398 -2.1668
  119OSM    C1312476   4.725   4.645   5.692  0.1788 -0.1391 -0.1965
  119OSM   H13A12477   4.738   4.571   5.769 -0.4883  0.0003  0.0573
  119OSM   H13B12478   4.630   4.624   5.643 -1.6127  2.0033  2.1190
  119OSM   H13C12479   4.705   4.744   5.729  1.6664 -0.5631  1.8713
  119OSM    C1212480   4.968   4.632   5.640 -0.3213  0.1076  0.1403
  119OSM   H12A12481   5.005   4.731   5.665 -0.0372  0.2481 -0.7937
  119OSM   H12B12482   5.033   4.600   5.560 -1.0989 -0.0011 -0.4537
  119OSM    C1112483   5.012   4.537   5.753 -0.2390  0.8287 -0.4322
  119OSM   H11A12484   4.954   4.553   5.847 -0.8728  1.1807 -0.8775
  119OSM   H11B12485   5.116   4.560   5.785 -1.1739  1.6125  2.3702
  119OSM      P12486   5.099   4.314   5.627 -0.6985 -0.5675  0.1210
  119OSM    O1312487   5.022   4.219   5.548 -0.6001 -0.2419 -0.2170
  119OSM    O1412488   5.186   4.410   5.560  0.3474  0.5784 -0.1158
  119OSM    O1112489   5.177   4.225   5.734  0.6008 -0.3736 -0.0946
  119OSM    O1212490   4.992   4.402   5.718  0.1077  0.9815  0.0387
  119OSM    C1S12491   5.266   4.275   5.834  0.6567 -0.2116 -0.5647
  119OSM    H1S12492   5.301   4.380   5.823 -0.9996  0.4909  0.4780
  119OSM    H1T12493   5.358   4.213   5.830  0.0559 -1.1712  0.0729
  119OSM     NF12494   5.300   4.298   6.087 -0.2349 -0.7466 -0.0671
  119OSM    HNF12495   5.358   4.231   6.133 -0.9957 -1.2695  0.1474
  119OSM    C2S12496   5.204   4.266   5.983 -0.4147  0.6704  0.6163
  119OSM    H2S12497   5.120   4.338   5.987  0.3885  1.6133  1.0306
  119OSM    C3S12498   5.140   4.136   6.008  0.1181  0.0998  0.1363
  119OSM    H3S12499   5.216   4.057   5.990 -1.9608 -2.0363  0.1513
  119OSM     O312500   5.047   4.095   5.904 -0.0688  0.1587 -1.1130
  119OSM    HO312501   5.073   4.151   5.831 -2.0500 -0.3294 -2.2912
  119OSM    C4S12502   5.087   4.131   6.150  0.6281 -0.5641 -0.9502
  119OSM    H4S12503   5.161   4.105   6.227  1.2323  1.2210 -0.8611
  119OSM    C5S12504   4.959   4.124   6.189  0.7127  0.2006  0.3897
  119OSM    H5S12505   4.890   4.128   6.103  0.4399  1.4944  0.6457
  119OSM    C6S12506   4.894   4.097   6.321 -0.5355  0.0960  0.0444
  119OSM    H6S12507   4.932   4.004   6.369 -2.4102 -0.7069  0.0488
  119OSM    H6T12508   4.791   4.059   6.307 -0.5130  0.4245 -1.1190
  119OSM    C7S12509   4.906   4.214   6.418  0.0907  0.0016 -1.1059
  119OSM    H7S12510   4.852   4.305   6.383 -2.2120  0.4275  2.9885
  119OSM    H7T12511   5.011   4.243   6.436 -0.0962  1.6765 -2.3895
  119OSM    C8S12512   4.855   4.188   6.566  0.6570 -0.2603 -0.1200
  119OSM    H8S12513   4.903   4.099   6.612  0.3635  0.1057  0.9256
  119OSM    H8T12514   4.746   4.169   6.553  0.2692  0.6096  1.6206
  119OSM    C9S12515   4.870   4.305   6.661 -0.0044  0.3782 -0.1035
  119OSM    H9S12516   4.815   4.395   6.625 -1.9221  0.2899  2.3776
  119OSM    H9T12517   4.980   4.322   6.666 -0.1114  1.0733  0.0631
  119OSM   C10S12518   4.814   4.283   6.805  0.1982 -0.2243  0.3113
  119OSM   H10S12519   4.831   4.371   6.870 -1.1570 -0.8649  1.5753
  119OSM   H10T12520   4.876   4.202   6.851  1.1246  0.3908  0.1751
  119OSM   C11S12521   4.667   4.237   6.810  1.1887 -0.0796 -1.0364
  119OSM   H11S12522   4.647   4.145   6.751  2.6185  1.1366 -3.5906
  119OSM   H11T12523   4.615   4.316   6.753  1.4262  0.3217 -0.7025
  119OSM   C12S12524   4.604   4.232   6.954 -0.0495 -0.1318  0.0212
  119OSM   H12S12525   4.498   4.203   6.966 -0.1064  0.0874  0.0530
  119OSM   H12T12526   4.630   4.331   6.999  1.0445 -0.3372 -0.1144
  119OSM   C13S12527   4.684   4.138   7.043 -0.2357 -0.5838  0.6845
  119OSM   H13S12528   4.775   4.192   7.076 -0.8095  1.2239 -0.5698
  119OSM   H13T12529   4.699   4.046   6.982 -1.9097 -0.9109  0.7165
  119OSM   C14S12530   4.600   4.086   7.163 -0.0812 -0.2904  0.8015
  119OSM   H14S12531   4.515   4.022   7.131  0.4745 -0.8813  0.4963
  119OSM   H14T12532   4.546   4.170   7.213 -4.1695 -1.1585 -1.7367
  119OSM   C15S12533   4.696   4.011   7.264  0.3896 -0.9554  0.3316
  119OSM   H15S12534   4.794   4.059   7.245 -1.1125  1.3575 -2.3648
  119OSM   H15T12535   4.689   3.901   7.255 -3.7232 -1.0462  2.1839
  119OSM   C16S12536   4.666   4.040   7.415  0.0610 -0.5389  0.0187
  119OSM   H16S12537   4.684   4.148   7.435  0.8295 -0.2219 -2.1013
  119OSM   H16T12538   4.739   3.982   7.474 -0.1118 -0.6527  0.1207
  119OSM   C17S12539   4.529   4.002   7.463  0.4750 -0.2632  0.4278
  119OSM   H17S12540   4.518   3.897   7.429  2.0348 -0.0840 -0.7436
  119OSM   H17T12541   4.454   4.069   7.416  0.1646 -0.7856  0.1638
  119OSM   C18S12542   4.514   4.016   7.618 -0.0078 -0.2434  0.0338
  119OSM   H18S12543   4.593   3.959   7.672  0.3362 -1.0208 -1.2593
  119OSM   H18T12544   4.422   3.966   7.655  1.6032 -2.7466  0.8792
  119OSM   H18U12545   4.542   4.118   7.653  0.3384  0.3996 -1.9775
  119OSM    C1F12546   5.330   4.431   6.101  0.1779  0.3693  0.0638
  119OSM     OF12547   5.271   4.515   6.035  0.3646  0.1674 -0.1049
  119OSM    C2F12548   5.440   4.483   6.192  0.4620 -0.1407 -0.2281
  119OSM    H2F12549   5.474   4.570   6.132  2.7382 -0.2198  0.8405
  119OSM    H2G12550   5.527   4.417   6.209  0.5393 -1.2937 -4.1707
  119OSM    C3F12551   5.390   4.546   6.327  0.1673 -0.0046 -0.1932
  119OSM    H3F12552   5.301   4.610   6.306 -1.7672 -2.1773  1.0146
  119OSM    H3G12553   5.466   4.617   6.367 -1.4128  0.7487  1.6091
  119OSM    C4F12554   5.342   4.444   6.436  0.0810  0.5130  0.4762
  119OSM    H4F12555   5.397   4.348   6.426  0.4023  0.9387 -3.5555
  119OSM    H4G12556   5.242   4.410   6.402 -0.1448  0.6940  0.9566
  119OSM    C5F12557   5.344   4.485   6.583 -0.2658  0.1549 -0.4584
  119OSM    H5F12558   5.277   4.570   6.608 -0.2943  0.6362 -2.0537
  119OSM    H5G12559   5.450   4.493   6.616 -0.2180  1.0630 -0.7936
  119OSM    C6F12560   5.285   4.378   6.679  0.1917  0.7408 -0.2037
  119OSM    H6F12561   5.358   4.295   6.675 -0.8296 -0.2759  0.9898
  119OSM    H6G12562   5.188   4.346   6.635  1.1422  0.8256 -2.5001
  119OSM    C7F12563   5.278   4.422   6.824 -0.3649  0.1636 -0.7905
  119OSM    H7F12564   5.368   4.483   6.844  0.2082  0.2989 -3.4716
  119OSM    H7G12565   5.280   4.336   6.895 -1.0789  0.6768 -0.1269
  119OSM    C8F12566   5.156   4.504   6.860  0.2298  0.5863 -0.3164
  119OSM    H8F12567   5.067   4.439   6.874 -1.1695  1.5557 -3.7285
  119OSM    H8G12568   5.120   4.564   6.773 -2.3123  1.4294  1.1877
  119OSM    C9F12569   5.179   4.609   6.969 -0.6377  0.4860  0.5762
  119OSM    H9F12570   5.255   4.681   6.936 -0.9593 -0.1785 -1.8244
  119OSM   C10F12571   5.151   4.620   7.101  0.4321  0.3420 -0.1444
  119OSM   H10F12572   5.173   4.715   7.152 -2.0494  0.8773  0.0631
  119OSM   C11F12573   5.052   4.530   7.175 -0.4482  0.0511  0.1649
  119OSM   H11F12574   5.015   4.448   7.110  1.0211  0.6172 -1.4670
  119OSM   H11G12575   4.964   4.588   7.208  0.1038  0.3967  1.0683
  119OSM   C12F12576   5.121   4.457   7.292 -0.2718  0.0780  0.8098
  119OSM   H12F12577   5.187   4.377   7.251 -0.1547  0.0431  1.0665
  119OSM   H12G12578   5.041   4.402   7.347 -0.2915 -0.6851  0.0345
  119OSM   C13F12579   5.192   4.548   7.390 -0.4939 -0.0554  0.1766
  119OSM   H13F12580   5.268   4.607   7.335  0.8238 -1.3023  0.5976
  119OSM   H13G12581   5.257   4.498   7.465  0.0116 -0.5472 -0.5709
  119OSM   C14F12582   5.091   4.637   7.462 -0.6144  1.1643 -0.3496
  119OSM   H14F12583   5.015   4.581   7.521  0.6778  0.4225  0.6707
  119OSM   H14G12584   5.043   4.704   7.387  1.7808  0.0189 -3.0837
  119OSM   C15F12585   5.164   4.728   7.563 -0.3450  0.0366 -0.3846
  119OSM   H15F12586   5.226   4.800   7.507  0.0814  0.5480  0.7053
  119OSM   H15G12587   5.228   4.661   7.624 -0.9590 -0.9087 -0.7514
  119OSM   C16F12588   5.080   4.821   7.661  0.3057 -0.0633 -0.4008
  119OSM   H16F12589   5.009   4.760   7.722  0.7325 -0.6962 -0.5240
  119OSM   H16G12590   5.008   4.887   7.608 -0.8290 -0.2640  0.8200
  119OSM   C17F12591   5.170   4.909   7.756  0.9687  0.2006  0.3611
  119OSM   H17F12592   5.257   4.950   7.701  1.9060 -1.2699  0.6710
  119OSM   H17G12593   5.213   4.843   7.835 -2.1726 -1.7009  0.6535
  119OSM   C18F12594   5.105   5.028   7.826  0.0164  0.3108  1.0009
  119OSM   H18F12595   5.186   5.093   7.867  2.0682  1.0947 -3.6225
  119OSM   H18G12596   5.031   5.001   7.904 -2.6287 -2.2930 -2.1234
  119OSM   H18H12597   5.045   5.086   7.753 -0.0484 -2.2202 -1.1399
  120OSM      N12598   4.024   2.306   5.640  0.2504  0.1263  0.2317
  120OSM    C1512599   4.039   2.415   5.541 -0.1170  0.0872  0.1868
  120OSM   H15A12600   4.033   2.511   5.589 -2.3996 -0.0300  0.2798
  120OSM   H15B12601   3.968   2.423   5.460 -1.4983  1.0968  1.4378
  120OSM   H15C12602   4.130   2.410   5.483  0.8609 -2.4599  1.7606
  120OSM    C1412603   3.882   2.301   5.678 -0.2831  0.5003 -0.7979
  120OSM   H14A12604   3.871   2.210   5.736  3.3757  1.8723  2.5556
  120OSM   H14B12605   3.812   2.293   5.597 -1.2424 -0.7131  0.1031
  120OSM   H14C12606   3.859   2.379   5.749  0.5793  0.7710 -0.7947
  120OSM    C1312607   4.066   2.182   5.573  0.4497  0.1360 -0.4460
  120OSM   H13A12608   4.172   2.175   5.554  0.2437 -3.7589 -1.1363
  120OSM   H13B12609   4.004   2.160   5.487  0.3408 -2.2944  0.1824
  120OSM   H13C12610   4.053   2.093   5.633 -0.2118 -0.8068 -1.9160
  120OSM    C1212611   4.110   2.338   5.757 -0.8062  0.7854 -0.0332
  120OSM   H12A12612   4.089   2.436   5.798 -4.4435  0.0118  0.2853
  120OSM   H12B12613   4.211   2.324   5.722 -1.0198 -1.4283  0.0716
  120OSM    C1112614   4.095   2.237   5.880 -0.3153  0.4513  0.3650
  120OSM   H11A12615   3.989   2.207   5.895 -0.5697 -0.4253 -2.5229
  120OSM   H11B12616   4.129   2.289   5.972 -0.2740  0.6134  0.2585
  120OSM      P12617   4.319   2.099   5.887  0.2520 -0.4962  0.0186
  120OSM    O1312618   4.364   1.971   5.822 -0.2850 -0.2971  0.3906
  120OSM    O1412619   4.386   2.225   5.852 -0.1435  0.4602  0.4039
  120OSM    O1112620   4.318   2.087   6.044  0.0136 -0.2929 -0.3794
  120OSM    O1212621   4.166   2.118   5.847 -0.4508  0.2267  0.0356
  120OSM    C1S12622   4.208   2.012   6.103  0.2155  0.4121 -0.2686
  120OSM    H1S12623   4.201   1.906   6.071  2.0335 -0.1041  0.8626
  120OSM    H1T12624   4.110   2.056   6.076 -0.9709 -0.3684  2.4481
  120OSM     NF12625   4.124   1.912   6.303 -0.0888  0.3500 -0.7585
  120OSM    HNF12626   4.029   1.942   6.313  0.6828  2.2256  2.4759
  120OSM    C2S12627   4.213   2.018   6.256 -0.4467 -0.7605  0.3131
  120OSM    H2S12628   4.313   1.999   6.301 -0.3413  0.4112  0.6075
  120OSM    C3S12629   4.172   2.171   6.294 -0.1373  0.1260  0.0569
  120OSM    H3S12630   4.070   2.199   6.262 -1.1807 -2.4457  0.8782
  120OSM     O312631   4.257   2.269   6.235 -0.5507 -0.3018 -0.3086
  120OSM    HO312632   4.321   2.219   6.184 -2.5033 -1.7541 -1.4732
  120OSM    C4S12633   4.190   2.184   6.442  0.3763  1.1121 -0.0097
  120OSM    H4S12634   4.293   2.183   6.481  0.5531  1.4416 -0.4693
  120OSM    C5S12635   4.080   2.191   6.523 -0.1880 -0.2686  0.1206
  120OSM    H5S12636   3.983   2.195   6.473  1.4253  0.4754 -3.1908
  120OSM    C6S12637   4.087   2.180   6.670 -0.1683  0.1938 -0.2410
  120OSM    H6S12638   4.048   2.272   6.720 -1.8304  0.3509 -1.7443
  120OSM    H6T12639   4.192   2.177   6.707  0.0052  0.8452 -0.6657
  120OSM    C7S12640   4.018   2.057   6.733  0.4563  0.8479  0.2252
  120OSM    H7S12641   4.066   1.965   6.696 -2.3422 -0.1833 -1.1450
  120OSM    H7T12642   3.912   2.044   6.702  0.4340 -0.4866  0.8158
  120OSM    C8S12643   4.013   2.069   6.888  0.7013  0.1530 -0.7318
  120OSM    H8S12644   3.963   1.983   6.937 -1.5657  1.1810 -1.1245
  120OSM    H8T12645   3.954   2.159   6.915  0.6284 -0.0050 -0.3620
  120OSM    C9S12646   4.156   2.083   6.948  0.3320 -0.0401 -0.4746
  120OSM    H9S12647   4.206   2.180   6.931  1.2347 -0.3308  0.4772
  120OSM    H9T12648   4.217   1.995   6.918  0.5032  0.5065 -1.8022
  120OSM   C10S12649   4.157   2.072   7.098  0.9617 -0.1787  0.2627
  120OSM   H10S12650   4.080   1.996   7.121  1.8419 -1.7511 -1.7562
  120OSM   H10T12651   4.117   2.166   7.143  0.9764 -1.1715  2.4732
  120OSM   C11S12652   4.296   2.047   7.156 -0.3023  1.2382  0.3551
  120OSM   H11S12653   4.352   2.133   7.112  0.9502  0.5889  0.6270
  120OSM   H11T12654   4.336   1.952   7.114 -1.8960  1.0083 -0.7353
  120OSM   C12S12655   4.306   2.062   7.308 -0.2940 -0.0119  0.1467
  120OSM   H12S12656   4.226   2.009   7.363 -0.6376  1.0118  0.6515
  120OSM   H12T12657   4.271   2.166   7.325  0.8810  0.2532  1.0732
  120OSM   C13S12658   4.446   2.031   7.363  0.2520 -0.5897  0.7121
  120OSM   H13S12659   4.447   2.071   7.467 -1.2859 -1.5258  1.1239
  120OSM   H13T12660   4.519   2.092   7.306 -3.1039  1.5951 -1.6210
  120OSM   C14S12661   4.480   1.885   7.374 -0.5994  0.3213  0.4006
  120OSM   H14S12662   4.386   1.827   7.380 -1.1019  0.9453 -0.9648
  120OSM   H14T12663   4.542   1.866   7.464  0.2491  0.8342 -0.0544
  120OSM   C15S12664   4.569   1.822   7.266  0.3684 -0.7296 -0.1195
  120OSM   H15S12665   4.670   1.865   7.283 -0.7940  1.4536  1.6524
  120OSM   H15T12666   4.539   1.845   7.161 -0.2339 -2.3408 -0.3436
  120OSM   C16S12667   4.568   1.669   7.270 -0.5550 -0.4146  0.2971
  120OSM   H16S12668   4.632   1.629   7.189 -5.0710 -3.4397 -2.2035
  120OSM   H16T12669   4.472   1.616   7.256 -0.7369  0.1524 -0.7070
  120OSM   C17S12670   4.635   1.617   7.399  0.3986  0.1506 -0.0685
  120OSM   H17S12671   4.581   1.640   7.494  1.9697 -0.6912  1.0713
  120OSM   H17T12672   4.738   1.659   7.404 -0.1217  1.4428  0.0442
  120OSM   C18S12673   4.656   1.468   7.388 -0.9792  0.2683 -0.3331
  120OSM   H18S12674   4.731   1.451   7.308  1.8808  3.6047  1.3463
  120OSM   H18T12675   4.565   1.410   7.362  0.0766 -2.7085  2.0610
  120OSM   H18U12676   4.702   1.433   7.483  0.2796  1.2508 -0.5510
  120OSM    C1F12677   4.158   1.783   6.303 -1.0204  0.4398 -0.0910
  120OSM     OF12678   4.276   1.758   6.292 -0.7280  0.0693 -0.0992
  120OSM    C2F12679   4.047   1.684   6.326  0.5363 -0.1498  0.1452
  120OSM    H2F12680   3.974   1.699   6.243  0.1691  0.1300  0.5121
  120OSM    H2G12681   4.003   1.722   6.421  2.6275  3.0535 -0.0132
  120OSM    C3F12682   4.092   1.542   6.347 -0.0558 -1.2132 -0.1513
  120OSM    H3F12683   4.152   1.535   6.441  0.5118 -0.3061 -0.4349
  120OSM    H3G12684   4.152   1.505   6.262 -0.6174 -1.0691 -0.6164
  120OSM    C4F12685   3.977   1.446   6.354  0.0776  0.2187 -0.1578
  120OSM    H4F12686   4.020   1.344   6.341 -0.6991 -0.0124 -1.0396
  120OSM    H4G12687   3.912   1.454   6.264  0.5404 -2.6327 -0.8753
  120OSM    C5F12688   3.911   1.447   6.491 -0.0344 -0.3349 -0.7806
  120OSM    H5F12689   3.822   1.382   6.484  0.5485 -1.0352 -2.1307
  120OSM    H5G12690   3.882   1.551   6.514 -0.5744 -0.8558  1.0731
  120OSM    C6F12691   4.001   1.398   6.608 -0.6240  0.4722 -0.1004
  120OSM    H6F12692   4.058   1.475   6.664  0.1163 -0.2200  0.1122
  120OSM    H6G12693   4.078   1.329   6.569 -0.0226  0.6518  0.7335
  120OSM    C7F12694   3.919   1.309   6.695 -0.1958  0.5642 -0.5584
  120OSM    H7F12695   3.864   1.241   6.626  2.4593 -0.6602 -1.5890
  120OSM    H7G12696   3.847   1.376   6.747  0.0052 -1.0101  1.9334
  120OSM    C8F12697   3.999   1.227   6.795  0.2719  0.3344  0.1491
  120OSM    H8F12698   4.068   1.288   6.856  1.6575 -0.3049 -0.7261
  120OSM    H8G12699   4.070   1.157   6.745 -1.6475 -0.6512 -1.3226
  120OSM    C9F12700   3.897   1.143   6.871 -0.4457  0.0573 -0.0611
  120OSM    H9F12701   3.849   1.058   6.821 -0.8980 -0.1211  0.6470
  120OSM   C10F12702   3.876   1.135   7.003  0.3328 -0.0031  0.1613
  120OSM   H10F12703   3.838   1.038   7.039  0.1906  0.0412  0.1306
  120OSM   C11F12704   3.932   1.229   7.107  0.5662 -0.3974 -0.4695
  120OSM   H11F12705   3.853   1.275   7.169  0.4442  1.1992 -1.7575
  120OSM   H11G12706   3.991   1.311   7.062  0.3591  0.5378  0.9081
  120OSM   C12F12707   4.013   1.155   7.211 -0.1123 -0.2360 -0.4232
  120OSM   H12F12708   4.095   1.103   7.158 -0.4128  0.0756 -1.2059
  120OSM   H12G12709   3.955   1.078   7.267  2.5179  0.6067  3.9288
  120OSM   C13F12710   4.102   1.245   7.302 -0.1826  0.2344  0.8584
  120OSM   H13F12711   4.038   1.297   7.377 -0.5368  1.9848 -0.5788
  120OSM   H13G12712   4.146   1.325   7.239  1.2040  0.5228  2.1390
  120OSM   C14F12713   4.216   1.171   7.373  0.5257  0.2095  0.6988
  120OSM   H14F12714   4.301   1.241   7.384  0.2191  0.8236 -0.6954
  120OSM   H14G12715   4.252   1.084   7.314  0.6098  0.3677  0.5190
  120OSM   C15F12716   4.178   1.130   7.515  0.1336 -0.1413  0.7041
  120OSM   H15F12717   4.091   1.061   7.518 -0.7106  0.8149 -0.6871
  120OSM   H15G12718   4.162   1.227   7.568 -0.2696  0.1851 -0.0041
  120OSM   C16F12719   4.290   1.050   7.587 -0.1911 -0.2523  0.0201
  120OSM   H16F12720   4.368   1.124   7.615 -1.3556  0.8537  0.4516
  120OSM   H16G12721   4.347   0.987   7.515 -0.1235 -1.6403  1.2443
  120OSM   C17F12722   4.238   0.964   7.704 -0.8850 -0.1858 -0.1426
  120OSM   H17F12723   4.167   0.892   7.657  0.7291 -1.3847 -0.8717
  120OSM   H17G12724   4.188   1.028   7.780  0.5968  0.4622  0.3317
  120OSM   C18F12725   4.350   0.875   7.766  0.1948 -0.1885 -1.2075
  120OSM   H18F12726   4.308   0.806   7.843  0.5599  0.3825 -0.4922
  120OSM   H18G12727   4.422   0.947   7.810  0.2334 -0.5075 -0.7448
  120OSM   H18H12728   4.404   0.828   7.681 -2.1409 -0.9525 -2.3502
  121OSM      N12729   5.749   4.245   5.553 -0.0886 -0.0937 -0.0361
  121OSM    C1512730   5.678   4.341   5.469 -0.0764 -0.2061 -0.1853
  121OSM   H15A12731   5.733   4.372   5.381 -0.8609 -0.4352 -0.7599
  121OSM   H15B12732   5.666   4.435   5.521  0.5188 -0.5010  0.4959
  121OSM   H15C12733   5.582   4.298   5.445 -2.0104  1.9451  2.9185
  121OSM    C1412734   5.738   4.115   5.481  0.4469  0.1661 -0.3435
  121OSM   H14A12735   5.769   4.126   5.378 -0.9239  1.1573 -0.6745
  121OSM   H14B12736   5.636   4.082   5.491 -0.3453  2.2782 -0.9632
  121OSM   H14C12737   5.807   4.042   5.521 -0.2608 -1.1118 -1.3761
  121OSM    C1312738   5.890   4.298   5.557  0.2343  0.1219  0.4739
  121OSM   H13A12739   5.935   4.311   5.460  0.2884 -0.6948  0.3772
  121OSM   H13B12740   5.954   4.230   5.612  1.2918  0.4812 -0.2839
  121OSM   H13C12741   5.895   4.397   5.600  1.8130  1.0545 -1.6770
  121OSM    C1212742   5.689   4.228   5.690  0.1672 -0.0841 -0.5582
  121OSM   H12A12743   5.582   4.214   5.690  0.0584  0.3360  2.1199
  121OSM   H12B12744   5.706   4.323   5.738 -3.1990  1.1250 -1.4123
  121OSM    C1112745   5.745   4.119   5.780  0.3627 -0.1178  0.0526
  121OSM   H11A12746   5.717   4.023   5.733  1.4885  0.3691 -1.6973
  121OSM   H11B12747   5.687   4.133   5.874  1.0583  1.1141  0.3277
  121OSM      P12748   5.980   4.015   5.818  0.1298  0.2795  0.7566
  121OSM    O1312749   5.948   3.912   5.717  0.0958  1.0054  0.4350
  121OSM    O1412750   6.120   4.065   5.827  0.6565 -0.1376 -0.0874
  121OSM    O1112751   5.931   3.950   5.948 -0.6955 -0.3038 -0.3803
  121OSM    O1212752   5.881   4.137   5.804 -0.4305 -0.2375 -0.0033
  121OSM    C1S12753   5.917   4.032   6.071 -0.3478 -0.2667 -0.4495
  121OSM    H1S12754   5.856   4.121   6.044 -0.3019 -0.1335 -0.1233
  121OSM    H1T12755   6.021   4.057   6.101 -0.4875 -0.1528 -0.0450
  121OSM     NF12756   5.855   4.043   6.323 -0.5162 -0.0796 -0.4669
  121OSM    HNF12757   5.936   4.011   6.370  0.8654  0.3237 -2.4243
  121OSM    C2S12758   5.839   3.968   6.195 -0.1033  0.1599 -0.1265
  121OSM    H2S12759   5.731   3.991   6.179  0.4005  2.9074 -0.1947
  121OSM    C3S12760   5.879   3.815   6.198  0.2253 -0.6416 -0.7234
  121OSM    H3S12761   5.988   3.806   6.215 -0.0780 -0.4011  1.6803
  121OSM     O312762   5.841   3.739   6.085  0.1481 -0.6998 -0.1460
  121OSM    HO312763   5.841   3.801   6.011 -1.0301 -0.4149  0.0769
  121OSM    C4S12764   5.812   3.748   6.323  0.4596  0.3464 -0.2459
  121OSM    H4S12765   5.878   3.727   6.408  0.7479  1.0890 -0.2750
  121OSM    C5S12766   5.688   3.703   6.333  0.0584 -0.2216 -0.6166
  121OSM    H5S12767   5.619   3.711   6.248  1.3195 -0.2121 -1.6696
  121OSM    C6S12768   5.647   3.630   6.456  0.2902  0.4028  0.7475
  121OSM    H6S12769   5.680   3.525   6.447 -0.1710  0.4180 -1.8462
  121OSM    H6T12770   5.536   3.634   6.463  0.1350 -0.3614 -0.8161
  121OSM    C7S12771   5.694   3.681   6.587 -1.0776 -0.8530 -0.0527
  121OSM    H7S12772   5.684   3.789   6.609  0.1026 -0.7225 -0.1162
  121OSM    H7T12773   5.803   3.662   6.594 -0.7644  0.9310  0.4359
  121OSM    C8S12774   5.622   3.610   6.707 -0.5592 -0.6236 -0.1930
  121OSM    H8S12775   5.677   3.515   6.727  1.1707  0.0225 -1.5456
  121OSM    H8T12776   5.519   3.585   6.675 -1.2497 -0.2977  1.6577
  121OSM    C9S12777   5.619   3.700   6.825  0.3123 -0.3833  0.7772
  121OSM    H9S12778   5.539   3.773   6.803  1.2589  0.1523 -1.0811
  121OSM    H9T12779   5.722   3.742   6.823 -0.5925  2.0197  1.5296
  121OSM   C10S12780   5.581   3.616   6.953 -0.0101 -0.0757 -0.2418
  121OSM   H10S12781   5.673   3.564   6.985 -0.2114  0.6664  1.6339
  121OSM   H10T12782   5.499   3.547   6.924  0.0986 -0.4452  0.3177
  121OSM   C11S12783   5.528   3.709   7.064 -0.1191 -0.1812  0.2370
  121OSM   H11S12784   5.471   3.656   7.143  0.0066  0.5407  0.8248
  121OSM   H11T12785   5.460   3.790   7.029 -1.1902 -0.6793  1.1086
  121OSM   C12S12786   5.643   3.785   7.125 -0.1166 -0.1994  1.0352
  121OSM   H12S12787   5.676   3.853   7.044  0.1145  0.4297  1.6502
  121OSM   H12T12788   5.725   3.712   7.146 -0.6556 -0.8982  0.7644
  121OSM   C13S12789   5.607   3.867   7.246 -0.5970  1.3511  0.5866
  121OSM   H13S12790   5.502   3.901   7.241 -2.2727 -2.7653  3.0024
  121OSM   H13T12791   5.684   3.945   7.264  0.3199  0.5335  0.3365
  121OSM   C14S12792   5.600   3.781   7.377  0.3677 -0.0908  0.5825
  121OSM   H14S12793   5.706   3.752   7.395  1.1299  1.2529 -1.3176
  121OSM   H14T12794   5.537   3.690   7.363  2.0907 -1.6699  2.3987
  121OSM   C15S12795   5.545   3.868   7.491 -0.2307  0.1273 -0.3479
  121OSM   H15S12796   5.440   3.883   7.457  0.7097 -1.1368 -4.3305
  121OSM   H15T12797   5.601   3.964   7.487 -0.6981  0.4189  0.0573
  121OSM   C16S12798   5.541   3.798   7.628  0.6400  0.6504  0.1706
  121OSM   H16S12799   5.492   3.700   7.610  1.5939  0.1017  0.4402
  121OSM   H16T12800   5.477   3.864   7.691 -2.9830 -1.4411 -1.0379
  121OSM   C17S12801   5.668   3.791   7.711  0.2303  0.5277  0.5992
  121OSM   H17S12802   5.712   3.893   7.707  0.2957  0.4678 -0.2679
  121OSM   H17T12803   5.740   3.722   7.662  0.3313  0.4120  0.9077
  121OSM   C18S12804   5.658   3.756   7.858  0.2783  0.3250  0.5624
  121OSM   H18S12805   5.608   3.830   7.924  0.5008  1.0525 -0.0673
  121OSM   H18T12806   5.760   3.757   7.902  1.1107  0.7753 -1.3085
  121OSM   H18U12807   5.601   3.661   7.857 -1.3598  1.2687  0.8624
  121OSM    C1F12808   5.801   4.161   6.345 -0.6252  0.7904 -0.2960
  121OSM     OF12809   5.747   4.231   6.261 -0.0446  0.4647  0.7290
  121OSM    C2F12810   5.809   4.212   6.488 -0.7421  0.8908 -0.7824
  121OSM    H2F12811   5.915   4.221   6.520 -1.1232  3.8894 -0.0798
  121OSM    H2G12812   5.771   4.131   6.554  0.7217 -0.4695 -1.5319
  121OSM    C3F12813   5.737   4.347   6.498  0.4269 -0.6157  0.1587
  121OSM    H3F12814   5.637   4.342   6.449  0.9060 -0.3344 -0.8815
  121OSM    H3G12815   5.795   4.419   6.436 -0.2570 -0.7820 -0.6985
  121OSM    C4F12816   5.735   4.400   6.644 -0.9917  0.1078  0.4336
  121OSM    H4F12817   5.667   4.488   6.647  2.3289  2.9194  3.9160
  121OSM    H4G12818   5.839   4.431   6.669  0.7774 -1.4997 -3.9880
  121OSM    C5F12819   5.681   4.290   6.735  0.0036  0.8912  0.0550
  121OSM    H5F12820   5.769   4.226   6.759 -0.5930  0.8166  2.1958
  121OSM    H5G12821   5.591   4.235   6.701  1.3139 -1.7041  0.5336
  121OSM    C6F12822   5.644   4.345   6.872  0.1671  0.1987 -0.0918
  121OSM    H6F12823   5.576   4.427   6.842  0.4745  0.5704  0.2117
  121OSM    H6G12824   5.727   4.394   6.927  0.4890  0.7173 -1.0114
  121OSM    C7F12825   5.570   4.248   6.962  0.0052  0.3622 -0.6107
  121OSM    H7F12826   5.635   4.159   6.973  1.1521  1.3978  1.6975
  121OSM    H7G12827   5.482   4.206   6.907  0.6929 -0.9197 -0.7608
  121OSM    C8F12828   5.543   4.303   7.110 -0.4925  0.2957  0.1971
  121OSM    H8F12829   5.478   4.393   7.109  0.2329  0.8949 -2.5767
  121OSM    H8G12830   5.637   4.342   7.155 -0.0060 -0.2007 -0.3551
  121OSM    C9F12831   5.488   4.194   7.204  0.0691  0.1402  0.2390
  121OSM    H9F12832   5.467   4.097   7.156  0.6294  0.4608 -0.6867
  121OSM   C10F12833   5.468   4.204   7.339  0.3602 -0.2091  0.4458
  121OSM   H10F12834   5.442   4.113   7.394  1.2548  0.0310  1.3017
  121OSM   C11F12835   5.496   4.324   7.427  0.2277  0.0415 -0.7469
  121OSM   H11F12836   5.421   4.334   7.509  1.0290  0.0695 -0.0035
  121OSM   H11G12837   5.485   4.414   7.363 -2.0372  0.6964  0.4464
  121OSM   C12F12838   5.640   4.306   7.479  0.6225  0.3916  0.2807
  121OSM   H12F12839   5.704   4.314   7.389  1.4319 -0.2310  0.7881
  121OSM   H12G12840   5.665   4.204   7.515  0.9547  0.6515  0.7955
  121OSM   C13F12841   5.686   4.416   7.568 -0.3771 -0.0995 -0.6217
  121OSM   H13F12842   5.624   4.406   7.659 -1.7476 -0.4636 -1.5651
  121OSM   H13G12843   5.671   4.522   7.538  0.2069  0.6428  1.5421
  121OSM   C14F12844   5.826   4.393   7.615 -0.0117  0.3052 -0.0981
  121OSM   H14F12845   5.882   4.358   7.525 -1.9867 -1.6420 -0.6659
  121OSM   H14G12846   5.827   4.305   7.682 -0.5000 -1.2997 -2.0770
  121OSM   C15F12847   5.876   4.513   7.689  0.6818  0.0135  0.6547
  121OSM   H15F12848   5.794   4.541   7.758 -0.5410  1.2125 -1.1716
  121OSM   H15G12849   5.889   4.600   7.621  0.3477 -0.1367  0.3931
  121OSM   C16F12850   6.002   4.500   7.786  0.2017 -0.8566 -0.6970
  121OSM   H16F12851   6.075   4.423   7.755  2.2046  0.2894  0.9328
  121OSM   H16G12852   5.958   4.468   7.883 -0.0740 -0.0563 -0.5503
  121OSM   C17F12853   6.063   4.636   7.816 -0.6671  0.0029 -0.4055
  121OSM   H17F12854   6.093   4.678   7.717  0.4629  1.2555  0.4304
  121OSM   H17G12855   6.157   4.622   7.874 -0.6185 -0.8367 -0.6729
  121OSM   C18F12856   5.979   4.730   7.891  0.8316  1.3225  0.4392
  121OSM   H18F12857   6.032   4.827   7.908 -0.1848  1.9421  0.1491
  121OSM   H18G12858   5.955   4.698   7.994  2.9561  1.5563  1.0651
  121OSM   H18H12859   5.889   4.754   7.830 -0.5773 -0.0136  1.9010
  122OSM      N12860   2.940   5.702   5.450  0.1218  0.4717  0.2464
  122OSM    C1512861   3.083   5.657   5.448 -0.1386 -0.6283 -0.6478
  122OSM   H15A12862   3.086   5.572   5.382 -1.7104 -0.1284 -1.4062
  122OSM   H15B12863   3.109   5.613   5.544 -3.4054 -1.4297 -0.0236
  122OSM   H15C12864   3.150   5.730   5.406 -0.6352  0.6430  0.6747
  122OSM    C1412865   2.903   5.730   5.312 -0.0152 -0.4548  0.1295
  122OSM   H14A12866   2.909   5.634   5.261 -1.0337  0.0607 -1.0020
  122OSM   H14B12867   2.972   5.796   5.261  0.5874 -0.3464  1.0633
  122OSM   H14C12868   2.803   5.769   5.309  0.4771  1.2178  2.4765
  122OSM    C1312869   2.860   5.590   5.512 -0.1632 -0.2366 -0.1887
  122OSM   H13A12870   2.902   5.573   5.610 -0.8300  2.1021  0.5669
  122OSM   H13B12871   2.861   5.503   5.449 -2.4930 -0.3607 -0.1543
  122OSM   H13C12872   2.758   5.623   5.502 -0.2554 -1.1703 -3.0469
  122OSM    C1212873   2.939   5.822   5.545 -0.2375 -0.0556 -0.4145
  122OSM   H12A12874   3.000   5.900   5.501 -1.3823  0.8431 -0.4518
  122OSM   H12B12875   2.992   5.795   5.635 -0.8519 -0.8964 -0.2935
  122OSM    C1112876   2.797   5.877   5.564  0.3321 -0.4936 -0.9592
  122OSM   H11A12877   2.783   5.920   5.666  1.3151 -0.8179 -0.6799
  122OSM   H11B12878   2.719   5.799   5.564  0.0929 -0.2758 -1.9390
  122OSM      P12879   2.852   6.118   5.473  0.1104 -0.0903 -0.2395
  122OSM    O1312880   3.003   6.104   5.471 -0.3056 -0.0092  0.3297
  122OSM    O1412881   2.791   6.219   5.385  0.1774  0.2999 -0.2853
  122OSM    O1112882   2.821   6.162   5.624 -0.4797  0.1640 -0.3251
  122OSM    O1212883   2.776   5.975   5.462  0.1692 -0.2058 -0.3908
  122OSM    C1S12884   2.690   6.162   5.685  0.1762  0.0714 -0.0437
  122OSM    H1S12885   2.628   6.076   5.653 -2.1169  1.8313 -0.5453
  122OSM    H1T12886   2.633   6.252   5.654  0.1818 -0.2571 -1.0222
  122OSM     NF12887   2.573   6.123   5.899  0.1549 -0.3145  0.4885
  122OSM    HNF12888   2.514   6.195   5.934 -0.3025  0.6698 -2.0326
  122OSM    C2S12889   2.701   6.158   5.839 -0.0263 -0.7047 -0.6919
  122OSM    H2S12890   2.767   6.075   5.872  0.8629  0.8382  1.6639
  122OSM    C3S12891   2.782   6.289   5.886 -0.8949 -0.6784 -0.2863
  122OSM    H3S12892   2.712   6.374   5.874  2.8499  2.4366 -2.4491
  122OSM     O312893   2.897   6.338   5.813  0.6111  0.4570  0.0347
  122OSM    HO312894   2.879   6.287   5.734 -5.4627  0.7012  0.7602
  122OSM    C4S12895   2.810   6.261   6.033  0.0269 -0.5700  0.0981
  122OSM    H4S12896   2.737   6.303   6.104  1.3918 -1.7642  2.3449
  122OSM    C5S12897   2.927   6.218   6.079 -0.3208  0.1751 -0.1345
  122OSM    H5S12898   3.008   6.209   6.004 -1.4348  0.9985 -1.4905
  122OSM    C6S12899   2.960   6.218   6.222 -0.2591  0.1956 -0.8444
  122OSM    H6S12900   2.982   6.114   6.254  0.8908  0.3948 -0.9583
  122OSM    H6T12901   2.874   6.269   6.272 -2.2203 -0.5903 -3.2094
  122OSM    C7S12902   3.081   6.301   6.256  0.1765  0.2110 -0.3988
  122OSM    H7S12903   3.073   6.401   6.208  0.6294 -0.2869 -1.5399
  122OSM    H7T12904   3.162   6.254   6.196  1.4004  0.3314  1.0808
  122OSM    C8S12905   3.111   6.295   6.410  0.5786 -0.2308 -0.6461
  122OSM    H8S12906   3.214   6.336   6.422  1.4436 -1.8217 -2.2185
  122OSM    H8T12907   3.116   6.187   6.433 -2.3942 -0.4029 -0.4250
  122OSM    C9S12908   3.001   6.353   6.490 -0.1699 -0.1528 -0.0103
  122OSM    H9S12909   2.905   6.300   6.472 -0.9814  1.6072 -1.1600
  122OSM    H9T12910   2.982   6.461   6.469  1.3888  1.0859  4.0152
  122OSM   C10S12911   3.030   6.339   6.645  0.0841 -0.3896 -0.3910
  122OSM   H10S12912   2.937   6.382   6.689 -0.2275 -1.5346  0.0946
  122OSM   H10T12913   3.120   6.398   6.673  1.7183 -2.0940 -1.7933
  122OSM   C11S12914   3.055   6.197   6.700  0.7896  0.2150  0.0429
  122OSM   H11S12915   3.131   6.138   6.645  2.1681  0.4293  1.6056
  122OSM   H11T12916   2.968   6.129   6.688 -0.0594  1.5570 -1.9192
  122OSM   C12S12917   3.101   6.206   6.848  0.0794 -0.2830 -0.3181
  122OSM   H12S12918   3.020   6.232   6.920  0.0106  0.7571 -0.7471
  122OSM   H12T12919   3.174   6.289   6.858  1.0829 -1.1060 -0.6744
  122OSM   C13S12920   3.159   6.071   6.894  0.0364  0.4522  0.1073
  122OSM   H13S12921   3.254   6.042   6.845 -0.7609 -1.3589 -0.4313
  122OSM   H13T12922   3.088   5.989   6.872 -0.9883  1.3985 -0.2306
  122OSM   C14S12923   3.188   6.078   7.046 -0.3251  0.4501 -0.2650
  122OSM   H14S12924   3.091   6.095   7.099 -0.2067 -0.4945  0.2647
  122OSM   H14T12925   3.254   6.163   7.075  1.3832  0.0340 -2.6537
  122OSM   C15S12926   3.253   5.949   7.094  0.1052 -0.3892 -0.4748
  122OSM   H15S12927   3.349   5.915   7.049  0.2753  0.8884 -1.0991
  122OSM   H15T12928   3.180   5.870   7.067  1.6184 -0.8029 -3.8805
  122OSM   C16S12929   3.266   5.936   7.246 -0.1757 -0.1706  0.2076
  122OSM   H16S12930   3.177   5.989   7.285  0.5117  0.5911  0.7509
  122OSM   H16T12931   3.367   5.969   7.277  1.0176 -0.5441 -2.8868
  122OSM   C17S12932   3.243   5.794   7.301 -0.2422 -0.4959  0.5856
  122OSM   H17S12933   3.328   5.737   7.259 -0.2017 -0.2772  0.3686
  122OSM   H17T12934   3.154   5.744   7.255  1.1473 -2.6449  0.0629
  122OSM   C18S12935   3.239   5.778   7.453  0.2023  0.1034 -0.1546
  122OSM   H18S12936   3.157   5.844   7.490 -0.7314 -0.2954 -1.4554
  122OSM   H18T12937   3.329   5.812   7.508 -0.3009  2.0867 -0.4977
  122OSM   H18U12938   3.211   5.676   7.487 -0.3086  0.7072  1.3102
  122OSM    C1F12939   2.513   6.002   5.882  0.0577  0.0049 -0.3478
  122OSM     OF12940   2.569   5.908   5.835  0.2766 -0.3319 -0.4530
  122OSM    C2F12941   2.360   5.997   5.912 -0.6223  0.6982 -0.2824
  122OSM    H2F12942   2.306   5.970   5.818 -1.5953  2.2471 -0.1907
  122OSM    H2G12943   2.321   6.094   5.948  0.6565  1.0719  0.1410
  122OSM    C3F12944   2.326   5.893   6.021  0.3137  1.0155  0.0331
  122OSM    H3F12945   2.361   5.797   5.979 -0.0129  0.2160  1.5209
  122OSM    H3G12946   2.217   5.888   6.039  0.3328  0.3776 -0.0382
  122OSM    C4F12947   2.404   5.903   6.150  0.6453 -0.4818  0.5856
  122OSM    H4F12948   2.512   5.902   6.124  0.3109  1.0352 -1.0836
  122OSM    H4G12949   2.390   5.814   6.215  1.4476 -1.0790 -0.0465
  122OSM    C5F12950   2.367   6.027   6.228 -0.3649 -0.8275 -0.3218
  122OSM    H5F12951   2.259   6.029   6.256  0.3128  0.2075  2.4928
  122OSM    H5G12952   2.391   6.109   6.158 -0.2474  1.5227  2.2922
  122OSM    C6F12953   2.469   6.039   6.345  0.9598  0.4106 -0.1141
  122OSM    H6F12954   2.572   6.006   6.318  0.7584 -1.1688  0.9336
  122OSM    H6G12955   2.422   5.982   6.428 -0.9372  1.8555 -0.1128
  122OSM    C7F12956   2.471   6.180   6.396 -0.3546 -0.3351 -0.5178
  122OSM    H7F12957   2.375   6.200   6.450 -0.0183 -0.3914  0.1064
  122OSM    H7G12958   2.481   6.248   6.309  1.2699 -0.2240 -0.2772
  122OSM    C8F12959   2.601   6.212   6.480  0.3630 -0.5624 -0.3091
  122OSM    H8F12960   2.693   6.206   6.418  1.0350  0.6239  0.5287
  122OSM    H8G12961   2.612   6.141   6.565  0.8432  0.4719  0.5300
  122OSM    C9F12962   2.586   6.352   6.537 -0.6858  0.0538  0.2022
  122OSM    H9F12963   2.557   6.421   6.456  1.7224  0.4868 -0.3713
  122OSM   C10F12964   2.589   6.392   6.670  0.5490  0.1973 -0.4341
  122OSM   H10F12965   2.581   6.500   6.691  1.4335 -0.2271  2.6772
  122OSM   C11F12966   2.651   6.314   6.786  0.3118  0.1136  0.6930
  122OSM   H11F12967   2.693   6.381   6.863 -0.8842 -1.7510  3.1373
  122OSM   H11G12968   2.739   6.254   6.753 -0.3211 -1.3249  1.4977
  122OSM   C12F12969   2.556   6.220   6.852 -0.0291 -0.1863 -0.5427
  122OSM   H12F12970   2.517   6.144   6.780 -1.1721 -1.5033  1.3657
  122OSM   H12G12971   2.465   6.275   6.884  1.0145 -0.1361  2.6908
  122OSM   C13F12972   2.609   6.143   6.983 -0.9944 -0.0044 -0.1262
  122OSM   H13F12973   2.718   6.167   6.983 -0.6373 -1.5027 -1.1678
  122OSM   H13G12974   2.599   6.033   6.976  1.0617 -0.2416  0.0070
  122OSM   C14F12975   2.574   6.195   7.123 -0.0517 -0.1943 -0.4503
  122OSM   H14F12976   2.470   6.175   7.156 -0.3060 -0.0346 -1.1538
  122OSM   H14G12977   2.563   6.304   7.112 -0.5128 -0.3975 -2.2501
  122OSM   C15F12978   2.663   6.154   7.248  0.4364 -0.2093  0.3781
  122OSM   H15F12979   2.637   6.200   7.345 -0.0323  3.2910 -1.2421
  122OSM   H15G12980   2.762   6.193   7.213 -1.0652  1.5617 -2.2748
  122OSM   C16F12981   2.665   5.998   7.271  0.6390 -0.4849 -0.1165
  122OSM   H16F12982   2.687   5.947   7.175 -0.2339  1.6793 -1.5236
  122OSM   H16G12983   2.568   5.962   7.311 -0.6630  4.1133  1.5115
  122OSM   C17F12984   2.778   5.956   7.370 -0.2472 -0.3765  0.6683
  122OSM   H17F12985   2.777   6.033   7.450  0.7700 -0.2254  0.5492
  122OSM   H17G12986   2.872   5.969   7.313 -1.5119  3.9276 -0.8088
  122OSM   C18F12987   2.760   5.816   7.419  0.4884  0.0679  0.2035
  122OSM   H18F12988   2.696   5.812   7.510 -1.3690 -1.4513 -1.1137
  122OSM   H18G12989   2.851   5.775   7.468  0.5694  1.0965  0.9452
  122OSM   H18H12990   2.717   5.746   7.345  1.7532 -2.2090  1.4928
  123OSM      N12991   2.118   0.983   5.653  0.6186 -0.5379 -0.7095
  123OSM    C1512992   2.242   0.922   5.706 -0.0330  0.4277  0.2683
  123OSM   H15A12993   2.220   0.826   5.751  0.3351 -0.0603 -0.5642
  123OSM   H15B12994   2.296   0.985   5.775 -0.1230  1.6808 -0.7710
  123OSM   H15C12995   2.322   0.908   5.635  0.9984 -0.5541  1.5603
  123OSM    C1412996   2.148   1.132   5.628 -0.5920  1.4311  1.0333
  123OSM   H14A12997   2.242   1.140   5.575 -0.8455  1.6754  0.6151
  123OSM   H14B12998   2.158   1.181   5.724 -0.0151  2.4747  0.4684
  123OSM   H14C12999   2.080   1.193   5.571  0.5049  1.4539 -0.3284
  123OSM    C1313000   2.070   0.916   5.527 -0.1330 -0.5702  0.4129
  123OSM   H13A13001   2.000   0.976   5.471  0.6049 -1.2441 -1.3039
  123OSM   H13B13002   2.031   0.816   5.541 -0.1488 -0.5474  0.5303
  123OSM   H13C13003   2.147   0.895   5.454  0.3335 -1.0820  1.0385
  123OSM    C1213004   2.006   0.969   5.763  0.1394  0.2513 -0.3995
  123OSM   H12A13005   1.986   0.863   5.762  0.2239  0.2292 -1.5355
  123OSM   H12B13006   1.920   1.015   5.717  0.8806  0.7892 -1.3012
  123OSM    C1113007   2.025   1.015   5.904  0.2980 -0.0606 -0.3443
  123OSM   H11A13008   2.113   0.962   5.947 -1.3357 -2.3605  0.3779
  123OSM   H11B13009   1.938   0.981   5.964  0.7733  1.5875  1.4061
  123OSM      P13010   2.075   1.234   6.037  0.2823 -0.0806 -0.1229
  123OSM    O1313011   2.219   1.271   6.017 -0.0145 -0.1382  0.3995
  123OSM    O1413012   1.983   1.341   6.062  0.3916  0.4160 -0.0468
  123OSM    O1113013   2.052   1.130   6.157  0.2344  0.7939  0.3270
  123OSM    O1213014   2.033   1.156   5.912 -0.0510 -0.0742  0.3075
  123OSM    C1S13015   2.129   1.148   6.272 -0.0190 -0.4665 -0.8929
  123OSM    H1S13016   2.236   1.164   6.246  0.5558  0.2685  1.6165
  123OSM    H1T13017   2.134   1.046   6.315 -2.1482 -0.3978 -0.3470
  123OSM     NF13018   2.152   1.298   6.470  0.0639  0.1181  0.6085
  123OSM    HNF13019   2.144   1.261   6.562  2.7249 -0.4336  0.7162
  123OSM    C2S13020   2.059   1.249   6.373 -0.4196  0.0576  0.0636
  123OSM    H2S13021   2.018   1.332   6.312 -0.9054  0.1867  0.5545
  123OSM    C3S13022   1.938   1.174   6.436 -0.1447 -1.0631  0.4093
  123OSM    H3S13023   1.987   1.092   6.493  0.9270 -0.2853  0.6432
  123OSM     O313024   1.851   1.113   6.343  0.0655 -0.4077 -0.1684
  123OSM    HO313025   1.904   1.130   6.264  3.1782  1.4861  2.0812
  123OSM    C4S13026   1.868   1.260   6.529 -0.2540 -0.5674 -0.3140
  123OSM    H4S13027   1.860   1.367   6.503 -0.6412 -0.3196  0.7805
  123OSM    C5S13028   1.820   1.221   6.649 -0.3384  0.2655 -0.0864
  123OSM    H5S13029   1.838   1.118   6.684 -0.3211  0.1858 -0.3292
  123OSM    C6S13030   1.762   1.312   6.754  0.2419 -0.5356  0.0547
  123OSM    H6S13031   1.652   1.303   6.762  0.3779 -0.5326  3.0619
  123OSM    H6T13032   1.778   1.418   6.724  1.9401 -0.6417  0.4950
  123OSM    C7S13033   1.823   1.296   6.897 -0.4146  0.2417 -0.6245
  123OSM    H7S13034   1.924   1.340   6.892 -0.9864  1.5632 -1.0078
  123OSM    H7T13035   1.821   1.187   6.921  2.0446  0.2272 -0.3126
  123OSM    C8S13036   1.747   1.371   7.008  0.3836 -0.1736  0.3724
  123OSM    H8S13037   1.651   1.316   7.009  1.0357 -1.3381  1.2732
  123OSM    H8T13038   1.727   1.473   6.970  0.1054 -0.7286 -1.0035
  123OSM    C9S13039   1.804   1.357   7.147 -0.6669 -0.1480  0.7682
  123OSM    H9S13040   1.905   1.403   7.138 -1.3751  1.3075 -0.2309
  123OSM    H9T13041   1.825   1.251   7.170  1.5987 -0.2513 -1.2518
  123OSM   C10S13042   1.728   1.413   7.258  0.6169  0.2466 -0.7044
  123OSM   H10S13043   1.625   1.372   7.260  0.3955  0.7497  1.6199
  123OSM   H10T13044   1.722   1.523   7.248 -1.1318  0.4318  1.5862
  123OSM   C11S13045   1.782   1.395   7.406  0.2950  1.0467  0.4008
  123OSM   H11S13046   1.893   1.390   7.400  0.3024  1.1312  0.4543
  123OSM   H11T13047   1.760   1.291   7.439  0.3869  0.5334 -1.0919
  123OSM   C12S13048   1.725   1.492   7.510 -0.2124 -0.0179 -0.2130
  123OSM   H12S13049   1.754   1.600   7.508  1.0632 -0.3449 -0.3271
  123OSM   H12T13050   1.769   1.464   7.608  2.8230  0.6782 -1.2507
  123OSM   C13S13051   1.569   1.499   7.522  0.4294 -0.3264  0.3053
  123OSM   H13S13052   1.528   1.403   7.560  0.5949 -0.6929 -0.4318
  123OSM   H13T13053   1.532   1.510   7.418  1.1133 -0.1219  0.0845
  123OSM   C14S13054   1.509   1.609   7.618 -0.1681 -0.1340 -0.6668
  123OSM   H14S13055   1.565   1.705   7.615 -0.0393 -0.2093 -0.7105
  123OSM   H14T13056   1.525   1.573   7.722 -0.3294  1.8302  0.0838
  123OSM   C15S13057   1.362   1.642   7.605  0.0025  0.1837 -0.1939
  123OSM   H15S13058   1.322   1.682   7.701 -0.8654 -3.0738  0.9092
  123OSM   H15T13059   1.299   1.552   7.587  1.5826 -0.5531 -2.4922
  123OSM   C16S13060   1.347   1.751   7.494  0.9481 -0.4840  0.0310
  123OSM   H16S13061   1.245   1.769   7.452  0.9410 -0.0480  0.2292
  123OSM   H16T13062   1.402   1.716   7.404 -0.2520  0.4359 -1.0985
  123OSM   C17S13063   1.385   1.900   7.538 -0.0016  0.3000  0.3545
  123OSM   H17S13064   1.364   1.952   7.442 -0.7319 -1.3743 -0.4317
  123OSM   H17T13065   1.493   1.916   7.561  0.8073 -0.3641 -2.5542
  123OSM   C18S13066   1.303   1.961   7.651 -0.5999  0.2494  0.1495
  123OSM   H18S13067   1.312   1.904   7.746 -1.0015  0.5730  0.3819
  123OSM   H18T13068   1.198   1.972   7.618  0.3205 -0.6188 -3.6587
  123OSM   H18U13069   1.339   2.063   7.678 -0.6701  0.0021  1.2257
  123OSM    C1F13070   2.247   1.381   6.431 -0.4004  0.5622 -0.2521
  123OSM     OF13071   2.268   1.407   6.315 -0.0893  0.2751  0.4970
  123OSM    C2F13072   2.336   1.441   6.539 -0.5578 -0.7661 -0.1964
  123OSM    H2F13073   2.437   1.442   6.492  0.3069 -1.1913  1.5574
  123OSM    H2G13074   2.343   1.382   6.633 -3.5344 -2.5709 -0.9793
  123OSM    C3F13075   2.297   1.586   6.570 -0.3487 -0.8246  0.7800
  123OSM    H3F13076   2.303   1.653   6.481 -1.6863 -0.6123  0.8254
  123OSM    H3G13077   2.370   1.629   6.641 -0.1472  2.7413 -1.2953
  123OSM    C4F13078   2.168   1.614   6.653  0.7496  0.1198  0.6248
  123OSM    H4F13079   2.079   1.559   6.615  1.7119 -1.5886  0.7557
  123OSM    H4G13080   2.152   1.723   6.640  1.0984  0.0444 -0.5174
  123OSM    C5F13081   2.185   1.580   6.804  0.0820 -0.1351 -0.1993
  123OSM    H5F13082   2.280   1.619   6.846 -0.2617  0.0876  0.3819
  123OSM    H5G13083   2.185   1.470   6.822 -6.1015 -0.5607 -0.5720
  123OSM    C6F13084   2.066   1.629   6.884 -0.6607 -0.0192  0.3629
  123OSM    H6F13085   1.963   1.594   6.867 -1.3136  2.7750 -2.2813
  123OSM    H6G13086   2.054   1.738   6.868 -3.3207 -0.0608  1.6320
  123OSM    C7F13087   2.093   1.618   7.040  0.6760 -0.4586 -0.5474
  123OSM    H7F13088   2.174   1.694   7.050 -1.0509  1.1525  3.2070
  123OSM    H7G13089   2.117   1.512   7.064 -0.4488 -1.0030 -1.7104
  123OSM    C8F13090   1.989   1.685   7.126  0.0352  0.0845 -0.1881
  123OSM    H8F13091   1.892   1.636   7.101 -1.1085  1.6420  0.9575
  123OSM    H8G13092   1.973   1.787   7.083  1.0882 -0.3637 -1.7227
  123OSM    C9F13093   2.019   1.689   7.274  0.4272  0.0420  0.4528
  123OSM    H9F13094   2.048   1.594   7.321  2.1165  0.3465  0.1028
  123OSM   C10F13095   1.991   1.795   7.352  0.2638  0.1368  0.0837
  123OSM   H10F13096   2.022   1.796   7.457 -0.3001  0.2894  0.2510
  123OSM   C11F13097   1.939   1.929   7.306 -0.4228  0.0471 -0.6364
  123OSM   H11F13098   1.871   1.970   7.383  0.6598  0.3289  0.1932
  123OSM   H11G13099   1.889   1.922   7.207 -3.0666 -0.8372  0.6810
  123OSM   C12F13100   2.053   2.034   7.300 -0.6642  0.2209 -0.0097
  123OSM   H12F13101   2.012   2.124   7.249  0.0570 -0.0990 -1.2049
  123OSM   H12G13102   2.144   2.004   7.242  0.9177  2.3364  1.2207
  123OSM   C13F13103   2.103   2.089   7.437 -0.2648  0.3972  0.0121
  123OSM   H13F13104   2.117   2.000   7.503 -3.3032 -1.3357 -1.5081
  123OSM   H13G13105   2.019   2.151   7.475  1.1230  3.1880 -1.1566
  123OSM   C14F13106   2.225   2.172   7.432 -0.2369  0.0733  0.9958
  123OSM   H14F13107   2.203   2.280   7.429  0.4437  0.1941 -0.3104
  123OSM   H14G13108   2.273   2.157   7.333 -0.5382  0.9879  0.7124
  123OSM   C15F13109   2.326   2.151   7.544 -0.3028  0.1705 -0.1133
  123OSM   H15F13110   2.351   2.043   7.547  0.3211  0.3047 -0.3519
  123OSM   H15G13111   2.272   2.171   7.639 -0.1097  2.6077 -0.4528
  123OSM   C16F13112   2.445   2.247   7.544 -0.3694 -0.0747 -0.1254
  123OSM   H16F13113   2.498   2.261   7.641  0.2763  2.6567 -0.7805
  123OSM   H16G13114   2.398   2.345   7.518 -1.7504 -1.3504 -2.8265
  123OSM   C17F13115   2.555   2.225   7.429 -0.2578  0.0526  0.1504
  123OSM   H17F13116   2.504   2.247   7.333 -2.5844  0.3772  1.3935
  123OSM   H17G13117   2.573   2.116   7.416  0.4016  0.2158 -0.4281
  123OSM   C18F13118   2.673   2.310   7.439  0.3063  0.2349  0.0947
  123OSM   H18F13119   2.734   2.307   7.345 -0.8262 -0.1769 -0.6433
  123OSM   H18G13120   2.730   2.283   7.530 -2.3924 -0.2681  1.7326
  123OSM   H18H13121   2.635   2.413   7.455 -0.9599 -0.0371 -1.0097
  124OSM      N13122   1.249   4.363   5.068  0.2908 -0.3502  0.0367
  124OSM    C1513123   1.254   4.509   5.068  0.2583 -0.3386  0.1343
  124OSM   H15A13124   1.209   4.555   4.981 -0.4708 -0.0486  0.6613
  124OSM   H15B13125   1.355   4.548   5.068  0.0911  0.1919 -1.8128
  124OSM   H15C13126   1.206   4.554   5.153  1.0548  2.4786 -0.8056
  124OSM    C1413127   1.110   4.333   5.120  0.0019  0.1039  0.8452
  124OSM   H14A13128   1.089   4.227   5.109 -0.3684  0.4039 -1.9175
  124OSM   H14B13129   1.027   4.379   5.069  0.5243 -0.1609 -0.2786
  124OSM   H14C13130   1.113   4.367   5.223 -0.1726 -1.4791  1.4049
  124OSM    C1313131   1.261   4.315   4.925 -1.0863 -0.2079 -1.0149
  124OSM   H13A13132   1.354   4.344   4.878  0.1787 -0.8926  0.9225
  124OSM   H13B13133   1.180   4.355   4.867 -0.5709  0.3251 -1.3705
  124OSM   H13C13134   1.245   4.209   4.909  1.3943 -0.5060 -2.0478
  124OSM    C1213135   1.355   4.304   5.154  0.9078  0.8196 -0.3989
  124OSM   H12A13136   1.452   4.342   5.125  1.0995  0.3160 -0.4290
  124OSM   H12B13137   1.364   4.197   5.152 -0.4508  0.6760  0.3290
  124OSM    C1113138   1.347   4.334   5.309  1.2467 -0.1338 -0.2404
  124OSM   H11A13139   1.356   4.444   5.312  0.1643 -0.0411  0.1532
  124OSM   H11B13140   1.435   4.290   5.360 -0.4775 -0.1478  3.0028
  124OSM      P13141   1.204   4.141   5.401 -0.0187  0.2342 -0.1408
  124OSM    O1313142   1.058   4.117   5.375 -0.3513 -0.3974 -0.1700
  124OSM    O1413143   1.300   4.059   5.324 -0.1664 -0.5137 -0.3403
  124OSM    O1113144   1.223   4.126   5.554 -0.6210  0.0906 -0.0507
  124OSM    O1213145   1.227   4.299   5.375  0.3306 -0.1882  0.0071
  124OSM    C1S13146   1.147   4.208   5.644 -0.3242 -0.6600 -0.2306
  124OSM    H1S13147   1.039   4.204   5.618 -0.6002 -0.7640  0.8484
  124OSM    H1T13148   1.193   4.309   5.651  0.6825 -1.2051  2.3712
  124OSM     NF13149   1.069   4.204   5.881  0.0684 -0.6015 -0.4131
  124OSM    HNF13150   1.098   4.254   5.963  1.1631  1.0970 -1.7746
  124OSM    C2S13151   1.173   4.157   5.789 -0.1325 -0.1206 -0.1375
  124OSM    H2S13152   1.180   4.047   5.782  0.6738 -0.1737  1.1870
  124OSM    C3S13153   1.326   4.191   5.825 -0.2077  0.0351 -0.1089
  124OSM    H3S13154   1.338   4.301   5.830  2.5934 -0.2181  0.2301
  124OSM     O313155   1.420   4.152   5.731  0.0339 -0.1189 -0.3437
  124OSM    HO313156   1.366   4.129   5.655  1.6023 -0.1085 -1.5192
  124OSM    C4S13157   1.366   4.142   5.966  0.3402 -0.4105  0.4592
  124OSM    H4S13158   1.369   4.033   5.979  2.4561 -0.4341  0.1500
  124OSM    C5S13159   1.410   4.223   6.063 -0.9172 -0.1986  0.6556
  124OSM    H5S13160   1.407   4.332   6.053  0.8859 -0.0864  1.0942
  124OSM    C6S13161   1.449   4.175   6.198 -0.1621 -0.9280 -0.4339
  124OSM    H6S13162   1.393   4.245   6.264 -0.1385 -1.1068 -0.2237
  124OSM    H6T13163   1.558   4.181   6.217 -0.2744  0.7644 -0.1589
  124OSM    C7S13164   1.405   4.037   6.255  1.0336  1.0667  0.0484
  124OSM    H7S13165   1.474   3.967   6.204  1.2583  1.8859 -0.8043
  124OSM    H7T13166   1.298   4.019   6.233  1.0198  1.1205  0.0714
  124OSM    C8S13167   1.427   4.041   6.408  0.1517 -0.3818 -0.1816
  124OSM    H8S13168   1.386   4.130   6.459 -1.5143 -1.2327  0.0334
  124OSM    H8T13169   1.538   4.048   6.405  0.1237  0.0606 -2.7889
  124OSM    C9S13170   1.358   3.924   6.485  0.0799  0.0990 -1.0030
  124OSM    H9S13171   1.426   3.838   6.470  0.2264 -0.6333  2.9450
  124OSM    H9T13172   1.267   3.909   6.424  0.8618 -1.2006 -1.9074
  124OSM   C10S13173   1.318   3.953   6.626  0.4382 -0.0151 -0.4784
  124OSM   H10S13174   1.267   3.864   6.667 -1.2141  1.1485  0.1119
  124OSM   H10T13175   1.241   4.032   6.642  1.2772  0.4790  1.3794
  124OSM   C11S13176   1.441   3.987   6.715 -0.4744 -0.3688  0.6288
  124OSM   H11S13177   1.451   4.096   6.734  0.8362  0.0339 -2.0064
  124OSM   H11T13178   1.529   3.944   6.664  0.0263 -2.3423  2.9353
  124OSM   C12S13179   1.430   3.908   6.843 -0.1165 -0.3054  0.0826
  124OSM   H12S13180   1.529   3.901   6.893  0.9513 -0.3429 -1.9493
  124OSM   H12T13181   1.406   3.804   6.813  2.9486 -0.5820 -1.8100
  124OSM   C13S13182   1.333   3.971   6.948  0.1399 -0.2060  0.4181
  124OSM   H13S13183   1.263   3.892   6.983 -0.2967 -0.0020  0.0220
  124OSM   H13T13184   1.269   4.046   6.896  2.4773  1.1511 -0.6578
  124OSM   C14S13185   1.405   4.046   7.058 -0.0496  0.1799  0.3420
  124OSM   H14S13186   1.357   4.139   7.097 -0.7908  0.5987 -1.4438
  124OSM   H14T13187   1.497   4.087   7.012 -0.3440 -1.1935 -1.5591
  124OSM   C15S13188   1.440   3.965   7.179 -1.0247 -0.5914 -0.0882
  124OSM   H15S13189   1.496   3.872   7.156  1.7362  1.3353 -1.7940
  124OSM   H15T13190   1.349   3.936   7.235 -1.3912 -0.1489 -0.4446
  124OSM   C16S13191   1.524   4.058   7.276  0.4418  0.3245  0.5579
  124OSM   H16S13192   1.477   4.158   7.286 -0.6629  0.2067 -2.3572
  124OSM   H16T13193   1.624   4.062   7.229 -0.2760 -0.3987 -1.1149
  124OSM   C17S13194   1.559   3.986   7.410 -0.0217  0.0681  0.4028
  124OSM   H17S13195   1.567   3.876   7.394 -2.4224  0.0565 -1.2276
  124OSM   H17T13196   1.472   3.981   7.479 -2.4180  0.7869 -2.3739
  124OSM   C18S13197   1.682   4.031   7.474  0.4417  0.1083  0.1081
  124OSM   H18S13198   1.689   4.014   7.584  3.6491  1.8939  0.2887
  124OSM   H18T13199   1.698   4.140   7.463  0.1265  0.3895  2.0133
  124OSM   H18U13200   1.768   3.983   7.422  0.3756 -0.0663  0.1591
  124OSM    C1F13201   0.951   4.156   5.870 -0.4142 -0.0925 -0.4427
  124OSM     OF13202   0.924   4.060   5.791  0.4360 -0.1628  0.0668
  124OSM    C2F13203   0.853   4.235   5.954  0.2745  0.2902  0.2447
  124OSM    H2F13204   0.802   4.301   5.880  1.7817 -0.9401 -2.0036
  124OSM    H2G13205   0.898   4.312   6.019 -0.4553  0.0982  0.9932
  124OSM    C3F13206   0.762   4.129   6.023 -0.2363 -0.0455 -0.5459
  124OSM    H3F13207   0.709   4.075   5.942 -0.2762  0.9988 -1.2341
  124OSM    H3G13208   0.678   4.185   6.071  0.5005  1.0274 -0.4801
  124OSM    C4F13209   0.826   4.036   6.129  0.7021  0.3113 -0.0968
  124OSM    H4F13210   0.868   3.942   6.088 -2.2365 -1.0372 -0.1914
  124OSM    H4G13211   0.736   4.006   6.186  0.5808 -0.3143 -0.6212
  124OSM    C5F13212   0.926   4.111   6.227 -0.0075  0.1037  0.4850
  124OSM    H5F13213   0.892   4.215   6.244 -1.1451  0.5253 -3.3447
  124OSM    H5G13214   1.026   4.107   6.178  0.8315  1.6898  1.9467
  124OSM    C6F13215   0.950   4.038   6.362 -0.7115  0.5586  0.4710
  124OSM    H6F13216   1.040   4.088   6.403 -0.7681  1.2512 -0.2172
  124OSM    H6G13217   0.968   3.929   6.357 -0.8049  0.5208  0.8799
  124OSM    C7F13218   0.849   4.076   6.471 -0.1798 -0.0843 -0.1867
  124OSM    H7F13219   0.752   4.040   6.432 -0.4917  0.0112  0.4977
  124OSM    H7G13220   0.856   4.187   6.471  0.9062 -0.1403  0.1378
  124OSM    C8F13221   0.879   4.013   6.608  0.0643 -0.1582  0.1088
  124OSM    H8F13222   0.985   4.024   6.639  0.1366  0.1416 -0.2439
  124OSM    H8G13223   0.870   3.902   6.600  1.3829 -0.2229 -0.6925
  124OSM    C9F13224   0.776   4.064   6.709  0.1093  0.2445  0.6116
  124OSM    H9F13225   0.674   4.027   6.687  0.1453 -0.8162  2.1122
  124OSM   C10F13226   0.798   4.140   6.816  0.5047  0.2744  0.0701
  124OSM   H10F13227   0.715   4.188   6.871  0.9298  2.2072 -0.8655
  124OSM   C11F13228   0.931   4.187   6.861 -0.5328 -0.3684 -0.8975
  124OSM   H11F13229   0.939   4.293   6.828 -1.6341 -0.9825 -3.3897
  124OSM   H11G13230   1.013   4.129   6.814  0.1023 -1.8112  1.7752
  124OSM   C12F13231   0.967   4.177   7.007  0.7051  0.3879 -0.4571
  124OSM   H12F13232   1.075   4.198   7.023  0.6425 -0.5959  1.4855
  124OSM   H12G13233   0.942   4.075   7.042 -1.3668  1.4619  1.4858
  124OSM   C13F13234   0.888   4.281   7.090  0.2755 -0.0358  0.2496
  124OSM   H13F13235   0.784   4.270   7.051 -0.2541  0.3214  1.5232
  124OSM   H13G13236   0.921   4.385   7.072  1.7265 -0.6589 -0.8817
  124OSM   C14F13237   0.881   4.260   7.244 -0.2488 -0.3218 -0.0069
  124OSM   H14F13238   0.982   4.293   7.275  1.4497 -3.3449 -1.8350
  124OSM   H14G13239   0.879   4.149   7.253 -0.4742 -0.4028 -0.9555
  124OSM   C15F13240   0.760   4.330   7.320 -0.3519 -0.5895 -0.4566
  124OSM   H15F13241   0.748   4.288   7.422  2.4241  0.0975  0.2340
  124OSM   H15G13242   0.662   4.307   7.271 -1.1226  0.2288  0.6454
  124OSM   C16F13243   0.773   4.484   7.327 -0.5949  0.8504  0.4220
  124OSM   H16F13244   0.786   4.512   7.220 -0.0678 -1.2883 -0.1166
  124OSM   H16G13245   0.868   4.519   7.372  1.1252 -2.1106 -0.6404
  124OSM   C17F13246   0.668   4.555   7.403 -0.0825  0.0087  0.1066
  124OSM   H17F13247   0.568   4.509   7.387  0.1275 -0.2122 -0.6203
  124OSM   H17G13248   0.662   4.664   7.383 -2.1433  0.7301  3.7402
  124OSM   C18F13249   0.692   4.563   7.552 -0.0161 -0.2774 -0.0008
  124OSM   H18F13250   0.776   4.635   7.569 -0.0454  0.0990 -1.3645
  124OSM   H18G13251   0.704   4.459   7.587 -1.6928 -0.4793  0.0283
  124OSM   H18H13252   0.601   4.603   7.602  0.6955  0.9378  0.3734
  125OSM      N13253   5.962   1.263   5.683  0.0790 -0.7824  0.2948
  125OSM    C1513254   6.103   1.231   5.632  0.3733 -0.9541 -0.2929
  125OSM   H15A13255   6.145   1.138   5.666  2.5588 -0.0942 -0.4543
  125OSM   H15B13256   6.172   1.304   5.673 -1.0283  0.1282  0.2331
  125OSM   H15C13257   6.102   1.230   5.524 -0.4819 -3.9240 -0.3463
  125OSM    C1413258   5.864   1.195   5.601 -0.6775 -0.2679  0.9256
  125OSM   H14A13259   5.884   1.197   5.495 -1.1359 -2.1814  0.7577
  125OSM   H14B13260   5.763   1.234   5.612 -0.9058  0.4864 -2.6276
  125OSM   H14C13261   5.855   1.088   5.615 -1.4573 -0.1777  1.2000
  125OSM    C1313262   5.951   1.220   5.825  0.3006  0.2935  0.6830
  125OSM   H13A13263   6.032   1.251   5.889  1.0056 -2.3270  1.2139
  125OSM   H13B13264   5.947   1.112   5.835 -1.5499  0.1972 -0.4723
  125OSM   H13C13265   5.853   1.242   5.864 -0.5682  0.2184 -1.3112
  125OSM    C1213266   5.947   1.418   5.678  0.1352  0.3556 -0.8769
  125OSM   H12A13267   5.965   1.444   5.574 -1.7562  1.9643 -0.8638
  125OSM   H12B13268   6.027   1.454   5.740  0.0305  0.2189 -0.6629
  125OSM    C1113269   5.811   1.481   5.722  0.7199 -0.1382 -0.2496
  125OSM   H11A13270   5.851   1.584   5.731  3.0444 -1.1232  3.1814
  125OSM   H11B13271   5.766   1.451   5.819 -0.2823  2.1586  0.0493
  125OSM      P13272   5.588   1.562   5.619  0.0372 -0.1643 -0.0492
  125OSM    O1313273   5.622   1.691   5.553  0.0200 -0.0062 -0.0252
  125OSM    O1413274   5.474   1.486   5.572  0.2656  0.3323  0.3729
  125OSM    O1113275   5.560   1.583   5.775 -0.2943 -0.1785  0.6276
  125OSM    O1213276   5.713   1.477   5.618  0.2265  0.5124  0.1485
  125OSM    C1S13277   5.468   1.691   5.823 -0.3709  0.3462 -0.2749
  125OSM    H1S13278   5.362   1.664   5.801 -0.0667 -0.8988 -0.3272
  125OSM    H1T13279   5.485   1.789   5.774 -1.4479  1.6631  1.8372
  125OSM     NF13280   5.378   1.809   6.009  0.0278 -0.3535 -0.2954
  125OSM    HNF13281   5.408   1.903   6.000 -1.5592  0.6930  3.4918
  125OSM    C2S13282   5.476   1.711   5.976  0.1249  0.1255 -0.0103
  125OSM    H2S13283   5.443   1.619   6.028  2.4247  0.0005  1.3393
  125OSM    C3S13284   5.621   1.728   6.033 -0.4122 -0.1628  0.5185
  125OSM    H3S13285   5.671   1.808   5.973 -0.4086  0.4795  1.3604
  125OSM     O313286   5.696   1.602   6.024 -0.1115 -0.0972  0.1812
  125OSM    HO313287   5.653   1.546   5.959 -1.0729  0.5926  0.2053
  125OSM    C4S13288   5.613   1.774   6.173  0.3353 -0.4291 -0.1187
  125OSM    H4S13289   5.541   1.709   6.225 -0.6057  0.8011  0.1680
  125OSM    C5S13290   5.665   1.878   6.239  0.8509 -0.6290  0.0201
  125OSM    H5S13291   5.713   1.961   6.185 -0.6206  1.6240  1.9230
  125OSM    C6S13292   5.640   1.899   6.385  0.1189  0.1042 -0.0887
  125OSM    H6S13293   5.574   1.987   6.402 -0.9734 -0.9648  1.4239
  125OSM    H6T13294   5.733   1.908   6.446 -0.4994 -1.4813  1.1456
  125OSM    C7S13295   5.559   1.791   6.454  0.2683  0.2796 -0.1613
  125OSM    H7S13296   5.603   1.690   6.443  0.6416  0.3127  0.8742
  125OSM    H7T13297   5.460   1.793   6.403  0.4987  0.8102 -0.5997
  125OSM    C8S13298   5.515   1.803   6.606  0.0056 -0.0087  0.4945
  125OSM    H8S13299   5.457   1.711   6.629  0.2112 -0.2544  0.0547
  125OSM    H8T13300   5.455   1.894   6.625  1.5707  1.1843 -0.0267
  125OSM    C9S13301   5.628   1.816   6.702 -0.2956 -0.4685  0.6617
  125OSM    H9S13302   5.659   1.922   6.709  2.7819 -1.2316  0.0421
  125OSM    H9T13303   5.720   1.764   6.670 -0.0577  1.3893 -1.9299
  125OSM   C10S13304   5.584   1.764   6.843 -0.6114 -0.2148  0.2658
  125OSM   H10S13305   5.520   1.675   6.827  0.1699 -0.6537 -0.5554
  125OSM   H10T13306   5.513   1.845   6.867 -0.8254 -0.2003 -0.3819
  125OSM   C11S13307   5.703   1.749   6.945 -0.2678 -0.2717 -0.4020
  125OSM   H11S13308   5.740   1.852   6.964 -1.0787 -0.4026  2.4241
  125OSM   H11T13309   5.784   1.682   6.910  1.0950 -0.2318  2.4126
  125OSM   C12S13310   5.653   1.689   7.081  0.4188 -0.3176  0.5480
  125OSM   H12S13311   5.648   1.578   7.070  0.4345 -0.6438  3.2869
  125OSM   H12T13312   5.560   1.736   7.118 -0.2603 -1.5156  0.4194
  125OSM   C13S13313   5.754   1.730   7.183 -0.4084  0.0015  0.0968
  125OSM   H13S13314   5.760   1.840   7.194 -1.2072  0.1612 -0.8497
  125OSM   H13T13315   5.852   1.691   7.149  0.1225 -1.0062  2.6009
  125OSM   C14S13316   5.733   1.674   7.329 -0.6872 -0.7241 -0.1491
  125OSM   H14S13317   5.725   1.564   7.326 -2.8028 -0.6092 -2.6373
  125OSM   H14T13318   5.642   1.722   7.373  0.5938  0.2985  1.5190
  125OSM   C15S13319   5.849   1.709   7.437  0.1674 -1.0893  0.1148
  125OSM   H15S13320   5.864   1.817   7.419 -1.2952 -1.0876 -1.3862
  125OSM   H15T13321   5.936   1.648   7.404  1.9965  0.7780  1.2436
  125OSM   C16S13322   5.809   1.679   7.581  0.3850  0.0063  0.3212
  125OSM   H16S13323   5.766   1.576   7.582  0.3853  0.0103  0.7855
  125OSM   H16T13324   5.735   1.753   7.616 -0.6635 -0.2612 -1.2412
  125OSM   C17S13325   5.922   1.679   7.687 -0.6032 -0.2441  0.4821
  125OSM   H17S13326   5.966   1.781   7.695  4.0060 -1.8592 -1.1745
  125OSM   H17T13327   6.008   1.612   7.665 -0.4049 -0.0700  0.7161
  125OSM   C18S13328   5.879   1.619   7.822 -0.0260  0.0909 -0.3625
  125OSM   H18S13329   5.835   1.521   7.795 -0.5842  0.6239 -1.4759
  125OSM   H18T13330   5.800   1.676   7.876 -1.5664 -1.4961 -0.8458
  125OSM   H18U13331   5.965   1.606   7.891 -0.1187 -0.4231 -0.3376
  125OSM    C1F13332   5.246   1.779   6.020 -0.5429  0.1736 -0.0843
  125OSM     OF13333   5.203   1.664   6.000  0.3222 -1.3385 -0.0782
  125OSM    C2F13334   5.151   1.894   6.067  0.6358 -0.0571  0.6935
  125OSM    H2F13335   5.072   1.916   5.993  0.8583  0.4416  0.6024
  125OSM    H2G13336   5.218   1.982   6.071 -0.0184  0.6433 -1.8365
  125OSM    C3F13337   5.071   1.880   6.197 -0.8670  0.0590  0.0352
  125OSM    H3F13338   4.997   1.802   6.167 -0.4893  0.3530 -1.8040
  125OSM    H3G13339   5.024   1.980   6.204  2.6228  1.7410  1.3431
  125OSM    C4F13340   5.156   1.845   6.325  0.5755  0.3285  0.5777
  125OSM    H4F13341   5.220   1.932   6.348 -0.4815  1.1092  0.6629
  125OSM    H4G13342   5.222   1.759   6.301  1.2332  0.4536  1.8852
  125OSM    C5F13343   5.067   1.833   6.452 -1.0476 -0.5944  0.4718
  125OSM    H5F13344   4.985   1.762   6.429 -0.8372 -0.7378  0.1573
  125OSM    H5G13345   5.022   1.929   6.482 -0.0916  0.2545 -0.6922
  125OSM    C6F13346   5.144   1.769   6.573  0.2543  0.1631  0.3976
  125OSM    H6F13347   5.225   1.841   6.599 -0.1820 -0.0517  2.6105
  125OSM    H6G13348   5.187   1.672   6.540  0.7877  0.1517  1.0913
  125OSM    C7F13349   5.053   1.765   6.702  1.0850 -0.0621  0.1458
  125OSM    H7F13350   4.963   1.716   6.659  1.2476 -1.4405  1.3274
  125OSM    H7G13351   5.034   1.867   6.743  1.6695 -0.6892  2.0639
  125OSM    C8F13352   5.099   1.676   6.821 -0.7119  0.0199  0.4022
  125OSM    H8F13353   5.118   1.578   6.772 -0.4303  0.4622 -0.3974
  125OSM    H8G13354   5.013   1.659   6.888  1.1131 -3.5659  2.0950
  125OSM    C9F13355   5.219   1.727   6.902 -0.6714 -0.3549 -0.9938
  125OSM    H9F13356   5.286   1.792   6.845 -1.8507  1.1508 -0.7383
  125OSM   C10F13357   5.246   1.699   7.030  0.5053 -0.9790  0.3444
  125OSM   H10F13358   5.346   1.739   7.053  1.3393 -2.9355  0.3079
  125OSM   C11F13359   5.169   1.631   7.145  0.0758 -0.1986 -0.0411
  125OSM   H11F13360   5.227   1.539   7.165  0.5934  0.1999  0.2999
  125OSM   H11G13361   5.067   1.609   7.106  0.2686 -1.9417  0.3563
  125OSM   C12F13362   5.147   1.717   7.270 -0.8437  0.4587  0.9775
  125OSM   H12F13363   5.097   1.812   7.242 -0.0898  0.6798  0.3371
  125OSM   H12G13364   5.249   1.745   7.305  0.3521  0.5506 -2.2645
  125OSM   C13F13365   5.085   1.644   7.388  0.0277 -0.1287 -0.8046
  125OSM   H13F13366   5.163   1.572   7.421  1.5159  2.0030  0.5914
  125OSM   H13G13367   5.000   1.576   7.367  0.7295 -1.0647 -0.6775
  125OSM   C14F13368   5.047   1.751   7.489 -0.0583  0.6139  0.5780
  125OSM   H14F13369   4.976   1.819   7.437  0.0358  0.9744  0.9142
  125OSM   H14G13370   5.133   1.816   7.516 -0.5007  1.0585  0.9459
  125OSM   C15F13371   4.965   1.691   7.606 -0.5310 -0.2890  1.1965
  125OSM   H15F13372   5.035   1.653   7.684 -0.8590 -3.3618  0.1371
  125OSM   H15G13373   4.911   1.601   7.569  0.0258  0.5738 -1.9742
  125OSM   C16F13374   4.862   1.786   7.667 -0.1017 -0.0277 -0.5316
  125OSM   H16F13375   4.794   1.832   7.592  0.4327  3.5316  1.0000
  125OSM   H16G13376   4.907   1.864   7.730 -1.5815 -0.4972  1.1853
  125OSM   C17F13377   4.774   1.699   7.756 -0.0919  0.1730 -0.0279
  125OSM   H17F13378   4.719   1.621   7.699 -1.0644  2.1405 -1.8908
  125OSM   H17G13379   4.696   1.768   7.794 -0.0648 -0.0988  0.5343
  125OSM   C18F13380   4.850   1.632   7.870 -0.1389  0.1655  0.1103
  125OSM   H18F13381   4.781   1.568   7.930  2.2056 -1.9113  0.7731
  125OSM   H18G13382   4.895   1.710   7.935 -0.2603  0.8071 -0.5573
  125OSM   H18H13383   4.919   1.551   7.838  0.4540  0.3542  0.8707
  126OSM      N13384   3.820   0.430   5.239  0.3215 -0.4278 -0.3097
  126OSM    C1513385   3.948   0.360   5.187 -0.0111  0.8007 -0.2016
  126OSM   H15A13386   3.934   0.347   5.081 -0.9926  2.0178 -0.2407
  126OSM   H15B13387   3.978   0.267   5.234  1.1863  1.3689  0.1997
  126OSM   H15C13388   4.026   0.433   5.206 -1.8279  2.6777  0.4186
  126OSM    C1413389   3.823   0.578   5.200 -0.2399 -0.3045 -0.0777
  126OSM   H14A13390   3.788   0.592   5.098 -0.8439 -0.1910  0.1386
  126OSM   H14B13391   3.919   0.620   5.225 -0.1006 -0.4999 -0.2750
  126OSM   H14C13392   3.748   0.634   5.253 -0.1845  0.4434 -0.7635
  126OSM    C1313393   3.704   0.372   5.169  0.0684  0.4033 -0.0869
  126OSM   H13A13394   3.677   0.273   5.203 -0.3025  0.4346 -0.2807
  126OSM   H13B13395   3.722   0.373   5.062  1.5844  1.6839  0.1388
  126OSM   H13C13396   3.620   0.434   5.198 -0.1104  0.4234 -0.6274
  126OSM    C1213397   3.804   0.408   5.390  0.0621 -0.8136  0.0106
  126OSM   H12A13398   3.885   0.458   5.441 -0.0058  0.2840 -0.9171
  126OSM   H12B13399   3.807   0.304   5.420  2.3120 -0.7698  0.0491
  126OSM    C1113400   3.683   0.470   5.471  0.5002  0.5416  0.0163
  126OSM   H11A13401   3.698   0.450   5.579 -1.3681  0.9580  0.3795
  126OSM   H11B13402   3.593   0.405   5.461  0.4684  0.5398  0.2961
  126OSM      P13403   3.741   0.711   5.532  0.0255 -0.2442  0.3935
  126OSM    O1313404   3.885   0.675   5.512 -0.0683 -0.6812 -0.1159
  126OSM    O1413405   3.696   0.851   5.489 -0.0315  0.4548 -0.2480
  126OSM    O1113406   3.705   0.693   5.681 -0.5728  0.3874 -0.1711
  126OSM    O1213407   3.646   0.608   5.447  0.5029 -0.4229 -0.3276
  126OSM    C1S13408   3.567   0.691   5.715  0.0135 -0.3308 -0.2873
  126OSM    H1S13409   3.520   0.593   5.692 -1.8394  0.7116 -1.1885
  126OSM    H1T13410   3.508   0.750   5.641  0.1079 -1.7098 -1.5110
  126OSM     NF13411   3.392   0.752   5.866  0.3576  0.6708  0.0982
  126OSM    HNF13412   3.365   0.848   5.874 -0.6884  0.5522 -1.5611
  126OSM    C2S13413   3.532   0.728   5.856 -0.0283  0.4389 -0.6033
  126OSM    H2S13414   3.559   0.641   5.919 -0.8637  0.6774  0.1088
  126OSM    C3S13415   3.620   0.846   5.912 -0.8030  0.3036  0.1048
  126OSM    H3S13416   3.608   0.934   5.846  1.1207 -0.6794 -1.6916
  126OSM     O313417   3.766   0.822   5.895  0.7082 -0.0672  0.5230
  126OSM    HO313418   3.773   0.780   5.808  1.2543  1.7177 -0.3472
  126OSM    C4S13419   3.580   0.876   6.058 -0.8407  0.4480 -0.2247
  126OSM    H4S13420   3.571   0.783   6.117  0.4817  1.6883  2.0900
  126OSM    C5S13421   3.551   0.999   6.112  0.0074 -0.2033 -0.4017
  126OSM    H5S13422   3.550   1.082   6.040  0.0373  0.0136 -0.1564
  126OSM    C6S13423   3.484   1.023   6.247  0.4886  0.5630 -0.4605
  126OSM    H6S13424   3.392   1.084   6.231 -0.5899 -0.5951  1.0306
  126OSM    H6T13425   3.554   1.085   6.308 -0.7766 -1.0353  2.8604
  126OSM    C7S13426   3.446   0.895   6.328  0.1414 -0.4626 -0.7925
  126OSM    H7S13427   3.545   0.852   6.353  0.4091  0.1521 -0.7769
  126OSM    H7T13428   3.374   0.832   6.272 -2.4381 -1.6667  3.4274
  126OSM    C8S13429   3.369   0.927   6.455  0.1488 -0.3323  0.0331
  126OSM    H8S13430   3.288   0.996   6.424  1.5447  1.6201  0.5768
  126OSM    H8T13431   3.438   0.970   6.531 -2.7238  1.8741  1.5910
  126OSM    C9S13432   3.302   0.799   6.524  0.1415  0.5634  1.0645
  126OSM    H9S13433   3.390   0.734   6.541  0.4158  0.6441  0.0439
  126OSM    H9T13434   3.244   0.747   6.446 -2.0958  4.1112  0.1182
  126OSM   C10S13435   3.237   0.817   6.655  0.7683  0.3531  0.3355
  126OSM   H10S13436   3.313   0.855   6.725 -0.2119 -0.9489  2.1874
  126OSM   H10T13437   3.204   0.721   6.700 -0.3779  0.6608  0.1894
  126OSM   C11S13438   3.108   0.905   6.643  0.4759 -0.1873  0.1244
  126OSM   H11S13439   3.026   0.846   6.598  1.5120 -1.8756  0.3415
  126OSM   H11T13440   3.121   1.002   6.591  2.0410 -0.2431  0.3416
  126OSM   C12S13441   3.067   0.944   6.784  0.1937  0.4514 -0.6075
  126OSM   H12S13442   3.119   1.034   6.824 -1.6990  0.6006  1.7036
  126OSM   H12T13443   3.086   0.853   6.845 -1.5321  0.3805 -0.1436
  126OSM   C13S13444   2.921   0.992   6.791 -0.1334 -0.1688 -0.3885
  126OSM   H13S13445   2.862   0.918   6.734 -0.9525 -0.6161  0.9968
  126OSM   H13T13446   2.920   1.087   6.733  0.9143 -0.4592 -0.9241
  126OSM   C14S13447   2.861   1.006   6.932  0.1003 -0.0132  0.5591
  126OSM   H14S13448   2.760   1.051   6.921 -1.5289 -3.3771  0.5720
  126OSM   H14T13449   2.937   1.062   6.990  0.6080  0.5414 -0.5998
  126OSM   C15S13450   2.838   0.876   6.999  0.3178 -0.3855 -0.3089
  126OSM   H15S13451   2.942   0.838   7.007 -0.1126 -2.0792 -1.8421
  126OSM   H15T13452   2.779   0.798   6.945 -0.6037  0.9679 -1.3346
  126OSM   C16S13453   2.764   0.898   7.131  0.9676 -0.2865  0.1488
  126OSM   H16S13454   2.846   0.918   7.204  0.2303  2.4819  0.3278
  126OSM   H16T13455   2.731   0.801   7.172 -0.5441 -1.0938 -2.6768
  126OSM   C17S13456   2.655   1.011   7.138 -0.4731  0.1461 -0.4160
  126OSM   H17S13457   2.577   0.974   7.068  0.0590  0.2602 -1.0714
  126OSM   H17T13458   2.687   1.113   7.109  0.9110  0.5380  2.2236
  126OSM   C18S13459   2.592   1.027   7.279  0.2801 -0.3140  0.2252
  126OSM   H18S13460   2.576   0.926   7.323  1.2522  0.0367  1.4390
  126OSM   H18T13461   2.492   1.075   7.281  0.2797 -0.3329  1.1450
  126OSM   H18U13462   2.644   1.093   7.352 -1.9184  1.5826  0.1727
  126OSM    C1F13463   3.292   0.664   5.840 -0.2961 -0.3142  0.0579
  126OSM     OF13464   3.317   0.551   5.796  0.2305  0.7056  0.5725
  126OSM    C2F13465   3.147   0.700   5.871 -0.2752 -0.2933 -0.0808
  126OSM    H2F13466   3.083   0.714   5.782 -2.3762  2.0412  1.6682
  126OSM    H2G13467   3.144   0.792   5.933  1.3010 -0.1131 -0.2097
  126OSM    C3F13468   3.081   0.584   5.958  0.2322 -0.5711  0.1761
  126OSM    H3F13469   3.085   0.490   5.900  0.0119 -1.5182  1.6430
  126OSM    H3G13470   2.970   0.597   5.956  0.1659 -1.2039 -0.4421
  126OSM    C4F13471   3.137   0.567   6.101  0.0231 -0.7833  0.3977
  126OSM    H4F13472   3.126   0.658   6.163 -0.1374 -1.2562  1.0674
  126OSM    H4G13473   3.247   0.550   6.096  0.3342  0.4397  2.2070
  126OSM    C5F13474   3.067   0.448   6.183  0.0100 -0.0780 -0.4044
  126OSM    H5F13475   3.080   0.355   6.124  1.3986 -0.1206 -0.0752
  126OSM    H5G13476   2.959   0.472   6.190  0.1925  0.5852  0.2993
  126OSM    C6F13477   3.131   0.443   6.330  0.5562 -0.3807 -0.0447
  126OSM    H6F13478   3.154   0.541   6.377  0.0463 -0.7076  0.9201
  126OSM    H6G13479   3.224   0.382   6.321  1.1652  0.3307  1.1601
  126OSM    C7F13480   3.024   0.379   6.420  0.8639  0.0700 -0.2506
  126OSM    H7F13481   3.003   0.283   6.368  2.4807  0.2167 -1.2711
  126OSM    H7G13482   2.929   0.435   6.420  0.0805 -1.1742 -1.4977
  126OSM    C8F13483   3.075   0.358   6.563  0.2174 -0.5244  0.5810
  126OSM    H8F13484   3.080   0.461   6.603 -1.6923 -0.2062  0.0858
  126OSM    H8G13485   3.173   0.306   6.563 -0.5306 -2.0782  2.1802
  126OSM    C9F13486   2.963   0.298   6.647  0.1573 -0.0067  0.0385
  126OSM    H9F13487   2.871   0.274   6.591  1.5236  1.0516 -2.8286
  126OSM   C10F13488   2.970   0.295   6.784  0.3225  0.3239  0.3648
  126OSM   H10F13489   2.876   0.272   6.836 -0.6224 -0.7278 -1.7198
  126OSM   C11F13490   3.082   0.324   6.883  0.4563  0.1155  0.3125
  126OSM   H11F13491   3.175   0.347   6.827  0.4620 -3.2455 -1.3354
  126OSM   H11G13492   3.102   0.229   6.937 -0.7814 -0.2518  0.1639
  126OSM   C12F13493   3.037   0.435   6.980  0.2758  0.7606  0.5683
  126OSM   H12F13494   2.936   0.415   7.024  1.7129 -0.7344  3.5066
  126OSM   H12G13495   3.031   0.531   6.925  0.4236 -0.3086 -1.3926
  126OSM   C13F13496   3.125   0.438   7.104 -0.0885 -0.0755  0.0346
  126OSM   H13F13497   3.160   0.336   7.128  1.3130 -0.0872 -1.7931
  126OSM   H13G13498   3.058   0.459   7.189 -1.0337 -2.4083 -0.0617
  126OSM   C14F13499   3.247   0.525   7.089 -0.4742  0.7295  0.0842
  126OSM   H14F13500   3.294   0.501   6.991  1.8849  0.7703  1.1304
  126OSM   H14G13501   3.317   0.494   7.170 -0.0873  0.9616 -0.1581
  126OSM   C15F13502   3.216   0.670   7.079  0.3007  0.1748  0.1990
  126OSM   H15F13503   3.149   0.679   6.990  0.5179  2.9327  0.2279
  126OSM   H15G13504   3.312   0.717   7.051 -0.0142 -0.3083 -1.8809
  126OSM   C16F13505   3.150   0.731   7.207  0.5321 -0.0625 -0.0128
  126OSM   H16F13506   3.207   0.710   7.300 -0.9281  2.0214  1.4086
  126OSM   H16G13507   3.047   0.690   7.216 -0.4965  1.7590 -2.3828
  126OSM   C17F13508   3.148   0.883   7.216  0.5650 -0.1121  0.9094
  126OSM   H17F13509   3.094   0.923   7.127 -0.3797 -1.0563  1.0408
  126OSM   H17G13510   3.254   0.908   7.199  0.3085 -0.3714 -1.4127
  126OSM   C18F13511   3.089   0.927   7.349  0.1884 -0.7481 -0.1953
  126OSM   H18F13512   2.994   0.875   7.375 -0.8841  1.9716  1.8892
  126OSM   H18G13513   3.074   1.037   7.347 -0.8682 -0.8768 -0.1998
  126OSM   H18H13514   3.157   0.909   7.435  0.2105 -1.4912 -0.3606
  127OSM      N13515   1.270   0.931   5.431  0.8986  0.0577  0.9277
  127OSM    C1513516   1.171   1.041   5.424 -0.6263 -0.6736 -0.4732
  127OSM   H15A13517   1.198   1.129   5.482  1.2201  1.0724 -3.6738
  127OSM   H15B13518   1.076   1.013   5.466 -1.0084  0.9180 -0.1947
  127OSM   H15C13519   1.176   1.082   5.324  2.6742 -0.7690 -0.4822
  127OSM    C1413520   1.210   0.819   5.355 -0.6918 -0.1803 -0.0590
  127OSM   H14A13521   1.185   0.844   5.253  0.6226 -0.3473 -0.4365
  127OSM   H14B13522   1.125   0.763   5.391  0.9788 -3.9153 -1.3909
  127OSM   H14C13523   1.277   0.735   5.344 -0.9997 -0.9709  3.0572
  127OSM    C1313524   1.396   0.977   5.357  0.5495 -0.0183  0.0507
  127OSM   H13A13525   1.450   1.054   5.410 -0.1186  0.7540 -0.3800
  127OSM   H13B13526   1.371   1.018   5.260 -1.4429  0.8350  0.8651
  127OSM   H13C13527   1.457   0.888   5.351 -0.5707 -0.7803 -0.5512
  127OSM    C1213528   1.298   0.883   5.570 -0.6272  0.1217 -0.7137
  127OSM   H12A13529   1.370   0.802   5.577 -0.3863  0.4446  1.0183
  127OSM   H12B13530   1.211   0.824   5.597 -0.9631  1.2478  0.7711
  127OSM    C1113531   1.330   0.998   5.669  0.4840 -0.2957 -0.1615
  127OSM   H11A13532   1.325   0.967   5.776  1.2796 -0.1406 -0.0731
  127OSM   H11B13533   1.251   1.073   5.651  1.4821  1.4289  2.0699
  127OSM      P13534   1.582   0.977   5.678  0.1737 -0.4267  0.1528
  127OSM    O1313535   1.585   0.848   5.612  0.0940  0.2900 -0.3280
  127OSM    O1413536   1.694   1.066   5.656  0.3176 -0.1228 -0.1012
  127OSM    O1113537   1.568   0.955   5.835  0.0860  0.1526  0.3061
  127OSM    O1213538   1.453   1.058   5.642 -0.1198 -0.2354 -0.2668
  127OSM    C1S13539   1.608   1.054   5.931  0.7214  0.3691  0.1913
  127OSM    H1S13540   1.575   1.155   5.897 -0.3537 -0.4136 -1.2031
  127OSM    H1T13541   1.719   1.065   5.936  0.8421  0.2544 -1.4632
  127OSM     NF13542   1.577   1.133   6.164  0.0913 -0.1597  0.0729
  127OSM    HNF13543   1.654   1.126   6.227 -0.8188 -0.3349  1.2281
  127OSM    C2S13544   1.562   1.017   6.075 -0.6789 -0.1556  0.3796
  127OSM    H2S13545   1.456   0.985   6.063 -0.9986  0.0742  2.2548
  127OSM    C3S13546   1.637   0.885   6.133 -0.2846  0.2444  0.3338
  127OSM    H3S13547   1.737   0.929   6.155  1.0996 -2.5639  0.0490
  127OSM     O313548   1.673   0.782   6.045  0.7291  0.2095  0.2808
  127OSM    HO313549   1.661   0.821   5.958  0.8756 -2.4161 -1.0409
  127OSM    C4S13550   1.582   0.839   6.263 -0.6193 -0.7532  0.1002
  127OSM    H4S13551   1.484   0.788   6.261 -0.3377 -1.3382 -2.3713
  127OSM    C5S13552   1.653   0.843   6.374  0.2176 -0.4303 -0.5329
  127OSM    H5S13553   1.758   0.878   6.369 -0.4268  1.5053 -1.5855
  127OSM    C6S13554   1.597   0.797   6.507 -0.4924 -0.2695 -0.0152
  127OSM    H6S13555   1.644   0.698   6.526 -3.3091 -1.6264  0.3890
  127OSM    H6T13556   1.489   0.775   6.516 -0.6267  0.5887  0.5888
  127OSM    C7S13557   1.639   0.896   6.617 -0.4187 -0.3186 -0.6124
  127OSM    H7S13558   1.585   0.991   6.597 -0.1287 -0.0574 -0.1850
  127OSM    H7T13559   1.750   0.898   6.611 -0.3870 -1.9639 -0.9312
  127OSM    C8S13560   1.612   0.840   6.759  0.0160 -0.5399  0.9744
  127OSM    H8S13561   1.679   0.753   6.776  0.2800 -0.6529 -0.5101
  127OSM    H8T13562   1.507   0.804   6.760 -0.0748 -0.8859 -3.3928
  127OSM    C9S13563   1.627   0.931   6.881 -0.5232 -0.5725 -0.4760
  127OSM    H9S13564   1.596   1.036   6.861 -0.4667 -0.3558  0.5196
  127OSM    H9T13565   1.732   0.959   6.904 -1.4836  1.0145  2.4685
  127OSM   C10S13566   1.568   0.860   7.003 -0.4353 -0.0677  0.4859
  127OSM   H10S13567   1.599   0.754   7.009 -2.0011 -0.6946 -1.3796
  127OSM   H10T13568   1.457   0.864   6.998 -0.3712  2.9597 -0.1864
  127OSM   C11S13569   1.619   0.935   7.125 -0.0067  0.7412 -0.0407
  127OSM   H11S13570   1.616   1.046   7.117 -1.0358  0.6252 -1.4350
  127OSM   H11T13571   1.725   0.900   7.131 -0.5238 -1.0778 -0.7613
  127OSM   C12S13572   1.538   0.904   7.253 -0.1116  0.5340  0.3803
  127OSM   H12S13573   1.547   0.800   7.289 -2.3121  0.3850  0.6386
  127OSM   H12T13574   1.433   0.934   7.233  0.3862  0.4933 -2.9369
  127OSM   C13S13575   1.594   0.983   7.372 -0.0734  0.1556  0.1049
  127OSM   H13S13576   1.593   1.092   7.349 -0.7391 -0.1113 -1.1818
  127OSM   H13T13577   1.701   0.950   7.374 -0.4769 -1.2492 -0.5161
  127OSM   C14S13578   1.514   0.953   7.497 -0.4254 -0.3451  0.6333
  127OSM   H14S13579   1.513   0.845   7.520 -0.5354  0.1130  3.1056
  127OSM   H14T13580   1.413   0.996   7.478  0.6263  1.4563 -1.3370
  127OSM   C15S13581   1.571   1.018   7.620  0.2405 -0.4235 -0.1442
  127OSM   H15S13582   1.671   0.976   7.644 -0.1092 -0.5712  1.0731
  127OSM   H15T13583   1.510   0.967   7.697  1.1620 -1.0946  0.1593
  127OSM   C16S13584   1.565   1.169   7.642 -0.4279 -0.8832 -0.4948
  127OSM   H16S13585   1.468   1.222   7.630  1.2374  3.2147  1.8515
  127OSM   H16T13586   1.641   1.201   7.568 -0.0764 -0.6453 -0.0352
  127OSM   C17S13587   1.607   1.213   7.783  0.3189 -0.8209 -0.4529
  127OSM   H17S13588   1.611   1.324   7.792 -1.4262 -0.8566  1.5308
  127OSM   H17T13589   1.709   1.170   7.786  0.6925  0.0976  0.6108
  127OSM   C18S13590   1.528   1.155   7.902  0.2488 -0.5959  0.2081
  127OSM   H18S13591   1.524   1.045   7.911 -0.9061 -0.4370  2.5566
  127OSM   H18T13592   1.418   1.175   7.902  0.6133  2.0613  2.8839
  127OSM   H18U13593   1.574   1.199   7.993 -0.1306  1.8428 -0.6850
  127OSM    C1F13594   1.513   1.247   6.139 -0.3903  0.6560  0.3326
  127OSM     OF13595   1.428   1.264   6.050 -0.4505 -0.3269  0.3452
  127OSM    C2F13596   1.550   1.373   6.222  0.0541  0.0919 -0.1918
  127OSM    H2F13597   1.558   1.460   6.153  3.5427  1.8230  2.0661
  127OSM    H2G13598   1.656   1.368   6.257 -0.0749  1.6384  0.5074
  127OSM    C3F13599   1.452   1.399   6.338 -0.1182 -0.1941 -0.1980
  127OSM    H3F13600   1.429   1.306   6.395  1.7470 -1.1488 -0.9226
  127OSM    H3G13601   1.353   1.427   6.294  0.1585 -0.2689 -0.8840
  127OSM    C4F13602   1.493   1.520   6.426 -0.0094 -0.3947  0.1402
  127OSM    H4F13603   1.485   1.602   6.352 -2.2423 -0.3915  0.2974
  127OSM    H4G13604   1.591   1.509   6.477  0.6639  2.7694 -0.2722
  127OSM    C5F13605   1.395   1.566   6.543 -0.2875 -0.8754  0.6402
  127OSM    H5F13606   1.393   1.484   6.617 -1.0622 -1.6548 -0.2285
  127OSM    H5G13607   1.291   1.582   6.508  0.2209 -1.5657 -1.3095
  127OSM    C6F13608   1.446   1.695   6.610 -0.3495 -0.2369 -0.3220
  127OSM    H6F13609   1.457   1.775   6.534 -1.6225  0.9824  0.7067
  127OSM    H6G13610   1.548   1.667   6.644  0.3926  1.1986 -1.2886
  127OSM    C7F13611   1.371   1.742   6.738 -0.0867 -0.0825  0.3485
  127OSM    H7F13612   1.268   1.767   6.705 -0.3530  0.3072  1.4368
  127OSM    H7G13613   1.408   1.843   6.765 -0.0610  0.5004 -1.6780
  127OSM    C8F13614   1.367   1.631   6.846 -0.8720 -0.3763  0.3930
  127OSM    H8F13615   1.465   1.594   6.884 -0.7167 -1.1910 -0.7599
  127OSM    H8G13616   1.309   1.550   6.798 -0.4435  0.5016 -1.7073
  127OSM    C9F13617   1.287   1.684   6.966  0.0178 -0.4274 -0.0258
  127OSM    H9F13618   1.180   1.701   6.950  0.0085  0.9074  1.2906
  127OSM   C10F13619   1.339   1.730   7.081  0.4157  0.0545 -0.4502
  127OSM   H10F13620   1.275   1.761   7.165  0.7320 -1.0774  0.2269
  127OSM   C11F13621   1.488   1.742   7.112  0.1797  0.2576 -0.7473
  127OSM   H11F13622   1.540   1.647   7.088 -1.2997 -0.7443 -0.1084
  127OSM   H11G13623   1.501   1.750   7.222  0.8143 -1.3497 -0.6778
  127OSM   C12F13624   1.559   1.856   7.040 -0.1798  0.4906 -0.1216
  127OSM   H12F13625   1.548   1.841   6.931 -1.8599  2.2383 -0.2487
  127OSM   H12G13626   1.668   1.842   7.060 -0.9684 -2.3748  3.0862
  127OSM   C13F13627   1.519   1.994   7.082 -0.2302  0.3167  0.6051
  127OSM   H13F13628   1.411   2.016   7.066  0.7545  4.9918 -1.1201
  127OSM   H13G13629   1.568   2.076   7.025 -1.1620  0.0349 -0.6420
  127OSM   C14F13630   1.563   2.017   7.228 -0.2960 -0.2259  0.0287
  127OSM   H14F13631   1.659   1.963   7.241  1.0463  1.7765 -1.1063
  127OSM   H14G13632   1.506   1.957   7.303  1.1975  1.2557  2.4797
  127OSM   C15F13633   1.576   2.168   7.269  0.6998  0.3427 -0.0112
  127OSM   H15F13634   1.478   2.222   7.273  1.7639  2.3991 -0.1061
  127OSM   H15G13635   1.632   2.221   7.188  2.7208 -0.5379  0.7515
  127OSM   C16F13636   1.642   2.179   7.403  0.1266  0.7448  0.5497
  127OSM   H16F13637   1.746   2.159   7.368 -0.8067 -0.7049 -1.6156
  127OSM   H16G13638   1.603   2.104   7.474 -4.9020  1.9727 -0.5137
  127OSM   C17F13639   1.640   2.317   7.472  0.1652  0.3796  0.2865
  127OSM   H17F13640   1.532   2.336   7.489  0.0644 -0.4977  0.6939
  127OSM   H17G13641   1.682   2.391   7.401 -1.2263 -0.9110 -2.0029
  127OSM   C18F13642   1.705   2.316   7.614 -0.3533  0.4557  0.9141
  127OSM   H18F13643   1.731   2.420   7.641  1.0292  0.7021 -1.1478
  127OSM   H18G13644   1.799   2.256   7.611 -0.6031  0.0654 -2.2875
  127OSM   H18H13645   1.646   2.271   7.697  0.0382  1.2438  1.6431
  128OSM      N13646   6.610   4.744   5.775  0.3972  0.4739 -0.3157
  128OSM    C1513647   6.594   4.639   5.874  0.3853 -0.9305 -0.6807
  128OSM   H15A13648   6.536   4.676   5.956 -0.6560  0.4071 -1.9651
  128OSM   H15B13649   6.690   4.617   5.920 -0.1292  1.1521  1.5610
  128OSM   H15C13650   6.566   4.545   5.828  2.6300 -1.1745 -1.7044
  128OSM    C1413651   6.709   4.689   5.679  0.1531 -0.5277  0.1383
  128OSM   H14A13652   6.685   4.593   5.634  1.2960  0.8252 -3.8110
  128OSM   H14B13653   6.802   4.685   5.733  0.3039  0.3737 -0.0387
  128OSM   H14C13654   6.726   4.759   5.599 -0.3149 -0.3637  0.1794
  128OSM    C1313655   6.482   4.769   5.710  0.5964  0.5368  0.6937
  128OSM   H13A13656   6.403   4.783   5.782  0.7780 -1.7855  1.4555
  128OSM   H13B13657   6.464   4.671   5.668  0.6800  0.6057  0.4986
  128OSM   H13C13658   6.493   4.851   5.641  2.4780 -1.9835 -2.3022
  128OSM    C1213659   6.657   4.874   5.837 -0.5649 -1.2681 -0.5854
  128OSM   H12A13660   6.632   4.949   5.764 -1.0538 -2.3764 -1.5789
  128OSM   H12B13661   6.764   4.874   5.854 -0.4780  0.3277 -0.9925
  128OSM    C1113662   6.590   4.921   5.968  0.3838 -0.1150 -0.3342
  128OSM   H11A13663   6.624   5.025   5.986 -2.1293  0.7799 -0.2975
  128OSM   H11B13664   6.625   4.865   6.057  0.1599 -0.1091 -0.2411
  128OSM      P13665   6.356   5.029   5.960  0.3225 -0.5477  0.2630
  128OSM    O1313666   6.400   5.127   5.855 -0.0778  0.4212 -0.5021
  128OSM    O1413667   6.215   4.991   5.946 -0.0736  0.4611  0.7538
  128OSM    O1113668   6.380   5.099   6.099  0.3507 -0.3844  0.9630
  128OSM    O1213669   6.446   4.897   5.968 -0.1449 -0.2455  0.1662
  128OSM    C1S13670   6.430   5.229   6.110 -0.4676 -0.0605  0.2356
  128OSM    H1S13671   6.364   5.307   6.065 -1.0902 -0.3148  0.6837
  128OSM    H1T13672   6.537   5.230   6.081 -0.1555  1.6190  1.3161
  128OSM     NF13673   6.426   5.415   6.289  0.0255 -0.8665  0.1728
  128OSM    HNF13674   6.501   5.481   6.293 -1.8432  1.3516  0.4245
  128OSM    C2S13675   6.445   5.267   6.264 -0.0356 -0.3685 -0.0313
  128OSM    H2S13676   6.359   5.223   6.319  0.7986 -0.7321  1.0238
  128OSM    C3S13677   6.554   5.197   6.336 -0.4264  0.0101 -0.5408
  128OSM    H3S13678   6.651   5.241   6.304 -0.5485 -0.2282 -1.2657
  128OSM     O313679   6.552   5.050   6.335  0.0009 -0.7089 -0.0151
  128OSM    HO313680   6.486   5.030   6.269 -0.8411  2.5005 -0.2916
  128OSM    C4S13681   6.560   5.236   6.480 -0.4223 -0.2497  0.4252
  128OSM    H4S13682   6.629   5.316   6.510 -0.9494  1.6886 -2.9408
  128OSM    C5S13683   6.485   5.181   6.581 -0.4589  0.0223  0.3630
  128OSM    H5S13684   6.419   5.098   6.552 -0.0336  0.6919 -2.9903
  128OSM    C6S13685   6.488   5.206   6.729  0.7385 -0.0674 -0.0899
  128OSM    H6S13686   6.588   5.228   6.772 -0.1431  0.2630  1.8542
  128OSM    H6T13687   6.437   5.126   6.787 -3.3300  0.8803 -1.9774
  128OSM    C7S13688   6.417   5.340   6.760 -0.2134 -0.1549 -0.1954
  128OSM    H7S13689   6.324   5.359   6.703 -0.4409 -0.7835 -0.0426
  128OSM    H7T13690   6.473   5.426   6.718  0.0322  0.8320  1.9973
  128OSM    C8S13691   6.382   5.352   6.906  0.3423 -0.2003 -0.4677
  128OSM    H8S13692   6.369   5.252   6.954  2.6308  0.6470  2.2000
  128OSM    H8T13693   6.283   5.402   6.915  1.1286  1.9929 -2.9862
  128OSM    C9S13694   6.489   5.436   6.986 -0.4901 -0.3248  0.3339
  128OSM    H9S13695   6.483   5.544   6.960 -0.3853 -0.2841  0.4704
  128OSM    H9T13696   6.593   5.403   6.964 -0.3905  0.5377 -0.5939
  128OSM   C10S13697   6.469   5.443   7.138  0.1025  0.4782 -0.1877
  128OSM   H10S13698   6.451   5.340   7.176 -1.5452  1.4925  2.0445
  128OSM   H10T13699   6.377   5.501   7.162  0.1711  0.9581 -1.0385
  128OSM   C11S13700   6.585   5.507   7.217  0.1950  0.6662  0.4023
  128OSM   H11S13701   6.599   5.610   7.178  0.1835  0.3457 -0.4647
  128OSM   H11T13702   6.671   5.446   7.181 -0.8708 -0.2501 -0.6920
  128OSM   C12S13703   6.566   5.498   7.367 -0.5604  0.8757  0.6648
  128OSM   H12S13704   6.534   5.393   7.385  2.0943 -0.0541  0.3917
  128OSM   H12T13705   6.485   5.568   7.395 -2.3299  0.8587 -3.5668
  128OSM   C13S13706   6.698   5.531   7.436  1.1524  0.4084 -0.3883
  128OSM   H13S13707   6.722   5.639   7.436 -1.0600  0.9529 -0.7544
  128OSM   H13T13708   6.779   5.468   7.392  1.4527 -1.0669  2.0579
  128OSM   C14S13709   6.704   5.486   7.580 -0.0173 -0.4211  0.1210
  128OSM   H14S13710   6.669   5.381   7.584  1.1377 -0.8056  0.5502
  128OSM   H14T13711   6.642   5.549   7.648 -1.6333 -2.1607  0.3548
  128OSM   C15S13712   6.844   5.465   7.638  1.0209 -0.8179 -0.3728
  128OSM   H15S13713   6.889   5.566   7.639 -0.1102 -0.2898  0.8845
  128OSM   H15T13714   6.901   5.416   7.556 -1.3440  0.5007 -3.0182
  128OSM   C16S13715   6.850   5.395   7.772 -0.1735  0.7580  0.4477
  128OSM   H16S13716   6.819   5.289   7.774 -1.3518  0.7964 -4.0265
  128OSM   H16T13717   6.786   5.448   7.846  1.0054  0.8448  1.4405
  128OSM   C17S13718   6.989   5.410   7.836 -0.0444 -0.0136 -0.0503
  128OSM   H17S13719   6.998   5.515   7.870 -2.3202 -0.0183  0.7540
  128OSM   H17T13720   7.070   5.392   7.762  1.1003 -2.5977  1.6641
  128OSM   C18S13721   7.001   5.315   7.955  0.0258 -0.6975 -0.5239
  128OSM   H18S13722   6.910   5.325   8.019  1.2144 -0.0475  1.1460
  128OSM   H18T13723   7.093   5.331   8.015 -1.3207 -1.3053  1.8628
  128OSM   H18U13724   7.009   5.211   7.916 -2.5653 -0.8546 -0.8003
  128OSM    C1F13725   6.302   5.470   6.291 -0.3110 -0.2300 -0.5770
  128OSM     OF13726   6.211   5.403   6.253  0.4647  0.6428 -0.0314
  128OSM    C2F13727   6.298   5.605   6.347  0.0847  0.1536 -0.9505
  128OSM    H2F13728   6.227   5.668   6.289  0.5469  1.5296 -0.0731
  128OSM    H2G13729   6.400   5.644   6.326  0.1161 -0.5215 -2.1072
  128OSM    C3F13730   6.281   5.617   6.502 -0.0475 -0.5454 -0.1135
  128OSM    H3F13731   6.349   5.549   6.558  1.6716  0.6638 -0.6641
  128OSM    H3G13732   6.176   5.589   6.528  0.0533 -0.1293  0.7444
  128OSM    C4F13733   6.326   5.749   6.557 -0.3382 -0.9251 -0.0495
  128OSM    H4F13734   6.241   5.818   6.537 -0.8236 -1.0531  1.4399
  128OSM    H4G13735   6.416   5.793   6.509 -0.0280  0.3041  1.5512
  128OSM    C5F13736   6.338   5.747   6.710  0.7342  0.2270  0.1253
  128OSM    H5F13737   6.415   5.671   6.737  0.0866 -1.0327 -1.3696
  128OSM    H5G13738   6.244   5.713   6.758  0.5843  1.1278  0.4849
  128OSM    C6F13739   6.380   5.873   6.790 -0.2400  0.0630  0.9108
  128OSM    H6F13740   6.345   5.949   6.718  0.5611 -1.4696 -1.2092
  128OSM    H6G13741   6.488   5.899   6.802 -0.3177  0.2201  1.2835
  128OSM    C7F13742   6.300   5.894   6.922  0.2261 -0.8602 -0.0608
  128OSM    H7F13743   6.194   5.865   6.906  0.8921 -2.1377 -2.7385
  128OSM    H7G13744   6.298   6.004   6.936  1.8016 -0.7588 -0.4055
  128OSM    C8F13745   6.356   5.823   7.041  0.2879  0.1133 -1.0442
  128OSM    H8F13746   6.456   5.864   7.064  1.2336 -1.9380 -1.2354
  128OSM    H8G13747   6.370   5.718   7.006 -2.1440 -0.4594 -0.5015
  128OSM    C9F13748   6.281   5.826   7.169  0.5761  0.7191  0.0746
  128OSM    H9F13749   6.336   5.890   7.240 -0.3323  2.5260 -0.7908
  128OSM   C10F13750   6.185   5.742   7.218  0.0391 -0.1129 -0.1490
  128OSM   H10F13751   6.141   5.771   7.314  0.6786  2.7314 -0.6364
  128OSM   C11F13752   6.108   5.638   7.142 -0.2469 -0.6294 -0.8306
  128OSM   H11F13753   6.173   5.550   7.122 -0.6099 -1.6891  2.1390
  128OSM   H11G13754   6.064   5.688   7.053 -1.0758  0.6031  0.2366
  128OSM   C12F13755   5.994   5.569   7.229 -0.1262 -0.3746 -0.0139
  128OSM   H12F13756   5.935   5.507   7.157 -1.3025  1.3960 -0.6495
  128OSM   H12G13757   5.925   5.652   7.257 -0.4327 -1.0310  1.2262
  128OSM   C13F13758   6.041   5.476   7.348 -0.3544 -0.4164  0.1917
  128OSM   H13F13759   6.130   5.524   7.394  1.2312 -3.4878  0.5581
  128OSM   H13G13760   6.069   5.382   7.295 -3.0060  0.3375 -2.8511
  128OSM   C14F13761   5.931   5.454   7.462  0.6429  0.1823 -0.2346
  128OSM   H14F13762   5.978   5.382   7.533  2.3086 -0.0682 -1.5422
  128OSM   H14G13763   5.843   5.409   7.410 -0.1106 -0.9070  1.8581
  128OSM   C15F13764   5.893   5.579   7.547  0.1159 -0.0174 -0.1699
  128OSM   H15F13765   5.902   5.666   7.479  2.5752  0.1037  0.2346
  128OSM   H15G13766   5.950   5.586   7.642 -1.1051 -1.1245  0.6928
  128OSM   C16F13767   5.755   5.572   7.608  0.2934  0.3206 -0.2597
  128OSM   H16F13768   5.746   5.482   7.673 -0.6027  0.5371 -0.0746
  128OSM   H16G13769   5.687   5.538   7.527  0.8482 -0.7999 -0.2704
  128OSM   C17F13770   5.692   5.705   7.665  0.1103  0.3996 -0.0466
  128OSM   H17F13771   5.582   5.688   7.660  0.4483 -1.7191 -1.4231
  128OSM   H17G13772   5.717   5.786   7.593 -1.0691  1.7862  1.0333
  128OSM   C18F13773   5.741   5.750   7.801  0.4618  0.0352 -0.3578
  128OSM   H18F13774   5.849   5.778   7.800  0.1868  1.3257  1.4923
  128OSM   H18G13775   5.712   5.679   7.881 -1.2198  1.5020  0.4041
  128OSM   H18H13776   5.695   5.847   7.830 -0.0055 -0.5572  0.9543
  129OSM      N13777   4.791   0.336   5.411  0.4300  0.8392  0.0985
  129OSM    C1513778   4.829   0.364   5.263  1.0358 -0.5190  0.1012
  129OSM   H15A13779   4.740   0.399   5.214 -0.2649 -0.1388  2.5635
  129OSM   H15B13780   4.853   0.274   5.209 -0.7380 -0.7989 -0.2590
  129OSM   H15C13781   4.909   0.438   5.261  2.0444 -1.6024 -1.4672
  129OSM    C1413782   4.911   0.291   5.485 -0.3089  0.4032 -0.6668
  129OSM   H14A13783   4.975   0.375   5.504  1.1065 -0.8133  0.1930
  129OSM   H14B13784   4.967   0.205   5.450 -1.7509 -0.5557 -0.7037
  129OSM   H14C13785   4.880   0.263   5.585  0.6402 -1.0773 -0.7565
  129OSM    C1313786   4.755   0.470   5.465 -0.2249  0.2337  0.2023
  129OSM   H13A13787   4.728   0.464   5.569  0.0126  2.3920  0.4283
  129OSM   H13B13788   4.673   0.510   5.407  1.2352  0.6917 -1.6369
  129OSM   H13C13789   4.838   0.539   5.467 -0.7003  0.8750 -1.0580
  129OSM    C1213790   4.679   0.239   5.431 -0.2182 -0.6896  0.8256
  129OSM   H12A13791   4.655   0.239   5.536  1.2057  0.0826  1.1630
  129OSM   H12B13792   4.712   0.137   5.413  0.7057 -0.1115 -0.9440
  129OSM    C1113793   4.551   0.278   5.354 -0.2356  0.2158  0.6011
  129OSM   H11A13794   4.487   0.191   5.329  0.1412  0.4347 -1.1986
  129OSM   H11B13795   4.574   0.315   5.252  2.1461 -1.0294  0.6234
  129OSM      P13796   4.354   0.362   5.515 -0.4064  0.0460  0.5361
  129OSM    O1313797   4.311   0.498   5.547  0.1667  0.7965 -0.4440
  129OSM    O1413798   4.253   0.280   5.449 -0.6731  0.1989  0.6872
  129OSM    O1113799   4.393   0.282   5.646 -0.6757 -0.2489 -0.3247
  129OSM    O1213800   4.478   0.381   5.415  0.2618  0.4076 -0.2065
  129OSM    C1S13801   4.301   0.243   5.743  0.0547  0.5783 -0.1220
  129OSM    H1S13802   4.285   0.135   5.725 -2.5971  0.3635  2.6689
  129OSM    H1T13803   4.204   0.297   5.745 -0.5515 -0.4739 -0.2258
  129OSM     NF13804   4.262   0.167   5.982 -0.0177  0.0730 -0.0476
  129OSM    HNF13805   4.179   0.212   6.015  0.2026  1.2969 -1.0571
  129OSM    C2S13806   4.350   0.247   5.894 -0.6537  0.0397 -0.5230
  129OSM    H2S13807   4.449   0.196   5.893 -0.5135  0.2613  0.8620
  129OSM    C3S13808   4.352   0.398   5.930 -0.1365  0.0084 -0.6778
  129OSM    H3S13809   4.244   0.425   5.931  0.2742  1.8376 -1.4707
  129OSM     O313810   4.399   0.491   5.831  0.2561  0.1964  0.1288
  129OSM    HO313811   4.396   0.441   5.749 -0.6888  0.8762 -0.2796
  129OSM    C4S13812   4.401   0.428   6.062  0.2989 -0.5054 -0.6180
  129OSM    H4S13813   4.327   0.431   6.143 -0.4077  0.0340 -1.2697
  129OSM    C5S13814   4.531   0.464   6.084 -0.1843 -0.4840  0.2635
  129OSM    H5S13815   4.600   0.468   5.999  1.0894  0.3982  1.2966
  129OSM    C6S13816   4.579   0.501   6.220 -0.0141  0.1067  0.1983
  129OSM    H6S13817   4.612   0.607   6.225 -2.0016  0.9746 -2.6314
  129OSM    H6T13818   4.654   0.431   6.262 -2.0182 -2.5646 -0.4377
  129OSM    C7S13819   4.466   0.486   6.323 -0.5566  0.2840  0.7971
  129OSM    H7S13820   4.436   0.379   6.323 -2.3720  0.7601  0.2703
  129OSM    H7T13821   4.380   0.555   6.308  1.4493  2.5062 -1.4824
  129OSM    C8S13822   4.526   0.515   6.464 -1.1399  0.0028 -0.1868
  129OSM    H8S13823   4.561   0.619   6.475 -1.9088  0.3214 -0.6443
  129OSM    H8T13824   4.611   0.449   6.493  0.0625  1.5354 -0.1470
  129OSM    C9S13825   4.421   0.501   6.572  0.2652 -0.8146 -1.0733
  129OSM    H9S13826   4.354   0.413   6.560 -2.3288  0.5505  1.9933
  129OSM    H9T13827   4.351   0.586   6.558 -0.8071 -0.9059  2.7320
  129OSM   C10S13828   4.493   0.486   6.706 -0.5415  0.0212 -0.4977
  129OSM   H10S13829   4.545   0.584   6.712 -1.3698  0.5168 -1.1457
  129OSM   H10T13830   4.571   0.408   6.697 -1.5176 -1.1095  0.6005
  129OSM   C11S13831   4.401   0.452   6.831 -0.3220  0.0766  0.9165
  129OSM   H11S13832   4.464   0.430   6.921  1.0865  1.6691  0.3799
  129OSM   H11T13833   4.340   0.367   6.795 -0.8361  1.1365 -0.8113
  129OSM   C12S13834   4.301   0.552   6.869  0.5715 -0.4164  0.0225
  129OSM   H12S13835   4.230   0.577   6.788 -0.7569 -1.0080  0.9642
  129OSM   H12T13836   4.358   0.645   6.885 -2.4608  1.6460 -0.3131
  129OSM   C13S13837   4.232   0.498   6.997  0.0683  0.1257  0.1408
  129OSM   H13S13838   4.149   0.564   7.029 -1.4137 -1.4971 -0.1490
  129OSM   H13T13839   4.306   0.486   7.078  1.4124 -1.9144 -1.2996
  129OSM   C14S13840   4.137   0.369   6.998 -0.6380  0.6129  0.4869
  129OSM   H14S13841   4.214   0.291   6.980  1.2217  2.1416  1.5001
  129OSM   H14T13842   4.071   0.389   6.910 -0.2046 -1.1015 -0.2870
  129OSM   C15S13843   4.053   0.331   7.122 -0.0481  0.3693 -0.2815
  129OSM   H15S13844   3.995   0.418   7.159 -2.2593 -1.4359  0.7749
  129OSM   H15T13845   4.117   0.307   7.208  0.3019  1.2997 -0.2726
  129OSM   C16S13846   3.960   0.215   7.095  0.0960  0.3558 -0.5889
  129OSM   H16S13847   4.015   0.118   7.091 -0.2715 -0.0015  1.7912
  129OSM   H16T13848   3.915   0.238   6.996 -1.5061  0.4382  0.1264
  129OSM   C17S13849   3.845   0.199   7.198  0.1079 -0.4955  0.4655
  129OSM   H17S13850   3.774   0.127   7.152 -1.1651  0.6554  0.5540
  129OSM   H17T13851   3.780   0.289   7.194  1.4386  0.4585 -2.8284
  129OSM   C18S13852   3.896   0.157   7.341  0.1845  0.5434  0.6448
  129OSM   H18S13853   3.808   0.129   7.403  1.7553 -2.4521  1.7267
  129OSM   H18T13854   3.950   0.244   7.384  0.5783  0.9160 -0.5464
  129OSM   H18U13855   3.959   0.066   7.334 -1.2668 -0.4343 -0.3393
  129OSM    C1F13856   4.266   0.036   5.985  0.6439 -0.1714  0.2829
  129OSM     OF13857   4.363  -0.018   5.929 -0.2218  0.2697 -0.0930
  129OSM    C2F13858   4.142  -0.025   6.051  0.4013  0.1170 -0.3075
  129OSM    H2F13859   4.116  -0.112   5.987  0.6509  0.5439 -0.9964
  129OSM    H2G13860   4.053   0.041   6.055  1.2600  1.2551  2.4697
  129OSM    C3F13861   4.178  -0.067   6.201 -0.1214  0.0621  0.1293
  129OSM    H3F13862   4.271  -0.128   6.208  0.0961  0.6330  3.7066
  129OSM    H3G13863   4.089  -0.122   6.239 -1.3300 -0.8850 -3.6304
  129OSM    C4F13864   4.211   0.051   6.287  0.2046 -0.1981 -0.2420
  129OSM    H4F13865   4.294   0.114   6.251 -0.6524  0.9696 -0.2349
  129OSM    H4G13866   4.233   0.014   6.389  1.8960  1.3635 -0.0083
  129OSM    C5F13867   4.089   0.145   6.296 -0.2104 -0.6191  0.3306
  129OSM    H5F13868   4.008   0.083   6.341  0.1310  1.0105  3.5160
  129OSM    H5G13869   4.045   0.178   6.200 -1.3454  0.0146  1.0386
  129OSM    C6F13870   4.090   0.272   6.387 -0.4482  0.2301  0.2790
  129OSM    H6F13871   3.988   0.314   6.393 -0.7703 -0.4375 -0.3337
  129OSM    H6G13872   4.156   0.342   6.332  0.0462 -0.7404 -0.3955
  129OSM    C7F13873   4.127   0.244   6.533  0.0005  0.1979 -0.3509
  129OSM    H7F13874   4.116   0.340   6.588  1.6654  0.0951  0.1932
  129OSM    H7G13875   4.234   0.218   6.544 -0.3591 -0.6658  1.3359
  129OSM    C8F13876   4.050   0.130   6.600 -0.5724  0.3814  0.3587
  129OSM    H8F13877   4.065   0.043   6.534 -1.6552  1.9293 -2.0881
  129OSM    H8G13878   3.940   0.151   6.600 -0.4470  1.1330 -0.9036
  129OSM    C9F13879   4.094   0.112   6.743  0.2300  0.3756 -0.0278
  129OSM    H9F13880   4.124   0.204   6.796  0.6993 -0.9705  2.1467
  129OSM   C10F13881   4.114  -0.008   6.805 -0.0574  0.2284 -0.8055
  129OSM   H10F13882   4.154  -0.010   6.907  1.3245 -1.1111 -1.3362
  129OSM   C11F13883   4.070  -0.145   6.745  0.1026 -0.3725  0.4751
  129OSM   H11F13884   4.103  -0.231   6.808  0.9165 -0.6017 -0.2433
  129OSM   H11G13885   4.108  -0.152   6.641 -2.0919  0.0067 -0.4111
  129OSM   C12F13886   3.913  -0.150   6.724 -0.3450  0.9055  0.1865
  129OSM   H12F13887   3.882  -0.254   6.698  1.9974  0.4939 -1.2985
  129OSM   H12G13888   3.875  -0.073   6.654  0.5343  0.8255 -0.3977
  129OSM   C13F13889   3.835  -0.122   6.858  0.6266 -0.2297  0.2993
  129OSM   H13F13890   3.736  -0.170   6.848  0.1554  0.8846 -0.5643
  129OSM   H13G13891   3.803  -0.018   6.878 -1.1862 -0.9982  1.5910
  129OSM   C14F13892   3.896  -0.178   6.990  0.2821  0.8239  0.0878
  129OSM   H14F13893   3.993  -0.125   7.007  0.8161 -0.4890  1.3301
  129OSM   H14G13894   3.918  -0.286   6.986  0.5818  0.9048 -0.5329
  129OSM   C15F13895   3.801  -0.163   7.104 -0.6676  0.0538 -0.6213
  129OSM   H15F13896   3.730  -0.245   7.081  0.9856 -2.1396  1.5821
  129OSM   H15G13897   3.753  -0.063   7.101 -1.3799 -0.2998 -1.4958
  129OSM   C16F13898   3.869  -0.203   7.233 -0.0920  0.3715 -0.1606
  129OSM   H16F13899   3.958  -0.139   7.247  0.3974 -0.3931  0.2911
  129OSM   H16G13900   3.906  -0.307   7.218  1.4073  0.7744  0.6063
  129OSM   C17F13901   3.764  -0.219   7.351 -0.0755  0.2720  0.2538
  129OSM   H17F13902   3.676  -0.283   7.329 -1.9464  2.1513  1.8212
  129OSM   H17G13903   3.711  -0.122   7.365  0.3949  0.7437 -1.0737
  129OSM   C18F13904   3.831  -0.247   7.481 -0.1844  0.5329  0.2818
  129OSM   H18F13905   3.762  -0.260   7.567  0.6572  1.0670  1.0700
  129OSM   H18G13906   3.867  -0.144   7.502 -0.6962  0.7081  0.3170
  129OSM   H18H13907   3.914  -0.320   7.474 -0.5273  0.2975 -3.6277
  130OSM      N13908   0.258   2.107   5.468 -0.1386 -0.7053 -0.1525
  130OSM    C1513909   0.235   1.965   5.432 -0.6951 -0.1618  0.5553
  130OSM   H15A13910   0.314   1.905   5.476  0.0322  0.5477  0.2284
  130OSM   H15B13911   0.224   1.958   5.325 -0.6318  1.9797  0.3803
  130OSM   H15C13912   0.138   1.934   5.468 -1.4764  1.4985 -0.0271
  130OSM    C1413913   0.236   2.106   5.616  0.1209  0.1067  0.0489
  130OSM   H14A13914   0.279   2.020   5.666 -0.6483  0.4030  1.2721
  130OSM   H14B13915   0.131   2.118   5.638 -0.4549 -1.2345 -1.7452
  130OSM   H14C13916   0.295   2.184   5.664 -2.0338  1.1820  1.1275
  130OSM    C1313917   0.395   2.157   5.437  0.2724 -0.3508 -0.2765
  130OSM   H13A13918   0.417   2.258   5.468 -1.3582 -0.3754  1.1042
  130OSM   H13B13919   0.413   2.148   5.331  0.2185  0.0802 -0.3255
  130OSM   H13C13920   0.461   2.081   5.476 -0.5626 -0.5079  0.8719
  130OSM    C1213921   0.155   2.200   5.401  0.0948 -0.7449 -0.7439
  130OSM   H12A13922   0.181   2.191   5.297  2.2618 -0.5455 -0.2648
  130OSM   H12B13923   0.163   2.299   5.443  0.5945 -0.3575 -1.7273
  130OSM    C1113924   0.011   2.154   5.411 -0.5097 -0.2854  0.1024
  130OSM   H11A13925   0.000   2.045   5.392  1.0551 -0.4385 -0.0416
  130OSM   H11B13926  -0.045   2.195   5.324 -1.0647  1.3564  1.1843
  130OSM      P13927  -0.099   2.349   5.553  0.0951 -0.0249 -0.3030
  130OSM    O1313928  -0.012   2.441   5.477 -0.6156  0.3812 -0.4211
  130OSM    O1413929  -0.242   2.352   5.519 -0.0243 -0.2851  0.2025
  130OSM    O1113930  -0.081   2.381   5.707  0.4577  0.5098 -0.1974
  130OSM    O1213931  -0.040   2.197   5.534 -0.1851  0.4302 -0.0597
  130OSM    C1S13932   0.045   2.436   5.759  0.3740  0.2696 -0.3346
  130OSM    H1S13933   0.047   2.546   5.742 -2.4774  0.6577  1.2740
  130OSM    H1T13934   0.131   2.383   5.713 -1.2280 -3.7628  0.8961
  130OSM     NF13935   0.137   2.513   5.970 -0.6913  0.0521 -0.4247
  130OSM    HNF13936   0.236   2.502   5.972 -0.6793  0.2026  0.1429
  130OSM    C2S13937   0.042   2.419   5.915 -0.0307  0.0547  0.1203
  130OSM    H2S13938  -0.061   2.446   5.947  1.0462  0.2982  3.7956
  130OSM    C3S13939   0.048   2.266   5.951 -0.0025  0.7782  0.7708
  130OSM    H3S13940   0.139   2.226   5.900 -1.1130 -0.2646 -0.4500
  130OSM     O313941  -0.056   2.188   5.889 -0.1361 -0.1687  0.2447
  130OSM    HO313942  -0.066   2.218   5.798 -1.8729 -0.4866  0.3043
  130OSM    C4S13943   0.054   2.231   6.107 -0.2184 -0.8432  0.1227
  130OSM    H4S13944   0.151   2.259   6.148 -0.6484  0.9826 -0.0413
  130OSM    C5S13945  -0.042   2.183   6.190 -0.4848  0.6093  0.4078
  130OSM    H5S13946  -0.141   2.158   6.151 -0.4859  2.1076 -0.6417
  130OSM    C6S13947  -0.020   2.159   6.344 -0.2416 -0.2939 -0.3512
  130OSM    H6S13948  -0.056   2.058   6.372 -3.4785  0.6653 -0.5721
  130OSM    H6T13949  -0.090   2.229   6.396  1.4961  2.9970 -2.1000
  130OSM    C7S13950   0.119   2.180   6.414  0.4382  0.4160 -0.4226
  130OSM    H7S13951   0.154   2.285   6.408  1.7165  0.0691  0.7021
  130OSM    H7T13952   0.188   2.112   6.359 -0.6488  0.1602 -1.5169
  130OSM    C8S13953   0.116   2.149   6.565 -0.3843 -0.0949 -0.3017
  130OSM    H8S13954   0.209   2.183   6.616 -0.6671  0.4219 -0.1326
  130OSM    H8T13955   0.102   2.040   6.584  0.7802 -0.1663  0.2196
  130OSM    C9S13956  -0.003   2.222   6.638  0.4551  0.8117 -0.1726
  130OSM    H9S13957  -0.098   2.169   6.617  1.1142 -0.5468  0.1938
  130OSM    H9T13958  -0.005   2.327   6.602  2.5100 -0.3170 -4.3430
  130OSM   C10S13959   0.015   2.207   6.790 -0.2253  0.1548  0.1109
  130OSM   H10S13960   0.099   2.267   6.833 -1.5108  0.5793  2.1526
  130OSM   H10T13961   0.037   2.101   6.816 -1.2686 -0.0355  0.2643
  130OSM   C11S13962  -0.119   2.244   6.859 -0.0230  0.2521 -0.6629
  130OSM   H11S13963  -0.211   2.202   6.813 -0.2851 -0.1570  0.2225
  130OSM   H11T13964  -0.125   2.355   6.862  1.4955  0.3604 -0.7691
  130OSM   C12S13965  -0.117   2.195   7.005  0.1280 -0.5514 -0.1425
  130OSM   H12S13966  -0.083   2.090   7.006  2.7171  0.2089 -0.2243
  130OSM   H12T13967  -0.215   2.206   7.057  1.1140  1.7427  1.3951
  130OSM   C13S13968  -0.018   2.278   7.091 -0.0935 -0.2183 -0.3016
  130OSM   H13S13969  -0.070   2.376   7.098 -1.0831 -0.7761  0.4185
  130OSM   H13T13970   0.080   2.286   7.038  1.0418 -2.0227  1.3845
  130OSM   C14S13971  -0.012   2.227   7.230  0.5420 -0.7858  0.0302
  130OSM   H14S13972   0.013   2.119   7.238  0.0536 -0.7428  3.1335
  130OSM   H14T13973  -0.118   2.232   7.264  0.3513  0.1552 -0.6637
  130OSM   C15S13974   0.084   2.306   7.318  0.6226  0.0792  0.0761
  130OSM   H15S13975   0.071   2.413   7.291  1.2202 -0.2741 -1.7600
  130OSM   H15T13976   0.189   2.286   7.287  1.0680  1.3666  0.6813
  130OSM   C16S13977   0.059   2.271   7.461  0.0527 -0.2870 -0.9495
  130OSM   H16S13978   0.088   2.165   7.481 -1.3057 -0.3751  0.8181
  130OSM   H16T13979  -0.045   2.279   7.499  0.2503  2.3240 -0.7711
  130OSM   C17S13980   0.152   2.355   7.562  0.3303 -0.1557  0.5645
  130OSM   H17S13981   0.248   2.378   7.511 -0.9070  2.1185 -0.9399
  130OSM   H17T13982   0.177   2.288   7.647  0.5419 -0.1780  0.4863
  130OSM   C18S13983   0.064   2.474   7.604  0.2802  0.5055  0.1345
  130OSM   H18S13984   0.026   2.539   7.522 -3.5655  0.6130  1.7980
  130OSM   H18T13985   0.115   2.543   7.675  0.6007  1.2005 -0.7381
  130OSM   H18U13986  -0.022   2.438   7.663 -0.2438 -0.9086 -1.3927
  130OSM    C1F13987   0.098   2.640   5.987  0.1217 -0.0106  0.2864
  130OSM     OF13988  -0.012   2.684   5.950  1.1114 -0.2211  0.4567
  130OSM    C2F13989   0.198   2.729   6.049 -0.9424  0.2630 -0.1290
  130OSM    H2F13990   0.142   2.821   6.076 -0.7029  0.2492  0.4145
  130OSM    H2G13991   0.279   2.766   5.983  0.7042  0.4929  1.9328
  130OSM    C3F13992   0.259   2.673   6.183  0.2120 -0.7239 -0.3657
  130OSM    H3F13993   0.337   2.746   6.214 -0.2612 -0.2420 -0.3048
  130OSM    H3G13994   0.313   2.576   6.180  0.7483 -0.4024 -1.5247
  130OSM    C4F13995   0.163   2.654   6.299  0.1699 -0.2790  0.4033
  130OSM    H4F13996   0.087   2.583   6.260  0.3828  0.7268 -1.9911
  130OSM    H4G13997   0.103   2.748   6.308 -0.8638 -0.6900 -1.6372
  130OSM    C5F13998   0.225   2.604   6.427 -0.4156 -1.1529 -0.1269
  130OSM    H5F13999   0.302   2.681   6.450 -2.9915  1.3238  0.6532
  130OSM    H5G14000   0.272   2.504   6.413  1.4238 -0.5624  1.3749
  130OSM    C6F14001   0.139   2.615   6.554 -0.3919 -0.2011  0.6627
  130OSM    H6F14002   0.050   2.549   6.544 -1.7717  1.7633 -0.8108
  130OSM    H6G14003   0.096   2.716   6.568 -0.4985 -0.3388  1.3617
  130OSM    C7F14004   0.207   2.569   6.687  0.1801  0.3257  0.3386
  130OSM    H7F14005   0.298   2.633   6.689 -0.9522  1.9973  0.1956
  130OSM    H7G14006   0.237   2.462   6.673 -1.0147  0.1375 -0.9762
  130OSM    C8F14007   0.119   2.575   6.810  0.3816 -0.2404 -0.4086
  130OSM    H8F14008   0.025   2.517   6.800 -0.0938  0.4646 -0.1478
  130OSM    H8G14009   0.082   2.679   6.825 -1.5896 -0.4637 -2.9807
  130OSM    C9F14010   0.197   2.539   6.926  1.2955  0.7832  0.6748
  130OSM    H9F14011   0.242   2.440   6.910 -0.6393 -0.1965  0.9501
  130OSM   C10F14012   0.179   2.581   7.048 -0.3950 -0.2400 -0.4714
  130OSM   H10F14013   0.235   2.526   7.124  0.5278  1.2837 -0.0039
  130OSM   C11F14014   0.090   2.691   7.101 -0.7174 -0.3532 -1.0872
  130OSM   H11F14015  -0.015   2.658   7.113 -0.3067 -1.5015 -0.5013
  130OSM   H11G14016   0.087   2.779   7.033 -0.4662 -0.4398 -1.2142
  130OSM   C12F14017   0.139   2.736   7.241 -0.7096 -0.3915 -0.2531
  130OSM   H12F14018   0.246   2.764   7.234 -0.7604  0.0459  0.6192
  130OSM   H12G14019   0.137   2.650   7.311  1.5315  1.1471  1.8721
  130OSM   C13F14020   0.054   2.846   7.301 -0.1211  0.3947 -0.1184
  130OSM   H13F14021  -0.052   2.813   7.302  0.3360 -1.3356 -1.9951
  130OSM   H13G14022   0.055   2.943   7.247 -2.5017 -0.5853 -2.1459
  130OSM   C14F14023   0.077   2.867   7.448 -0.3824 -0.9105 -0.3978
  130OSM   H14F14024   0.183   2.838   7.461 -0.4316 -1.5420 -1.2925
  130OSM   H14G14025   0.013   2.787   7.492 -2.5828 -0.1199 -1.9945
  130OSM   C15F14026   0.040   3.006   7.501 -0.0548  0.4977 -0.6021
  130OSM   H15F14027   0.096   3.087   7.449  0.4388  2.8528  3.2780
  130OSM   H15G14028   0.066   3.020   7.608 -0.2870  1.6475 -0.6854
  130OSM   C16F14029  -0.100   3.048   7.488  0.5272  0.1725  0.8727
  130OSM   H16F14030  -0.172   2.991   7.550  0.0164  0.7086  0.7783
  130OSM   H16G14031  -0.121   3.035   7.379  0.4751  0.8145  0.8006
  130OSM   C17F14032  -0.128   3.194   7.502  0.9124 -0.3284 -0.4912
  130OSM   H17F14033  -0.237   3.201   7.485  0.7059  1.0039  1.1507
  130OSM   H17G14034  -0.059   3.256   7.441  1.9790  0.1553  1.1320
  130OSM   C18F14035  -0.100   3.230   7.648 -0.4313  0.5370 -0.5064
  130OSM   H18F14036   0.004   3.219   7.684 -0.1039  0.9443 -1.2832
  130OSM   H18G14037  -0.172   3.179   7.715  1.0646 -2.1917 -0.8496
  130OSM   H18H14038  -0.128   3.334   7.675  0.1413  0.8502 -1.0739
  131OSM      N14039   0.631   0.760   5.652 -0.5860 -0.1175  0.1927
  131OSM    C1514040   0.785   0.743   5.669 -0.1391  0.3988  0.6105
  131OSM   H15A14041   0.823   0.688   5.583 -1.2380 -0.9924  0.9731
  131OSM   H15B14042   0.802   0.676   5.752  0.7889  2.3462  2.0480
  131OSM   H15C14043   0.828   0.838   5.696  0.5299 -0.0303  1.0929
  131OSM    C1414044   0.591   0.861   5.754 -0.6866 -0.2786 -0.8170
  131OSM   H14A14045   0.630   0.959   5.734 -0.6689 -0.4868 -1.8736
  131OSM   H14B14046   0.592   0.825   5.856 -0.3550 -0.4635 -0.8855
  131OSM   H14C14047   0.487   0.879   5.732 -0.7409 -0.8711 -1.0797
  131OSM    C1314048   0.615   0.829   5.520 -0.2020 -0.2862  0.1938
  131OSM   H13A14049   0.676   0.918   5.516  0.5963 -0.7594  1.4716
  131OSM   H13B14050   0.511   0.854   5.503  0.1130  2.5903  1.8976
  131OSM   H13C14051   0.650   0.767   5.439  4.0555  1.3026  0.5469
  131OSM    C1214052   0.549   0.630   5.666 -0.4699  0.0355  0.0585
  131OSM   H12A14053   0.448   0.658   5.640 -0.9050 -3.4047 -2.7643
  131OSM   H12B14054   0.557   0.571   5.756 -1.8574  0.1859  0.3076
  131OSM    C1114055   0.594   0.525   5.557  0.6302 -0.3065 -0.0682
  131OSM   H11A14056   0.606   0.565   5.454  1.8237 -1.0923 -0.2618
  131OSM   H11B14057   0.515   0.447   5.555 -0.3948  0.6406  1.6081
  131OSM      P14058   0.741   0.344   5.685  0.0080  0.5390 -0.3060
  131OSM    O1314059   0.633   0.245   5.678 -0.0753 -0.0450  0.0550
  131OSM    O1414060   0.879   0.288   5.661  0.2805 -0.0972  0.5013
  131OSM    O1114061   0.737   0.424   5.825  0.4213  0.0701 -0.3606
  131OSM    O1214062   0.720   0.463   5.584  0.0259 -0.4432  0.1455
  131OSM    C1S14063   0.847   0.418   5.912 -0.1564  0.0054 -0.3235
  131OSM    H1S14064   0.935   0.470   5.870  1.4649 -1.0760  1.5445
  131OSM    H1T14065   0.873   0.312   5.931  3.5219  0.2898 -2.8621
  131OSM     NF14066   0.966   0.501   6.117  0.5385  0.5688  0.0885
  131OSM    HNF14067   0.981   0.440   6.194 -0.9721  1.4845  1.1684
  131OSM    C2S14068   0.832   0.489   6.052  0.6917  0.1859 -0.8247
  131OSM    H2S14069   0.798   0.593   6.034  2.4374  0.8120 -0.6746
  131OSM    C3S14070   0.726   0.414   6.128  0.2525 -0.1717 -0.0769
  131OSM    H3S14071   0.764   0.313   6.153 -1.0968 -0.7682 -0.3809
  131OSM     O314072   0.614   0.368   6.058 -0.1633  0.2381 -0.2188
  131OSM    HO314073   0.646   0.369   5.968  2.3359  0.8090  0.6112
  131OSM    C4S14074   0.692   0.477   6.255  0.0758  0.5925 -0.8573
  131OSM    H4S14075   0.669   0.585   6.253  0.8465  0.8394  1.1810
  131OSM    C5S14076   0.698   0.417   6.374  0.5696 -0.7783  0.0734
  131OSM    H5S14077   0.736   0.314   6.378  0.9384 -0.7532 -1.7088
  131OSM    C6S14078   0.663   0.491   6.497 -0.5002 -0.3709 -0.1504
  131OSM    H6S14079   0.747   0.502   6.568  0.1552  0.6402 -1.0526
  131OSM    H6T14080   0.583   0.428   6.541  1.3622 -2.5011  0.3684
  131OSM    C7S14081   0.613   0.645   6.496  0.3949  0.0107 -0.1731
  131OSM    H7S14082   0.521   0.653   6.434  0.0233  0.6444  0.4426
  131OSM    H7T14083   0.685   0.705   6.436 -0.9668  3.0939  1.0767
  131OSM    C8S14084   0.605   0.721   6.629  0.6066  0.2526 -0.5904
  131OSM    H8S14085   0.705   0.730   6.677 -0.1812  0.9016  1.0090
  131OSM    H8T14086   0.534   0.671   6.698  0.8189 -0.5308 -0.9252
  131OSM    C9S14087   0.557   0.870   6.616  0.2754  0.3598 -0.0856
  131OSM    H9S14088   0.538   0.896   6.722 -1.4229 -0.3035 -0.2057
  131OSM    H9T14089   0.470   0.888   6.549  0.2727  1.8360  0.2620
  131OSM   C10S14090   0.673   0.967   6.555 -0.1308  0.3517  0.6864
  131OSM   H10S14091   0.658   0.961   6.445  0.9430 -2.2571  0.6235
  131OSM   H10T14092   0.769   0.917   6.577 -1.4378 -1.8357  1.7908
  131OSM   C11S14093   0.672   1.115   6.597 -0.4833 -0.5167  0.0526
  131OSM   H11S14094   0.574   1.160   6.570 -0.6991 -1.4433 -0.7469
  131OSM   H11T14095   0.746   1.179   6.544 -0.0320 -0.7650  0.3763
  131OSM   C12S14096   0.698   1.138   6.749  0.2537  0.4047 -0.4561
  131OSM   H12S14097   0.655   1.051   6.802 -0.2370 -2.0328 -4.5035
  131OSM   H12T14098   0.651   1.235   6.777 -0.2360  0.4504 -1.4271
  131OSM   C13S14099   0.849   1.142   6.789  0.0197 -0.4790  0.1659
  131OSM   H13S14100   0.893   1.238   6.757 -0.2686 -0.2915  0.3315
  131OSM   H13T14101   0.887   1.046   6.747 -0.6389 -0.2999 -0.8763
  131OSM   C14S14102   0.854   1.135   6.942 -0.0657 -0.2866 -1.0856
  131OSM   H14S14103   0.959   1.117   6.973  0.2547 -0.2778 -2.1286
  131OSM   H14T14104   0.802   1.046   6.985 -1.3224  1.0183  0.2047
  131OSM   C15S14105   0.807   1.264   7.020 -0.8396 -0.7036 -0.7389
  131OSM   H15S14106   0.698   1.281   7.004 -1.3265 -2.2240  0.6749
  131OSM   H15T14107   0.869   1.347   6.982  0.8585 -0.1255  2.8711
  131OSM   C16S14108   0.833   1.277   7.171 -0.6607 -0.2021  0.5451
  131OSM   H16S14109   0.805   1.381   7.200 -0.4103  0.4592 -1.4882
  131OSM   H16T14110   0.932   1.240   7.204 -0.8187 -2.7223 -1.5082
  131OSM   C17S14111   0.728   1.188   7.237  0.1184 -0.8079  0.7820
  131OSM   H17S14112   0.744   1.081   7.211 -0.7449 -1.0119  1.0565
  131OSM   H17T14113   0.629   1.221   7.198 -0.5379 -2.1889  1.1901
  131OSM   C18S14114   0.726   1.182   7.393  0.1301  0.2312  0.4148
  131OSM   H18S14115   0.637   1.127   7.429  0.4438 -1.2799 -0.9967
  131OSM   H18T14116   0.728   1.286   7.432 -0.0188  0.8601 -1.1623
  131OSM   H18U14117   0.815   1.120   7.417  2.7713  2.7444 -2.0964
  131OSM    C1F14118   1.051   0.592   6.068 -0.1867 -0.9613  0.2087
  131OSM     OF14119   1.019   0.677   5.987  0.2141  0.2331  0.3015
  131OSM    C2F14120   1.190   0.572   6.109 -0.1093  0.1214  0.1107
  131OSM    H2F14121   1.254   0.548   6.021 -2.0523 -4.0294 -0.4158
  131OSM    H2G14122   1.179   0.483   6.175  0.2574  0.2037  0.2848
  131OSM    C3F14123   1.248   0.694   6.183 -0.6513 -1.2062  0.8053
  131OSM    H3F14124   1.274   0.778   6.115  1.8767 -0.3064  2.7474
  131OSM    H3G14125   1.350   0.659   6.209 -0.1221 -0.5709 -0.3163
  131OSM    C4F14126   1.177   0.726   6.314 -0.0400 -0.2039 -0.5027
  131OSM    H4F14127   1.253   0.704   6.391  0.1206  0.0562 -0.5857
  131OSM    H4G14128   1.089   0.661   6.336  1.1373 -1.8136 -0.4283
  131OSM    C5F14129   1.137   0.876   6.327 -0.5522 -0.0107 -0.9663
  131OSM    H5F14130   1.040   0.874   6.380 -1.2456  0.7745 -2.1437
  131OSM    H5G14131   1.107   0.923   6.230 -1.0250 -1.0520 -1.3345
  131OSM    C6F14132   1.228   0.959   6.415 -0.5964 -0.7316 -0.1274
  131OSM    H6F14133   1.324   0.979   6.362  0.5816  0.5438  2.3178
  131OSM    H6G14134   1.256   0.898   6.503  0.0347  1.3199  1.1536
  131OSM    C7F14135   1.164   1.088   6.479  0.4727  0.2792  0.4040
  131OSM    H7F14136   1.070   1.055   6.527  0.3456  1.3788  0.9303
  131OSM    H7G14137   1.131   1.172   6.415 -3.0571 -0.1903  1.4364
  131OSM    C8F14138   1.243   1.143   6.597  0.1360  0.2200  0.3088
  131OSM    H8F14139   1.348   1.172   6.572  0.3283 -2.1213 -2.0594
  131OSM    H8G14140   1.239   1.049   6.655 -1.2464  0.3630  0.4795
  131OSM    C9F14141   1.178   1.259   6.669 -0.8129 -0.1079  0.3402
  131OSM    H9F14142   1.142   1.338   6.601 -0.0327 -0.7976 -0.9005
  131OSM   C10F14143   1.195   1.284   6.804  0.1938  0.1203 -0.7085
  131OSM   H10F14144   1.145   1.370   6.851 -2.6372 -1.7800  0.0229
  131OSM   C11F14145   1.250   1.189   6.907 -0.3203 -0.2390  0.4635
  131OSM   H11F14146   1.300   1.100   6.862  0.4299  0.8543 -0.9390
  131OSM   H11G14147   1.163   1.154   6.967  0.5759 -0.8745  1.4359
  131OSM   C12F14148   1.343   1.257   7.004  0.1919  0.3426  0.0400
  131OSM   H12F14149   1.395   1.337   6.946  1.1086 -0.8203 -0.8153
  131OSM   H12G14150   1.422   1.189   7.042  1.7094  2.3978  0.7711
  131OSM   C13F14151   1.268   1.328   7.120  0.9285  0.1964 -0.2761
  131OSM   H13F14152   1.172   1.371   7.085  0.1000 -0.2814  1.2989
  131OSM   H13G14153   1.324   1.417   7.154  1.5152  0.1019 -0.9757
  131OSM   C14F14154   1.234   1.233   7.238 -0.6226  0.2379  0.0617
  131OSM   H14F14155   1.327   1.196   7.285 -1.4555 -0.6352  1.0750
  131OSM   H14G14156   1.187   1.140   7.200 -0.6293 -0.6121  2.0280
  131OSM   C15F14157   1.163   1.310   7.348  0.2547 -0.0767 -0.0710
  131OSM   H15F14158   1.078   1.375   7.318  3.6137  4.8039 -0.2809
  131OSM   H15G14159   1.233   1.376   7.404  0.1264 -0.8234  1.0075
  131OSM   C16F14160   1.114   1.212   7.458  0.2502  0.1852  0.0028
  131OSM   H16F14161   1.206   1.159   7.490  0.5902 -0.9136 -2.5877
  131OSM   H16G14162   1.057   1.134   7.404  2.3241 -1.0200 -0.5250
  131OSM   C17F14163   1.051   1.276   7.583 -0.0998 -0.1478  0.0757
  131OSM   H17F14164   0.961   1.217   7.609 -0.2362  0.9644  2.3089
  131OSM   H17G14165   1.016   1.380   7.567 -1.2497 -0.6113 -0.5193
  131OSM   C18F14166   1.148   1.280   7.706 -1.0888  1.2184  0.3748
  131OSM   H18F14167   1.239   1.334   7.671  1.6777 -0.9254  3.6103
  131OSM   H18G14168   1.176   1.175   7.730  2.0778  1.3586 -2.1053
  131OSM   H18H14169   1.102   1.327   7.796  0.2862  3.0569  0.1645
  132OSM      N14170   0.669   6.739   5.616  0.2534 -0.6898 -0.6005
  132OSM    C1514171   0.572   6.838   5.679  0.1497 -0.0117  0.3430
  132OSM   H15A14172   0.468   6.837   5.649  0.7235  0.2187 -1.8362
  132OSM   H15B14173   0.606   6.940   5.681  0.8917 -0.2148  3.3415
  132OSM   H15C14174   0.572   6.820   5.786  1.1401 -2.7782 -0.0331
  132OSM    C1414175   0.661   6.771   5.472 -0.2900  0.4772  0.2221
  132OSM   H14A14176   0.708   6.865   5.447 -0.1086  0.1886 -0.5408
  132OSM   H14B14177   0.558   6.781   5.439 -0.0868 -0.6652 -0.8601
  132OSM   H14C14178   0.719   6.708   5.406 -0.9588  0.7430 -0.6434
  132OSM    C1314179   0.805   6.777   5.662 -0.0861 -0.3272  0.4220
  132OSM   H13A14180   0.871   6.708   5.611  0.3220 -1.0686  1.8741
  132OSM   H13B14181   0.821   6.748   5.765  0.8431 -0.6763  0.1951
  132OSM   H13C14182   0.822   6.882   5.646 -1.2625 -0.3227 -0.9464
  132OSM    C1214183   0.643   6.599   5.644 -0.2421  0.7150  0.1374
  132OSM   H12A14184   0.536   6.587   5.630 -0.0954  0.5439 -0.9779
  132OSM   H12B14185   0.652   6.581   5.750 -0.1863  1.7656  0.3240
  132OSM    C1114186   0.727   6.492   5.565 -0.5060 -0.5066 -0.1899
  132OSM   H11A14187   0.732   6.527   5.460 -1.3583  0.8266  0.1820
  132OSM   H11B14188   0.681   6.391   5.577  0.5555 -0.8218  1.6300
  132OSM      P14189   0.945   6.374   5.674 -0.3646  0.4607  0.0794
  132OSM    O1314190   0.865   6.264   5.739  0.0835  0.6480  0.3783
  132OSM    O1414191   1.041   6.325   5.568  0.1443 -0.2867 -0.3791
  132OSM    O1114192   1.021   6.449   5.785  0.2875  0.8143 -0.2942
  132OSM    O1214193   0.862   6.490   5.613  0.3108  0.3608  0.0691
  132OSM    C1S14194   0.974   6.551   5.877  0.1662 -0.0624 -0.0888
  132OSM    H1S14195   0.863   6.554   5.881  0.2125  2.7460  1.2420
  132OSM    H1T14196   1.006   6.650   5.840 -3.5271  1.6182  0.7867
  132OSM     NF14197   0.920   6.598   6.112  0.2077  0.1128  0.0666
  132OSM    HNF14198   0.948   6.685   6.150  0.6079 -0.3679  0.9019
  132OSM    C2S14199   1.010   6.521   6.023  0.5403 -0.2263 -0.8038
  132OSM    H2S14200   0.997   6.414   6.050  0.3413  0.1053  0.5085
  132OSM    C3S14201   1.165   6.553   6.046  0.8630  0.1192  0.2083
  132OSM    H3S14202   1.171   6.662   6.025  2.2745  0.3080  1.3651
  132OSM     O314203   1.249   6.507   5.939  0.0566 -0.2617 -0.6068
  132OSM    HO314204   1.196   6.483   5.863 -0.6454 -0.0299 -0.2012
  132OSM    C4S14205   1.218   6.536   6.182 -0.4898  0.4231 -0.4811
  132OSM    H4S14206   1.181   6.609   6.255  0.1162  1.3108 -1.0449
  132OSM    C5S14207   1.296   6.434   6.228 -0.2744 -0.1416  0.2746
  132OSM    H5S14208   1.311   6.347   6.162 -0.4973 -0.3240  0.4668
  132OSM    C6S14209   1.351   6.408   6.367 -0.5787  0.8974  0.1084
  132OSM    H6S14210   1.460   6.390   6.349 -0.4069 -0.4540  2.2159
  132OSM    H6T14211   1.316   6.315   6.415  0.3904  0.4171 -0.0837
  132OSM    C7S14212   1.325   6.514   6.472  0.4939 -0.7132 -0.2601
  132OSM    H7S14213   1.220   6.514   6.509  1.0802 -1.3953  1.5113
  132OSM    H7T14214   1.357   6.613   6.432  1.1051 -0.8544 -0.1295
  132OSM    C8S14215   1.414   6.479   6.592  0.0814 -0.5859  0.0510
  132OSM    H8S14216   1.515   6.455   6.551  0.0038  1.8704 -1.8390
  132OSM    H8T14217   1.373   6.388   6.642 -1.4774  0.1573  0.1623
  132OSM    C9S14218   1.429   6.591   6.692  0.0625  0.4551 -0.3593
  132OSM    H9S14219   1.324   6.623   6.711  0.4941  1.2850  0.7409
  132OSM    H9T14220   1.483   6.681   6.654 -1.7783  0.8088 -2.3499
  132OSM   C10S14221   1.483   6.551   6.830 -0.9662  0.1469  0.2267
  132OSM   H10S14222   1.594   6.541   6.826 -0.6502  2.5878  1.2146
  132OSM   H10T14223   1.459   6.445   6.854  1.0858  0.2122  3.0305
  132OSM   C11S14224   1.461   6.648   6.944  0.1951 -0.0313  1.0099
  132OSM   H11S14225   1.352   6.649   6.963 -0.0220 -0.2471 -0.1389
  132OSM   H11T14226   1.500   6.744   6.903  1.1050 -0.5224  0.6980
  132OSM   C12S14227   1.550   6.626   7.065  0.5436  0.2974  0.4188
  132OSM   H12S14228   1.557   6.721   7.121 -2.7624  0.5085  0.6786
  132OSM   H12T14229   1.649   6.593   7.027 -0.5553 -1.6541 -0.9361
  132OSM   C13S14230   1.491   6.519   7.158 -0.0440 -0.0447 -0.1299
  132OSM   H13S14231   1.424   6.446   7.108 -2.5018  0.9891  1.4961
  132OSM   H13T14232   1.423   6.566   7.232 -1.1012 -1.9584  0.1763
  132OSM   C14S14233   1.602   6.440   7.235 -0.3204  0.0463  0.1565
  132OSM   H14S14234   1.650   6.364   7.169  0.3434 -2.5843  3.3687
  132OSM   H14T14235   1.547   6.376   7.307  1.6584 -1.4991  0.4058
  132OSM   C15S14236   1.709   6.524   7.307 -0.2953  0.3069  0.1764
  132OSM   H15S14237   1.665   6.615   7.353 -0.7219 -0.6908  1.8277
  132OSM   H15T14238   1.780   6.572   7.237 -0.4850  0.6705  0.2309
  132OSM   C16S14239   1.767   6.447   7.421  0.0071 -0.0321 -0.6414
  132OSM   H16S14240   1.805   6.350   7.381  1.9237  0.3921  0.0271
  132OSM   H16T14241   1.689   6.426   7.497 -1.0347 -1.3710 -2.0021
  132OSM   C17S14242   1.891   6.516   7.479  0.1770 -0.6858 -0.2499
  132OSM   H17S14243   1.857   6.612   7.523  2.8608  0.1109  0.2749
  132OSM   H17T14244   1.959   6.528   7.392  1.0814  0.5294  0.5818
  132OSM   C18S14245   1.947   6.444   7.606 -0.2048  0.3574  0.5641
  132OSM   H18S14246   1.990   6.343   7.586 -1.7040 -0.5010  1.5182
  132OSM   H18T14247   1.863   6.432   7.677 -0.5402 -0.5288  0.0328
  132OSM   H18U14248   2.022   6.512   7.653  1.2347 -0.2144 -0.8233
  132OSM    C1F14249   0.790   6.567   6.128  0.9670 -0.7601  0.4263
  132OSM     OF14250   0.733   6.470   6.078 -0.2570 -0.3085  0.3341
  132OSM    C2F14251   0.712   6.658   6.220 -0.5589  0.1243 -0.3771
  132OSM    H2F14252   0.618   6.702   6.182  0.1657  2.5047  0.4050
  132OSM    H2G14253   0.786   6.728   6.265  1.5417 -2.1823 -0.0506
  132OSM    C3F14254   0.678   6.570   6.340 -0.0408  0.8797 -0.9544
  132OSM    H3F14255   0.612   6.489   6.302  0.1807  0.8437 -1.2655
  132OSM    H3G14256   0.611   6.624   6.410 -2.1714  0.2698 -2.4117
  132OSM    C4F14257   0.802   6.511   6.412 -1.1825  0.7848  0.0164
  132OSM    H4F14258   0.866   6.596   6.443 -0.6837 -0.1330  1.6280
  132OSM    H4G14259   0.865   6.450   6.344 -0.9156  1.4433 -0.3420
  132OSM    C5F14260   0.774   6.413   6.530 -0.0581 -0.0399  0.1314
  132OSM    H5F14261   0.710   6.334   6.485  0.3279  0.1447 -0.7785
  132OSM    H5G14262   0.725   6.451   6.622 -0.1072  0.3011 -0.0330
  132OSM    C6F14263   0.889   6.327   6.584  0.5592 -0.0384  0.7067
  132OSM    H6F14264   0.975   6.317   6.514  1.0042  0.3289  1.1983
  132OSM    H6G14265   0.842   6.228   6.604 -1.0959  0.5021 -0.3247
  132OSM    C7F14266   0.953   6.385   6.713  0.0528  0.2841 -0.0606
  132OSM    H7F14267   0.885   6.411   6.797  0.1297 -1.2312  0.5136
  132OSM    H7G14268   1.008   6.478   6.687  2.1210 -0.6137  0.9220
  132OSM    C8F14269   1.061   6.286   6.780  0.7140  0.0316 -0.5243
  132OSM    H8F14270   1.133   6.275   6.696  0.7744  3.1275 -1.0053
  132OSM    H8G14271   1.010   6.192   6.807  0.0417  0.3085 -0.7976
  132OSM    C9F14272   1.141   6.348   6.886 -0.1005  0.4733 -0.3472
  132OSM    H9F14273   1.248   6.340   6.860  0.0970 -1.5031  0.9109
  132OSM   C10F14274   1.102   6.371   7.009 -0.6839  0.7542  0.0576
  132OSM   H10F14275   1.157   6.416   7.093 -1.8105  0.2506  1.1068
  132OSM   C11F14276   0.966   6.329   7.059  0.8012 -0.0692 -0.6717
  132OSM   H11F14277   0.935   6.225   7.032  0.9613 -0.5462  0.8715
  132OSM   H11G14278   0.889   6.386   7.004 -1.0679 -1.1130  0.7104
  132OSM   C12F14279   0.965   6.344   7.209 -0.2516 -0.6872  0.2345
  132OSM   H12F14280   0.860   6.367   7.239  1.0820  0.7372  4.5791
  132OSM   H12G14281   1.018   6.436   7.241 -2.1452 -0.2335  2.3682
  132OSM   C13F14282   1.023   6.225   7.283 -0.6301  0.1411  0.0450
  132OSM   H13F14283   1.125   6.191   7.257 -1.1490  0.0560 -2.0924
  132OSM   H13G14284   0.981   6.129   7.245 -0.7388 -0.0773  0.6942
  132OSM   C14F14285   0.989   6.231   7.429 -0.5334  0.3012 -0.8162
  132OSM   H14F14286   0.881   6.253   7.442 -0.4399 -0.8446  3.5338
  132OSM   H14G14287   1.048   6.316   7.468 -1.2100  0.4234 -0.0172
  132OSM   C15F14288   1.019   6.106   7.514 -0.5221  0.8113  0.4532
  132OSM   H15F14289   1.127   6.082   7.512 -0.5471  0.6170  1.2052
  132OSM   H15G14290   0.964   6.022   7.464  0.6456  1.6166 -2.4109
  132OSM   C16F14291   0.962   6.099   7.653 -0.3974 -0.1792 -0.6667
  132OSM   H16F14292   0.851   6.101   7.660 -0.2895  2.1111  2.2724
  132OSM   H16G14293   1.002   6.190   7.703  0.0294  0.8719 -2.8329
  132OSM   C17F14294   1.016   5.985   7.728 -0.1933  0.1839  0.3410
  132OSM   H17F14295   1.113   5.951   7.687 -0.9499  1.4068 -2.7536
  132OSM   H17G14296   0.945   5.900   7.721  0.0571 -0.2267  2.0914
  132OSM   C18F14297   1.023   6.016   7.879  0.1478 -0.1956  0.6082
  132OSM   H18F14298   1.053   5.924   7.934 -0.9042 -1.7502 -1.3125
  132OSM   H18G14299   0.923   6.048   7.914  0.3171  2.4023 -1.0776
  132OSM   H18H14300   1.089   6.104   7.889 -2.1659  1.6593  0.4126
  133SAPE     N14301   3.020   3.924   9.710  0.1351 -0.7356 -0.3445
  133SAPE   HN114302   3.031   3.935   9.607  0.6933 -1.2696 -0.3450
  133SAPE   HN214303   3.110   3.899   9.756 -0.5243  0.5660  1.8346
  133SAPE   HN314304   2.946   3.852   9.721 -1.1561  0.5601 -0.1260
  133SAPE   C1214305   2.967   4.055   9.777 -0.3365 -0.2032  0.6171
  133SAPE  H12A14306   3.039   4.138   9.763  1.1633 -1.2892  1.5903
  133SAPE  H12B14307   2.979   4.026   9.884  0.3373 -1.5419  0.1977
  133SAPE   C1114308   2.822   4.088   9.739 -0.3941 -0.2074 -0.3935
  133SAPE  H11A14309   2.821   4.121   9.633  0.6002 -2.0898 -1.0313
  133SAPE  H11B14310   2.791   4.166   9.813  2.7830 -1.1482  2.1488
  133SAPE     P14311   2.581   3.977   9.732  0.1996 -0.5474 -0.3819
  133SAPE   O1314312   2.520   3.908   9.850 -0.4336 -0.2133 -0.5787
  133SAPE   O1414313   2.529   4.111   9.698  0.1324  0.6569 -0.0283
  133SAPE   O1214314   2.742   3.968   9.749  0.0188 -0.1072 -0.7725
  133SAPE   O1114315   2.562   3.890   9.605  0.2518 -0.9994  0.2519
  133SAPE    C114316   2.650   3.788   9.562  0.0149 -0.1766  0.1292
  133SAPE    HA14317   2.621   3.750   9.462  2.2794  1.9039 -1.4339
  133SAPE    HB14318   2.754   3.826   9.555  0.5351 -1.1311  1.8996
  133SAPE    C214319   2.638   3.663   9.650 -0.6549  0.6735 -0.1093
  133SAPE    HS14320   2.662   3.680   9.757 -1.7297  0.2602  0.2122
  133SAPE   O2114321   2.731   3.567   9.593  0.4588 -0.1121 -0.5289
  133SAPE   C2114322   2.854   3.592   9.626  0.2793  0.2188 -0.0729
  133SAPE   O2214323   2.902   3.690   9.675  0.0494 -0.1173  0.5101
  133SAPE   C2214324   2.932   3.467   9.581 -0.0504 -0.7613  0.2907
  133SAPE   H2R14325   2.993   3.434   9.668  0.7067  0.2471  0.1528
  133SAPE   H2S14326   2.852   3.397   9.547 -0.2117 -0.7486  0.6382
  133SAPE    C314327   2.497   3.598   9.638 -0.1922  0.1581 -0.1441
  133SAPE    HX14328   2.427   3.684   9.651 -0.7317 -0.3127  0.0834
  133SAPE    HY14329   2.477   3.519   9.713 -0.2576  0.7404  0.4583
  133SAPE   O3114330   2.472   3.548   9.505 -0.1943 -0.2390  1.0265
  133SAPE   C3114331   2.527   3.429   9.479 -0.8759  0.2236  0.7816
  133SAPE   O3214332   2.556   3.349   9.565  0.4905 -0.5306 -0.1449
  133SAPE   C3214333   2.524   3.400   9.328  0.1420 -0.2193  0.2189
  133SAPE   H2X14334   2.454   3.475   9.286 -0.7010 -0.5952  0.9235
  133SAPE   H2Y14335   2.494   3.297   9.298 -0.6810  0.3852 -1.1381
  133SAPE   C2314336   3.049   3.505   9.478  0.3280  1.0595 -0.4797
  133SAPE   H3R14337   3.129   3.563   9.528 -0.6471  1.4165  0.7149
  133SAPE   H3S14338   3.022   3.576   9.396 -0.6782  0.9540 -0.2463
  133SAPE   C2414339   3.106   3.386   9.394  0.4311  0.1812  0.2916
  133SAPE   H4R14340   3.034   3.383   9.310  1.3415 -0.1614 -0.4967
  133SAPE   H4S14341   3.102   3.293   9.454 -0.3534  1.7758  2.8501
  133SAPE   C2514342   3.253   3.413   9.354  0.2556 -0.2049  0.6159
  133SAPE   H5R14343   3.323   3.382   9.433  0.3147  0.4086  0.8086
  133SAPE   C2614344   3.293   3.453   9.231  0.4398  0.1055 -0.1487
  133SAPE   H6R14345   3.402   3.462   9.215  0.7891 -0.6538  1.5243
  133SAPE   C2714346   3.211   3.506   9.116  0.3555  0.4931  0.1362
  133SAPE   H7R14347   3.233   3.615   9.110  1.4041  0.4497  2.1503
  133SAPE   H7S14348   3.105   3.503   9.151 -0.2979  0.1053 -1.7964
  133SAPE   C2814349   3.231   3.420   8.995  0.0406 -0.4673  0.0517
  133SAPE   H8R14350   3.262   3.317   9.020  2.4813  0.6690  2.1271
  133SAPE   C2914351   3.225   3.452   8.866 -0.1671  0.1403  0.0037
  133SAPE   H9R14352   3.227   3.368   8.795  1.2227 -0.8519  1.1669
  133SAPE  C21014353   3.203   3.583   8.787 -1.2773  0.6097  0.2198
  133SAPE  H10R14354   3.285   3.652   8.817 -1.3759  0.3717  1.0687
  133SAPE  H10S14355   3.106   3.619   8.826 -0.4421  0.2227  2.8430
  133SAPE  C21114356   3.194   3.580   8.633  0.4211  0.1566 -0.3859
  133SAPE  H11R14357   3.109   3.633   8.586  0.6828  1.3374  0.4244
  133SAPE  C21214358   3.267   3.515   8.546 -0.6001 -0.5372  0.1411
  133SAPE  H12R14359   3.251   3.535   8.439 -0.9235  2.4110  0.6462
  133SAPE  C21314360   3.402   3.452   8.578  0.5514  0.7369 -0.1625
  133SAPE  H13R14361   3.398   3.341   8.574 -0.5472  0.7949 -0.9060
  133SAPE  H13S14362   3.432   3.471   8.684 -2.1449  1.2911  0.5776
  133SAPE  C21414363   3.519   3.494   8.488  0.2723 -0.2553  0.1500
  133SAPE  H14R14364   3.582   3.575   8.527  3.2859 -1.6884 -1.3890
  133SAPE  C21514365   3.541   3.457   8.362 -0.2661 -0.1076 -0.2909
  133SAPE  H15R14366   3.613   3.524   8.313  1.9709 -1.2696  1.2682
  133SAPE  C21614367   3.439   3.380   8.280 -0.7258 -0.4084 -0.6243
  133SAPE  H16R14368   3.347   3.354   8.336 -0.8909  2.9643  0.9084
  133SAPE  H16S14369   3.485   3.290   8.235  1.0012  0.0696  0.1383
  133SAPE  C21714370   3.385   3.470   8.164  0.2924 -0.9541 -0.3505
  133SAPE  H17R14371   3.359   3.566   8.214  1.3972  0.0686 -1.6625
  133SAPE  H17S14372   3.293   3.416   8.131  0.5655 -2.2910  1.0006
  133SAPE  C21814373   3.487   3.489   8.054  0.4751 -0.5077 -0.3099
  133SAPE  H18R14374   3.531   3.392   8.023 -0.3133 -0.1457 -2.8093
  133SAPE  H18S14375   3.572   3.550   8.091 -0.4101  0.2709  0.5013
  133SAPE  C21914376   3.424   3.551   7.929  0.5996  0.0019 -0.5843
  133SAPE  H19R14377   3.385   3.652   7.953 -1.0546 -0.3601 -1.5217
  133SAPE  H19S14378   3.326   3.500   7.911 -0.3916  2.4161 -2.7670
  133SAPE  C22014379   3.510   3.561   7.800 -0.7442  0.1458  0.3030
  133SAPE  H20R14380   3.594   3.632   7.816 -1.5348  0.7576  1.9967
  133SAPE  H20S14381   3.446   3.586   7.713 -1.6335  1.0196  1.1781
  133SAPE  H20T14382   3.552   3.462   7.775  1.0130  0.8827  0.2161
  133SAPE   C3314383   2.659   3.415   9.254  0.5966 -0.1428  0.5053
  133SAPE   H3X14384   2.744   3.363   9.305  1.0079  0.4759  0.4661
  133SAPE   H3Y14385   2.697   3.518   9.272  0.6072 -0.7010  4.6525
  133SAPE   C3414386   2.651   3.379   9.106  0.4422 -0.3629 -0.7958
  133SAPE   H4X14387   2.573   3.436   9.051  0.1794 -1.7207 -1.8864
  133SAPE   H4Y14388   2.630   3.270   9.096  2.6281 -0.6696 -2.8738
  133SAPE   C3514389   2.784   3.410   9.040  0.4180 -0.5782 -0.0719
  133SAPE   H5X14390   2.859   3.335   9.074  0.6080  0.7758  2.7662
  133SAPE   H5Y14391   2.809   3.516   9.064 -0.4621 -1.2051  4.3064
  133SAPE   C3614392   2.753   3.407   8.890  0.3687 -0.5519 -0.1352
  133SAPE   H6X14393   2.690   3.495   8.863 -0.1204 -0.2161  1.9514
  133SAPE   H6Y14394   2.700   3.314   8.862 -2.4204  0.4389  1.4475
  133SAPE   C3714395   2.879   3.422   8.806 -0.1643 -0.0343 -0.2191
  133SAPE   H7X14396   2.958   3.353   8.844  0.7209  0.8076 -0.4881
  133SAPE   H7Y14397   2.923   3.522   8.824  0.1848 -0.0245 -1.0765
  133SAPE   C3814398   2.864   3.413   8.666 -0.2639  0.3226  0.2203
  133SAPE   H8X14399   2.820   3.318   8.630  0.8605  0.4760 -1.6922
  133SAPE   H8Y14400   2.965   3.409   8.621 -0.5533 -1.1100 -0.3454
  133SAPE   C3914401   2.795   3.531   8.593 -0.0049  0.0219  0.5839
  133SAPE   H9X14402   2.854   3.625   8.602 -0.2203  0.3097 -0.8477
  133SAPE   H9Y14403   2.700   3.544   8.649 -0.6569  2.6587 -1.0053
  133SAPE  C31014404   2.771   3.495   8.446  0.0013 -0.1663  0.5398
  133SAPE  H10X14405   2.703   3.572   8.404  2.4129  0.7570 -1.9588
  133SAPE  H10Y14406   2.729   3.396   8.421 -0.0294 -0.4376  1.5883
  133SAPE  C31114407   2.893   3.524   8.352  0.3596  0.2791 -0.2400
  133SAPE  H11X14408   2.889   3.471   8.254 -0.4939 -0.6454  0.2732
  133SAPE  H11Y14409   2.988   3.489   8.397  0.9313 -0.6619 -2.0823
  133SAPE  C31214410   2.921   3.668   8.321 -0.8093  0.2419 -0.6965
  133SAPE  H12X14411   2.966   3.730   8.402  1.0887  1.6245 -2.7025
  133SAPE  H12Y14412   2.825   3.716   8.294 -0.6671 -0.2307 -2.1238
  133SAPE  C31314413   3.024   3.687   8.201 -0.1135  0.2179 -0.0792
  133SAPE  H13X14414   2.994   3.637   8.106 -2.4386 -0.4513  0.9376
  133SAPE  H13Y14415   3.117   3.640   8.238 -0.5608 -0.8022 -0.2341
  133SAPE  C31414416   3.051   3.831   8.164 -0.2590 -0.2765  0.7622
  133SAPE  H14X14417   3.029   3.896   8.251 -0.9393  0.7999 -0.1876
  133SAPE  H14Y14418   2.982   3.874   8.089  2.5346  2.4486 -0.4184
  133SAPE  C31514419   3.189   3.853   8.107  0.0883 -0.1472  0.2850
  133SAPE  H15X14420   3.195   3.784   8.021  0.5624 -0.8884  0.9058
  133SAPE  H15Y14421   3.269   3.821   8.177  0.6003  0.0439 -0.2015
  133SAPE  C31614422   3.207   3.991   8.041  0.3873 -0.5586 -0.3145
  133SAPE  H16X14423   3.195   4.076   8.112 -2.3015 -0.7633 -0.4225
  133SAPE  H16Y14424   3.119   4.001   7.973 -1.3513 -2.7460  1.4535
  133SAPE  C31714425   3.334   4.010   7.959  0.0099 -0.5208  0.0793
  133SAPE  H17X14426   3.317   4.079   7.874  2.3943  1.2636  0.9329
  133SAPE  H17Y14427   3.357   3.905   7.932 -0.4317 -1.4342  2.8635
  133SAPE  C31814428   3.455   4.063   8.040  0.0702  0.3863 -0.3019
  133SAPE  H18X14429   3.553   4.060   7.988  1.3378 -0.0488  1.9826
  133SAPE  H18Y14430   3.460   4.008   8.136  0.4980  0.5385 -0.2373
  133SAPE  H18Z14431   3.449   4.172   8.061  0.9208  0.2520  0.7015
  134SAPE     N14432   5.191   2.252  10.072  0.7599  0.6922  0.9038
  134SAPE   HN114433   5.234   2.215  10.160  1.8580 -0.2691 -0.0033
  134SAPE   HN214434   5.101   2.201  10.061  0.7940  0.3364  2.1172
  134SAPE   HN314435   5.248   2.239   9.986 -0.6447  1.3085 -0.1576
  134SAPE   C1214436   5.157   2.400  10.076  0.7934 -0.4825 -0.6162
  134SAPE  H12A14437   5.052   2.414  10.111  1.0887  1.4383 -0.3606
  134SAPE  H12B14438   5.153   2.441   9.973 -0.0011 -1.1164 -0.8506
  134SAPE   C1114439   5.251   2.477  10.181  0.8667 -0.1355  0.0473
  134SAPE  H11A14440   5.242   2.422  10.277  2.8328 -1.1045 -0.2794
  134SAPE  H11B14441   5.221   2.583  10.196  3.3070  0.8529 -1.4309
  134SAPE     P14442   5.458   2.588  10.079 -0.0801  0.5164 -0.2280
  134SAPE   O1314443   5.482   2.693  10.178  0.1830  0.3313  0.3420
  134SAPE   O1414444   5.580   2.545  10.007 -0.4596 -0.0470 -0.2216
  134SAPE   O1214445   5.386   2.459  10.139 -0.0147 -0.4868 -0.2065
  134SAPE   O1114446   5.359   2.644   9.979  0.1056 -0.0798 -0.1202
  134SAPE    C114447   5.372   2.599   9.842  0.0351 -0.8887 -0.3146
  134SAPE    HA14448   5.413   2.497   9.828 -0.6863 -1.2690  0.2553
  134SAPE    HB14449   5.267   2.590   9.807 -0.2514 -1.9514  0.7243
  134SAPE    C214450   5.461   2.702   9.757  0.2672  0.7252 -0.5791
  134SAPE    HS14451   5.536   2.749   9.824  2.4231  1.7669 -3.5229
  134SAPE   O2114452   5.374   2.795   9.691 -0.1543  0.4028  0.6662
  134SAPE   C2114453   5.420   2.921   9.686 -0.8363  0.3238  0.0153
  134SAPE   O2214454   5.531   2.958   9.715  0.2957 -0.1837 -0.2645
  134SAPE   C2214455   5.312   3.022   9.652 -0.0937  0.7778  0.6158
  134SAPE   H2R14456   5.215   2.971   9.637  0.8313 -0.8582  0.0135
  134SAPE   H2S14457   5.295   3.083   9.744  0.5778 -1.4456  2.2965
  134SAPE    C314458   5.532   2.617   9.650 -0.3069  0.5753  0.7397
  134SAPE    HX14459   5.458   2.558   9.592  1.7997 -0.7252 -0.7774
  134SAPE    HY14460   5.592   2.548   9.713  0.7457 -0.3648 -1.2063
  134SAPE   O3114461   5.614   2.697   9.556 -0.6240  0.2231 -0.0298
  134SAPE   C3114462   5.738   2.714   9.604  0.0551 -0.5610 -0.8416
  134SAPE   O3214463   5.783   2.671   9.708 -0.0602 -0.0538 -0.0207
  134SAPE   C3214464   5.819   2.803   9.513 -0.0728 -0.7234  0.7354
  134SAPE   H2X14465   5.780   2.786   9.411  0.0760 -0.7885  0.6879
  134SAPE   H2Y14466   5.927   2.776   9.503 -0.0225  0.2651 -2.3949
  134SAPE   C2314467   5.336   3.120   9.527 -0.0202 -0.0311  0.7904
  134SAPE   H3R14468   5.351   3.061   9.434  3.4772  3.3127 -1.0882
  134SAPE   H3S14469   5.430   3.179   9.533  0.0169 -0.0577  0.4703
  134SAPE   C2414470   5.226   3.225   9.502 -0.9737 -0.1319 -0.7349
  134SAPE   H4R14471   5.141   3.168   9.459 -2.1832 -0.9150  2.4553
  134SAPE   H4S14472   5.271   3.290   9.424 -1.6705  2.7015  1.0840
  134SAPE   C2514473   5.179   3.307   9.615 -0.4756  0.2204  0.0916
  134SAPE   H5R14474   5.176   3.253   9.711 -0.9763  0.6322  0.3098
  134SAPE   C2614475   5.149   3.440   9.603  0.1270  0.6716 -0.1155
  134SAPE   H6R14476   5.117   3.488   9.697 -1.6098  0.2290 -0.4422
  134SAPE   C2714477   5.167   3.528   9.478  0.0317  0.5738 -0.1310
  134SAPE   H7R14478   5.127   3.471   9.391  2.0001 -0.7931 -0.1999
  134SAPE   H7S14479   5.276   3.546   9.468 -0.0841  2.1091  1.1161
  134SAPE   C2814480   5.086   3.654   9.494 -0.0365  0.3203  0.0288
  134SAPE   H8R14481   4.983   3.635   9.528 -0.2721  2.5749  0.7364
  134SAPE   C2914482   5.134   3.782   9.489  0.4444 -0.4857  0.3561
  134SAPE   H9R14483   5.066   3.864   9.515 -0.9679 -0.2125 -3.5296
  134SAPE  C21014484   5.274   3.821   9.453  0.1844 -0.3797 -0.2815
  134SAPE  H10R14485   5.353   3.765   9.508  0.2863 -1.2450 -1.2840
  134SAPE  H10S14486   5.293   3.927   9.480  0.8607 -0.0777 -1.8512
  134SAPE  C21114487   5.322   3.804   9.308 -0.0435  0.8769  0.1773
  134SAPE  H11R14488   5.280   3.713   9.262 -1.3432  1.4076  0.2619
  134SAPE  C21214489   5.423   3.869   9.246 -0.1747  0.6267  0.0717
  134SAPE  H12R14490   5.447   3.837   9.143 -1.4902  0.2231 -0.1261
  134SAPE  C21314491   5.499   3.981   9.312 -0.2851 -0.3006  0.1386
  134SAPE  H13R14492   5.508   3.952   9.419 -1.1890  0.7492  0.5108
  134SAPE  H13S14493   5.436   4.072   9.314  1.1079  0.7856  4.0235
  134SAPE  C21414494   5.639   4.015   9.267  0.1445  0.6776 -0.7902
  134SAPE  H14R14495   5.708   4.022   9.353  1.6389  0.7763 -1.9527
  134SAPE  C21514496   5.685   4.055   9.143  0.4718  0.3216  0.2627
  134SAPE  H15R14497   5.789   4.091   9.138  0.3739  0.5684 -0.0822
  134SAPE  C21614498   5.603   4.058   9.016  0.2733 -0.1965  0.2280
  134SAPE  H16R14499   5.516   3.990   9.007 -0.6016  0.8100  0.8859
  134SAPE  H16S14500   5.673   4.020   8.938  0.0638  1.3484 -0.7461
  134SAPE  C21714501   5.573   4.213   8.993 -0.2988  0.8276 -0.5816
  134SAPE  H17R14502   5.669   4.265   9.013  1.0774 -1.6649 -0.2728
  134SAPE  H17S14503   5.495   4.241   9.067  0.1907  1.1026 -0.1655
  134SAPE  C21814504   5.526   4.228   8.848  0.0171 -0.0998 -0.2732
  134SAPE  H18R14505   5.442   4.163   8.817  0.1086  0.0882 -0.9317
  134SAPE  H18S14506   5.614   4.206   8.785 -0.5156 -1.3443 -0.6031
  134SAPE  C21914507   5.481   4.373   8.826  0.8886 -0.3928  0.3074
  134SAPE  H19R14508   5.556   4.445   8.865 -0.4601  1.6766 -0.8075
  134SAPE  H19S14509   5.387   4.394   8.880  0.2192 -0.7470 -0.6992
  134SAPE  C22014510   5.468   4.412   8.682  0.5191 -0.3106 -0.6844
  134SAPE  H20R14511   5.443   4.517   8.656  1.4107 -0.6124 -3.0362
  134SAPE  H20S14512   5.394   4.348   8.628  1.0554  0.0593 -1.9006
  134SAPE  H20T14513   5.566   4.405   8.630  1.6679  0.1372  1.3536
  134SAPE   C3314514   5.794   2.957   9.537 -0.6752 -0.0601 -0.2678
  134SAPE   H3X14515   5.824   2.983   9.641  0.3101 -0.7640 -0.3623
  134SAPE   H3Y14516   5.687   2.982   9.525 -1.0945 -1.3308  0.6333
  134SAPE   C3414517   5.868   3.051   9.435  0.3141 -0.1313 -0.0174
  134SAPE   H4X14518   5.810   3.144   9.420  0.5822 -0.2622 -2.1725
  134SAPE   H4Y14519   5.878   3.000   9.336  1.1613  0.1059 -0.0594
  134SAPE   C3514520   6.010   3.071   9.473  0.0088 -0.5049 -0.1167
  134SAPE   H5X14521   6.077   2.983   9.463  0.9513  0.0850  0.8521
  134SAPE   H5Y14522   6.033   3.092   9.580  1.7377  0.4487 -0.6433
  134SAPE   C3614523   6.087   3.182   9.389  0.0076 -0.0834  0.5007
  134SAPE   H6X14524   6.195   3.183   9.417  0.2090  0.2483 -0.2737
  134SAPE   H6Y14525   6.049   3.282   9.419  0.1993  0.3407 -0.6254
  134SAPE   C3714526   6.077   3.174   9.241 -0.2462 -0.4334  0.2350
  134SAPE   H7X14527   6.132   3.259   9.194  0.7251 -0.0382  2.0154
  134SAPE   H7Y14528   5.970   3.198   9.223 -0.1711 -0.1168  0.1973
  134SAPE   C3814529   6.122   3.034   9.184  0.1276 -0.1234  0.3895
  134SAPE   H8X14530   6.056   2.962   9.237 -0.9771  1.4601  1.2658
  134SAPE   H8Y14531   6.227   3.008   9.207  0.5499  0.3763 -0.9048
  134SAPE   C3914532   6.105   3.033   9.036 -0.0501  0.4299  0.1880
  134SAPE   H9X14533   6.196   2.979   9.003  0.7783  0.9735  1.5100
  134SAPE   H9Y14534   6.114   3.132   8.986  0.6985 -0.0004 -0.5762
  134SAPE  C31014535   5.983   2.958   8.974  0.3535  0.5537  0.7576
  134SAPE  H10X14536   5.891   3.019   8.971  0.0759  0.1418 -2.2333
  134SAPE  H10Y14537   5.972   2.865   9.034 -0.6528  1.2367  1.6637
  134SAPE  C31114538   6.007   2.918   8.824  0.1200  0.4554 -0.0810
  134SAPE  H11X14539   6.006   2.807   8.817 -1.8540  0.4285 -0.0268
  134SAPE  H11Y14540   6.108   2.952   8.795  0.3554  0.9579  1.2640
  134SAPE  C31214541   5.907   2.974   8.723 -0.2414 -0.1244  0.8398
  134SAPE  H12X14542   5.910   3.085   8.717 -0.7617 -0.1005  0.9753
  134SAPE  H12Y14543   5.807   2.956   8.766 -0.4633  0.3047  0.5059
  134SAPE  C31314544   5.921   2.918   8.581  0.0108 -0.0695  0.5174
  134SAPE  H13X14545   6.019   2.944   8.535  0.1244 -1.4377 -0.0599
  134SAPE  H13Y14546   5.844   2.963   8.517  0.1223 -0.3951  0.1497
  134SAPE  C31414547   5.913   2.761   8.564 -0.5430 -0.0588 -0.0617
  134SAPE  H14X14548   6.011   2.717   8.591 -0.9961 -0.5557  0.7965
  134SAPE  H14Y14549   5.902   2.736   8.456  1.4953 -0.2094 -0.2807
  134SAPE  C31514550   5.804   2.688   8.641  0.4651 -1.1381 -0.3309
  134SAPE  H15X14551   5.706   2.733   8.612  0.0346  0.3946  3.0484
  134SAPE  H15Y14552   5.814   2.704   8.751  0.5454 -2.1499 -0.1857
  134SAPE  C31614553   5.798   2.532   8.623  0.0942 -0.2725  0.7627
  134SAPE  H16X14554   5.875   2.475   8.680 -1.0752 -0.2923  2.3708
  134SAPE  H16Y14555   5.800   2.504   8.515 -2.1751  0.2435  0.5376
  134SAPE  C31714556   5.663   2.478   8.675  0.4992  0.2450  0.0750
  134SAPE  H17X14557   5.570   2.526   8.635 -0.1212 -1.6352 -0.8309
  134SAPE  H17Y14558   5.668   2.501   8.784 -2.1778  0.8039  0.1651
  134SAPE  C31814559   5.650   2.325   8.669  0.0596 -0.1367 -0.5614
  134SAPE  H18X14560   5.549   2.302   8.627 -0.2279 -1.6034  0.8283
  134SAPE  H18Y14561   5.661   2.284   8.772 -0.7235  1.6110  0.2650
  134SAPE  H18Z14562   5.724   2.280   8.600  0.7317 -0.7873  0.5568
  135SAPE     N14563   4.455   1.978   9.696  0.5939  0.2778 -0.7316
  135SAPE   HN114564   4.370   2.000   9.640  0.8049 -0.0755 -1.2016
  135SAPE   HN214565   4.471   2.044   9.775  2.4157 -0.5245 -0.3756
  135SAPE   HN314566   4.546   1.986   9.645 -0.0051 -0.9181 -2.0504
  135SAPE   C1214567   4.451   1.837   9.755 -0.0919 -0.6949  0.1645
  135SAPE  H12A14568   4.460   1.756   9.680  1.4638 -0.3051 -0.1112
  135SAPE  H12B14569   4.358   1.816   9.812  0.8609 -0.1109  2.0184
  135SAPE   C1114570   4.583   1.825   9.843  0.1675 -0.5158 -0.0034
  135SAPE  H11A14571   4.583   1.715   9.856 -0.7287 -0.5375 -0.1092
  135SAPE  H11B14572   4.583   1.869   9.944  0.6265  1.9069 -0.9955
  135SAPE     P14573   4.836   1.836   9.830 -0.2446  0.2687 -0.0993
  135SAPE   O1314574   4.874   1.899   9.960 -0.0220 -0.0724  0.0303
  135SAPE   O1414575   4.846   1.690   9.828  0.3648  0.2543 -0.0534
  135SAPE   O1214576   4.693   1.875   9.774 -0.4105  0.1042  0.0703
  135SAPE   O1114577   4.941   1.891   9.732 -0.2847  0.0061 -0.4727
  135SAPE    C114578   4.914   1.921   9.602 -0.3769 -0.1888 -0.2704
  135SAPE    HA14579   4.999   1.883   9.542  0.0723 -0.3713  0.4707
  135SAPE    HB14580   4.822   1.867   9.568 -1.2989  0.7494  0.6585
  135SAPE    C214581   4.886   2.076   9.593 -0.0959  0.5628 -0.2036
  135SAPE    HS14582   4.814   2.110   9.670  0.4247  0.5850  0.2756
  135SAPE   O2114583   4.844   2.108   9.456 -0.2282 -0.2383 -0.1370
  135SAPE   C2114584   4.717   2.087   9.440  0.0233  0.2756 -0.0738
  135SAPE   O2214585   4.643   2.057   9.532 -0.1916  0.0188 -0.4828
  135SAPE   C2214586   4.679   2.102   9.295  0.2323  0.1010  0.6651
  135SAPE   H2R14587   4.715   2.007   9.250 -0.5019  0.9484 -1.8534
  135SAPE   H2S14588   4.569   2.087   9.299  0.5103 -2.3945  0.9177
  135SAPE    C314589   5.012   2.162   9.630 -0.2307  0.1651 -0.1895
  135SAPE    HX14590   5.047   2.139   9.733  1.2741  0.1157 -0.6907
  135SAPE    HY14591   4.981   2.267   9.613 -2.8719 -0.8426 -2.3036
  135SAPE   O3114592   5.114   2.129   9.537 -0.3479 -0.1264 -0.2265
  135SAPE   C3114593   5.108   2.181   9.406  0.0070 -0.2643 -0.2705
  135SAPE   O3214594   5.068   2.290   9.387  0.0787  0.4357 -0.6634
  135SAPE   C3214595   5.168   2.090   9.302  0.2563 -0.2566 -0.1198
  135SAPE   H2X14596   5.135   1.984   9.315 -0.8040 -0.0914 -1.2338
  135SAPE   H2Y14597   5.277   2.073   9.314  0.3202 -0.7314 -1.2738
  135SAPE   C2314598   4.726   2.228   9.230 -0.7189 -0.6823 -0.3138
  135SAPE   H3R14599   4.835   2.247   9.239 -0.6900 -1.2353  0.6965
  135SAPE   H3S14600   4.682   2.317   9.281  0.5595 -0.4537  0.4500
  135SAPE   C2414601   4.686   2.238   9.081  0.0240  0.4219  0.5723
  135SAPE   H4R14602   4.677   2.344   9.049  0.5720  0.5163  0.7158
  135SAPE   H4S14603   4.584   2.194   9.070 -0.6593  2.3948 -1.9198
  135SAPE   C2514604   4.782   2.159   8.994 -0.4906 -0.2094  0.4614
  135SAPE   H5R14605   4.847   2.083   9.040 -0.5051  0.2152  1.2093
  135SAPE   C2614606   4.812   2.186   8.866 -0.2746  1.0229  0.1154
  135SAPE   H6R14607   4.889   2.118   8.826 -0.7699  1.0337 -0.8896
  135SAPE   C2714608   4.753   2.288   8.770 -0.8015 -0.2410 -0.0672
  135SAPE   H7R14609   4.720   2.380   8.823  0.0373  1.3911 -2.2080
  135SAPE   H7S14610   4.660   2.243   8.727 -0.6274 -0.6058 -0.0639
  135SAPE   C2814611   4.844   2.317   8.648 -0.4027  0.2339 -0.0196
  135SAPE   H8R14612   4.905   2.408   8.644 -0.2141  0.0730 -2.1067
  135SAPE   C2914613   4.858   2.233   8.543  0.7340  0.5515  0.3779
  135SAPE   H9R14614   4.940   2.257   8.473 -1.4680  1.1933 -2.1015
  135SAPE  C21014615   4.785   2.104   8.515 -0.3792 -0.6405  0.2691
  135SAPE  H10R14616   4.675   2.115   8.524 -0.2888  0.8235 -0.0716
  135SAPE  H10S14617   4.810   2.026   8.589  1.2669 -0.0122  0.4192
  135SAPE  C21114618   4.815   2.065   8.367  0.3297  0.5212  0.5513
  135SAPE  H11R14619   4.737   2.096   8.295 -0.1589 -1.3224  0.2246
  135SAPE  C21214620   4.895   1.966   8.320 -0.1517  1.3658 -0.0120
  135SAPE  H12R14621   4.929   1.957   8.216  2.1337 -2.7062  0.8446
  135SAPE  C21314622   4.980   1.885   8.409  0.0837 -0.1703 -0.4371
  135SAPE  H13R14623   4.980   1.910   8.517  0.0199  0.6122 -0.6115
  135SAPE  H13S14624   5.084   1.922   8.393  0.3000  1.1060  3.0970
  135SAPE  C21414625   4.962   1.735   8.398 -0.5528 -0.1106  0.3142
  135SAPE  H14R14626   4.862   1.697   8.422 -0.9033  1.8805  2.3053
  135SAPE  C21514627   5.055   1.648   8.353 -1.0267  0.3001 -0.1392
  135SAPE  H15R14628   5.035   1.542   8.372 -2.3963  0.3337 -1.2175
  135SAPE  C21614629   5.190   1.674   8.300 -0.2231  0.3472  0.8435
  135SAPE  H16R14630   5.258   1.700   8.385 -2.1036  0.6869  2.3081
  135SAPE  H16S14631   5.185   1.759   8.228 -1.4443  0.1471  0.6784
  135SAPE  C21714632   5.247   1.551   8.229  0.2744  0.2519  0.8393
  135SAPE  H17R14633   5.281   1.472   8.300  0.2396  0.9704  1.6729
  135SAPE  H17S14634   5.342   1.583   8.181 -0.6417 -1.6233 -2.5484
  135SAPE  C21814635   5.153   1.500   8.114  0.3360  0.3515 -0.5774
  135SAPE  H18R14636   5.107   1.591   8.069 -1.9250 -0.4519 -0.0068
  135SAPE  H18S14637   5.059   1.453   8.148  0.9924  0.2841  1.2899
  135SAPE  C21914638   5.237   1.417   8.014  0.8984 -0.1083  0.3827
  135SAPE  H19R14639   5.293   1.335   8.065  1.1244  0.6686  1.4396
  135SAPE  H19S14640   5.312   1.486   7.969  0.0706  1.8909  1.8951
  135SAPE  C22014641   5.147   1.348   7.905  0.1527 -0.0800  0.3776
  135SAPE  H20R14642   5.220   1.314   7.828  0.1686 -0.3217  0.5004
  135SAPE  H20S14643   5.077   1.420   7.857  2.1680  0.1006 -2.5651
  135SAPE  H20T14644   5.094   1.260   7.947 -0.7550 -0.0178 -0.5962
  135SAPE   C3314645   5.135   2.122   9.162  0.4946  0.3783 -0.4101
  135SAPE   H3X14646   5.042   2.183   9.161  0.7206  0.7240 -1.5697
  135SAPE   H3Y14647   5.115   2.028   9.106  2.4147  0.5543 -1.4927
  135SAPE   C3414648   5.230   2.204   9.082  0.3544  0.6556 -0.2436
  135SAPE   H4X14649   5.328   2.152   9.093  0.5123  0.3878 -2.4101
  135SAPE   H4Y14650   5.248   2.305   9.123 -0.3623  0.4506  0.5979
  135SAPE   C3514651   5.200   2.218   8.930  0.3324 -0.3589  0.0085
  135SAPE   H5X14652   5.091   2.216   8.910  0.2816 -2.4378  0.2590
  135SAPE   H5Y14653   5.232   2.127   8.875 -1.6913 -0.7001 -0.6857
  135SAPE   C3614654   5.277   2.340   8.871 -0.6056  0.2750  0.3762
  135SAPE   H6X14655   5.384   2.324   8.895  0.2327  1.6937 -2.1138
  135SAPE   H6Y14656   5.246   2.433   8.924 -0.9757  0.0864  0.4950
  135SAPE   C3714657   5.267   2.343   8.719  0.4199  0.0459 -0.3916
  135SAPE   H7X14658   5.163   2.313   8.698  0.8276  0.3306 -3.1869
  135SAPE   H7Y14659   5.333   2.264   8.678 -0.3391 -1.8306  1.7716
  135SAPE   C3814660   5.271   2.487   8.654 -0.6052 -0.4576 -0.8464
  135SAPE   H8X14661   5.358   2.534   8.703 -1.2093  1.0989 -1.2190
  135SAPE   H8Y14662   5.178   2.538   8.687 -0.5253  0.6366 -2.2225
  135SAPE   C3914663   5.277   2.494   8.504 -0.6432  0.0471 -0.1313
  135SAPE   H9X14664   5.365   2.448   8.453 -0.9315 -0.1063 -0.4925
  135SAPE   H9Y14665   5.285   2.600   8.469 -3.7028  0.4540  0.1834
  135SAPE  C31014666   5.162   2.422   8.436 -0.3058 -0.3859 -0.1403
  135SAPE  H10X14667   5.061   2.456   8.468 -0.2766 -1.2493  0.9468
  135SAPE  H10Y14668   5.154   2.321   8.483 -2.6104  0.1459  0.7257
  135SAPE  C31114669   5.170   2.417   8.284 -0.1132 -0.5439  0.9668
  135SAPE  H11X14670   5.273   2.378   8.270  0.1504 -0.1405  1.6829
  135SAPE  H11Y14671   5.157   2.522   8.250 -0.6724 -0.8679  0.1585
  135SAPE  C31214672   5.074   2.328   8.211  0.2454  0.1476 -0.8355
  135SAPE  H12X14673   4.966   2.342   8.234  1.0869  2.4509  2.3527
  135SAPE  H12Y14674   5.100   2.225   8.244  1.9609  1.5981  2.8272
  135SAPE  C31314675   5.076   2.336   8.055  0.3860  0.4258  0.0612
  135SAPE  H13X14676   5.020   2.429   8.030 -1.3866 -0.6258 -0.0461
  135SAPE  H13Y14677   5.013   2.250   8.026  0.5283  0.5690 -0.6970
  135SAPE  C31414678   5.216   2.341   8.001 -0.2013  0.4705  0.1793
  135SAPE  H14X14679   5.275   2.272   8.065  2.4045  1.6403 -0.8450
  135SAPE  H14Y14680   5.247   2.445   8.021  1.8259 -0.1587  0.5205
  135SAPE  C31514681   5.215   2.321   7.847 -0.9655  0.7290  0.0989
  135SAPE  H15X14682   5.142   2.387   7.795 -0.6093 -0.2032 -1.6362
  135SAPE  H15Y14683   5.188   2.214   7.835  2.8250 -0.4861  1.0793
  135SAPE  C31614684   5.356   2.336   7.790  0.3635  0.0988  0.5164
  135SAPE  H16X14685   5.378   2.292   7.691 -0.3094  0.6562  0.1087
  135SAPE  H16Y14686   5.430   2.287   7.857 -0.1593  0.0720  1.0828
  135SAPE  C31714687   5.391   2.483   7.763  0.3942 -0.2258  0.9701
  135SAPE  H17X14688   5.394   2.544   7.856  2.0893 -0.1307  0.8835
  135SAPE  H17Y14689   5.308   2.535   7.712  0.6804 -2.3836 -1.9731
  135SAPE  C31814690   5.533   2.498   7.707 -0.0794  0.3638 -0.1486
  135SAPE  H18X14691   5.599   2.434   7.770 -1.0132  0.6942  1.1799
  135SAPE  H18Y14692   5.561   2.603   7.726  0.8605 -0.1244  1.3611
  135SAPE  H18Z14693   5.548   2.472   7.599  2.2734 -2.0246  0.6379
  136SAPE     N14694   1.399   2.968   9.766  0.0762  0.5149 -0.1886
  136SAPE   HN114695   1.442   2.875   9.746  0.3652  0.5366  0.3241
  136SAPE   HN214696   1.461   3.042   9.804 -0.1690  0.1182  1.0415
  136SAPE   HN314697   1.315   2.959   9.827 -0.3113  1.6085 -0.5356
  136SAPE   C1214698   1.354   3.004   9.621 -0.7717  0.1012 -0.6852
  136SAPE  H12A14699   1.429   2.965   9.549 -0.9224  1.3042 -1.5161
  136SAPE  H12B14700   1.372   3.112   9.606  0.1014 -0.0567 -0.8254
  136SAPE   C1114701   1.219   2.941   9.590  0.5292 -0.2559  0.2467
  136SAPE  H11A14702   1.200   2.935   9.480  0.6440 -0.8559  0.2545
  136SAPE  H11B14703   1.142   3.005   9.638  0.8710  1.3610 -1.2372
  136SAPE     P14704   1.175   2.679   9.576  0.1124  0.1169  0.2631
  136SAPE   O1314705   1.200   2.566   9.667 -0.3790 -0.0955 -0.1580
  136SAPE   O1414706   1.044   2.691   9.501 -0.0069 -0.1616 -0.0679
  136SAPE   O1214707   1.211   2.812   9.652  0.2550  0.3392 -0.1258
  136SAPE   O1114708   1.293   2.677   9.473 -0.1592 -0.3711  0.6739
  136SAPE    C114709   1.435   2.658   9.499 -0.0511  0.2291 -0.5090
  136SAPE    HA14710   1.498   2.736   9.453  0.6629 -0.9912 -1.6782
  136SAPE    HB14711   1.457   2.647   9.607  0.4809  0.7722 -0.5579
  136SAPE    C214712   1.493   2.525   9.438 -0.1927 -0.4546 -0.6896
  136SAPE    HS14713   1.603   2.536   9.435 -0.2043  0.2929  0.6222
  136SAPE   O2114714   1.430   2.512   9.310  0.0344 -0.4020  0.0923
  136SAPE   C2114715   1.488   2.582   9.220  0.1184 -0.4025 -0.1905
  136SAPE   O2214716   1.592   2.641   9.223  0.6494  0.1929  0.8203
  136SAPE   C2214717   1.413   2.543   9.085 -0.3209 -0.2409 -0.4557
  136SAPE   H2R14718   1.420   2.433   9.075 -1.5114 -0.2649 -1.2266
  136SAPE   H2S14719   1.302   2.551   9.091 -0.7324 -3.6703 -1.1610
  136SAPE    C314720   1.457   2.396   9.516  0.3880 -0.4720 -0.8782
  136SAPE    HX14721   1.349   2.372   9.509  0.3972 -1.0372  0.5900
  136SAPE    HY14722   1.480   2.406   9.625  1.2221  0.2866 -1.1098
  136SAPE   O3114723   1.533   2.290   9.461  0.7689 -0.0500  0.3531
  136SAPE   C3114724   1.655   2.271   9.502 -0.1359  0.6451 -0.4061
  136SAPE   O3214725   1.703   2.327   9.596  0.3536  0.5475 -0.1232
  136SAPE   C3214726   1.723   2.165   9.418 -1.2318 -0.5238 -0.6088
  136SAPE   H2X14727   1.644   2.116   9.358 -2.9474  0.2396  0.9595
  136SAPE   H2Y14728   1.772   2.089   9.484  0.2085 -1.9317 -3.1113
  136SAPE   C2314729   1.479   2.604   8.965 -0.9106 -0.4807  0.5889
  136SAPE   H3R14730   1.588   2.583   8.959 -1.1640 -1.5104 -1.3268
  136SAPE   H3S14731   1.470   2.715   8.960  1.7621 -0.2482 -0.5610
  136SAPE   C2414732   1.411   2.564   8.829  0.7405 -0.9812  0.5187
  136SAPE   H4R14733   1.452   2.633   8.753 -2.8027  0.7340 -0.0238
  136SAPE   H4S14734   1.304   2.593   8.823  1.3377  1.7013  1.2755
  136SAPE   C2514735   1.440   2.417   8.809  0.4643 -0.7099  0.0731
  136SAPE   H5R14736   1.522   2.380   8.872  1.5901 -0.7080 -1.3556
  136SAPE   C2614737   1.388   2.339   8.709  0.5024  0.4191 -0.6235
  136SAPE   H6R14738   1.403   2.230   8.710 -1.7160  0.0609 -0.3979
  136SAPE   C2714739   1.291   2.389   8.608  0.7239  0.3681  0.6317
  136SAPE   H7R14740   1.241   2.486   8.628  0.8466  1.2608 -2.8337
  136SAPE   H7S14741   1.204   2.319   8.604  0.1212  1.0299  1.6775
  136SAPE   C2814742   1.352   2.380   8.476 -0.3262  0.8063  0.4573
  136SAPE   H8R14743   1.462   2.383   8.479 -0.3413  1.9333  0.0233
  136SAPE   C2914744   1.292   2.373   8.352 -0.1865  0.5957 -0.1739
  136SAPE   H9R14745   1.355   2.348   8.266 -1.3354 -1.0443 -0.5983
  136SAPE  C21014746   1.143   2.378   8.320  0.1176 -0.2634 -0.0395
  136SAPE  H10R14747   1.087   2.294   8.366  2.8046 -1.7192  0.8083
  136SAPE  H10S14748   1.136   2.356   8.211 -0.1837 -1.7213  0.2580
  136SAPE  C21114749   1.077   2.515   8.361  0.0752  0.0821 -0.0957
  136SAPE  H11R14750   1.039   2.518   8.464 -0.1465 -1.2950 -0.1190
  136SAPE  C21214751   1.094   2.627   8.296 -1.0670 -0.1250 -0.1154
  136SAPE  H12R14752   1.043   2.716   8.334 -1.4984  0.0709 -1.1433
  136SAPE  C21314753   1.176   2.646   8.170  0.2925 -0.2555  0.5289
  136SAPE  H13R14754   1.101   2.647   8.087 -1.0678 -3.4905  1.5462
  136SAPE  H13S14755   1.234   2.554   8.148 -1.5667 -1.4280  0.2792
  136SAPE  C21414756   1.252   2.773   8.154 -0.6409 -0.5404 -0.7766
  136SAPE  H14R14757   1.355   2.737   8.169 -1.1310 -1.8196 -0.2869
  136SAPE  C21514758   1.212   2.900   8.149 -0.0552  0.4704 -0.6795
  136SAPE  H15R14759   1.294   2.973   8.146  0.2425  0.1078 -2.5166
  136SAPE  C21614760   1.073   2.957   8.143  0.4860 -0.1053  0.4568
  136SAPE  H16R14761   1.007   2.869   8.129  0.9858 -0.6916  1.6423
  136SAPE  H16S14762   1.059   3.020   8.053 -0.6341  0.6575  1.1462
  136SAPE  C21714763   1.036   3.025   8.271  0.6945  0.2195  0.2665
  136SAPE  H17R14764   1.097   3.118   8.274 -1.8842  2.0159  0.7136
  136SAPE  H17S14765   1.055   2.949   8.350 -0.8670 -1.2951 -0.7440
  136SAPE  C21814766   0.890   3.079   8.296 -0.1814  0.4638  0.9158
  136SAPE  H18R14767   0.866   3.096   8.403 -1.5686  0.0989  0.6787
  136SAPE  H18S14768   0.821   2.998   8.266  1.9392 -0.9472 -0.3379
  136SAPE  C21914769   0.853   3.210   8.226 -0.0935 -0.4612  0.1430
  136SAPE  H19R14770   0.748   3.238   8.249  0.0747  1.2070 -0.9509
  136SAPE  H19S14771   0.866   3.177   8.121  0.0450  0.4744 -0.1412
  136SAPE  C22014772   0.942   3.332   8.253 -0.3874 -0.1316  0.0311
  136SAPE  H20R14773   0.951   3.363   8.359 -1.3473 -1.6076  0.5887
  136SAPE  H20S14774   0.896   3.418   8.200 -1.1249  0.9703  2.3443
  136SAPE  H20T14775   1.042   3.316   8.207 -0.4351 -0.0596 -0.0988
  136SAPE   C3314776   1.841   2.233   9.335  0.2952  0.3290 -0.2721
  136SAPE   H3X14777   1.881   2.145   9.282 -2.1860  0.5482 -2.7316
  136SAPE   H3Y14778   1.911   2.277   9.410 -1.2417  0.3187  1.2293
  136SAPE   C3414779   1.788   2.332   9.237 -0.7257 -0.0818 -0.0824
  136SAPE   H4X14780   1.744   2.412   9.299  0.1260  1.3336 -1.2308
  136SAPE   H4Y14781   1.702   2.292   9.179  0.7167  0.0038 -2.4052
  136SAPE   C3514782   1.876   2.419   9.142  1.0092 -0.1645  0.1936
  136SAPE   H5X14783   1.945   2.474   9.210 -0.7392 -1.2816  3.0695
  136SAPE   H5Y14784   1.819   2.498   9.089  0.5600 -0.6690 -0.0925
  136SAPE   C3614785   1.959   2.334   9.049  0.4920 -0.0383 -0.5474
  136SAPE   H6X14786   1.995   2.250   9.112  0.4947  0.6287  0.3711
  136SAPE   H6Y14787   2.036   2.398   9.001  1.1586 -0.7440 -0.4222
  136SAPE   C3714788   1.876   2.277   8.936  0.0740  0.0178  0.1046
  136SAPE   H7X14789   1.811   2.359   8.898 -2.5819 -1.8413  0.4283
  136SAPE   H7Y14790   1.814   2.199   8.984 -0.2046  0.2267  0.0834
  136SAPE   C3814791   1.967   2.221   8.819  0.4139 -0.3060  0.1064
  136SAPE   H8X14792   2.041   2.150   8.861  2.3728  1.0713 -0.9139
  136SAPE   H8Y14793   2.027   2.306   8.781 -0.0523  0.3109  0.7269
  136SAPE   C3914794   1.891   2.146   8.704 -0.3497 -0.0490  0.1875
  136SAPE   H9X14795   1.821   2.221   8.661 -0.4152 -0.6050 -0.7131
  136SAPE   H9Y14796   1.830   2.063   8.745  1.1788 -1.5295 -0.4166
  136SAPE  C31014797   1.979   2.089   8.588  0.3521 -0.3140 -0.7212
  136SAPE  H10X14798   2.028   1.996   8.624  0.2279  0.0495  0.4125
  136SAPE  H10Y14799   2.051   2.168   8.559 -2.1011  1.5240 -2.2041
  136SAPE  C31114800   1.902   2.053   8.462  0.1422 -0.2600 -0.0555
  136SAPE  H11X14801   1.834   1.970   8.488  1.4991 -1.0236  1.1868
  136SAPE  H11Y14802   1.979   2.011   8.393  0.1097  0.9080 -0.8296
  136SAPE  C31214803   1.832   2.165   8.383 -0.4792 -0.5947  0.5519
  136SAPE  H12X14804   1.911   2.243   8.370  0.9111 -1.7905  1.5262
  136SAPE  H12Y14805   1.744   2.210   8.433 -0.4125  0.9041 -0.6108
  136SAPE  C31314806   1.786   2.119   8.248  0.3022  0.5017 -0.0109
  136SAPE  H13X14807   1.705   2.044   8.262  0.5670  0.3850  0.9638
  136SAPE  H13Y14808   1.858   2.063   8.185  1.6024 -0.2719  2.0948
  136SAPE  C31414809   1.727   2.225   8.148 -0.3032  0.0494  0.3392
  136SAPE  H14X14810   1.662   2.297   8.202  0.6939  0.2816  1.2641
  136SAPE  H14Y14811   1.668   2.183   8.063 -0.8952 -0.8810  1.1952
  136SAPE  C31514812   1.845   2.310   8.104 -0.3607 -0.1627  0.5481
  136SAPE  H15X14813   1.900   2.250   8.029  0.4590  0.6395  0.4855
  136SAPE  H15Y14814   1.913   2.322   8.190  0.0056  0.1918  0.2151
  136SAPE  C31614815   1.819   2.453   8.051  0.3938 -0.4703 -0.1792
  136SAPE  H16X14816   1.916   2.481   8.004  0.2535 -2.1819 -1.6058
  136SAPE  H16Y14817   1.790   2.519   8.135 -0.1702  1.1635 -1.5897
  136SAPE  C31714818   1.698   2.464   7.955  0.1928  0.8394 -0.0630
  136SAPE  H17X14819   1.595   2.447   7.992  0.2261 -0.4368 -0.5054
  136SAPE  H17Y14820   1.728   2.392   7.876  0.6871  0.0350  0.8482
  136SAPE  C31814821   1.700   2.602   7.883 -0.0816 -0.1901  0.6330
  136SAPE  H18X14822   1.791   2.610   7.820 -0.9787 -0.7927 -0.7901
  136SAPE  H18Y14823   1.680   2.686   7.954  0.3354  1.7215 -1.3957
  136SAPE  H18Z14824   1.619   2.610   7.807 -1.1711  0.3805  1.8127
  137SAPE     N14825   5.327   5.816  10.238 -0.4817  0.7864 -0.1736
  137SAPE   HN114826   5.401   5.743  10.234 -1.6350 -0.3737 -1.6268
  137SAPE   HN214827   5.369   5.893  10.183  2.9964 -0.8237 -0.0285
  137SAPE   HN314828   5.295   5.851  10.330 -0.6795 -0.2687  0.1811
  137SAPE   C1214829   5.204   5.751  10.169 -0.4874 -0.1759  0.2492
  137SAPE  H12A14830   5.123   5.822  10.144 -0.3920 -0.3985 -0.7591
  137SAPE  H12B14831   5.159   5.669  10.229 -0.4914 -1.1812 -1.0610
  137SAPE   C1114832   5.241   5.700  10.030 -0.0982  0.7489 -0.2655
  137SAPE  H11A14833   5.280   5.783   9.967 -0.4015  0.6901 -0.5345
  137SAPE  H11B14834   5.149   5.681   9.971 -0.3351  1.1940 -0.0482
  137SAPE     P14835   5.288   5.438  10.068 -0.0296 -0.5806  0.0283
  137SAPE   O1314836   5.399   5.350  10.031 -0.0713  0.0480 -0.1404
  137SAPE   O1414837   5.229   5.427  10.201  0.3729 -0.2338 -0.3164
  137SAPE   O1214838   5.332   5.591  10.036  0.9119  0.3008 -0.6862
  137SAPE   O1114839   5.167   5.418   9.966  0.2630  0.2455  0.0743
  137SAPE    C114840   5.178   5.454   9.824 -0.1527  0.2728 -0.6042
  137SAPE    HA14841   5.078   5.489   9.791 -0.4894  0.8436  0.9325
  137SAPE    HB14842   5.253   5.535   9.814  1.0511 -0.6121  0.8877
  137SAPE    C214843   5.229   5.331   9.741 -0.0090  0.1338 -0.6379
  137SAPE    HS14844   5.302   5.278   9.806 -0.1771 -1.4247 -1.6527
  137SAPE   O2114845   5.293   5.390   9.631  0.4943  0.2998  0.6467
  137SAPE   C2114846   5.362   5.319   9.544 -0.0962  0.4258  0.5129
  137SAPE   O2214847   5.386   5.199   9.555 -0.4555 -0.2249  0.1364
  137SAPE   C2214848   5.408   5.396   9.418 -0.1725 -0.2544  0.0534
  137SAPE   H2R14849   5.354   5.493   9.415 -0.0896 -0.2123 -3.3055
  137SAPE   H2S14850   5.516   5.415   9.437 -0.1762  0.3425 -0.4757
  137SAPE    C314851   5.116   5.232   9.702  0.0521 -0.1749  0.0281
  137SAPE    HX14852   5.060   5.198   9.792 -1.0191  1.7551  0.1693
  137SAPE    HY14853   5.153   5.145   9.645 -1.0296  1.0506 -2.7226
  137SAPE   O3114854   5.024   5.303   9.625  0.3766  0.6431 -0.3721
  137SAPE   C3114855   4.902   5.328   9.664 -0.7344 -0.2026 -0.3270
  137SAPE   O3214856   4.857   5.306   9.778  0.3869  0.0385  0.8356
  137SAPE   C3214857   4.828   5.391   9.550  0.8945  0.8595  0.8067
  137SAPE   H2X14858   4.888   5.411   9.458 -2.9262  1.0560 -1.8741
  137SAPE   H2Y14859   4.771   5.480   9.584 -1.7856 -0.5659  0.3242
  137SAPE   C2314860   5.387   5.320   9.285  0.3421 -0.5285  0.1615
  137SAPE   H3R14861   5.415   5.213   9.295  1.0233 -0.4847 -1.0221
  137SAPE   H3S14862   5.461   5.364   9.214  0.8587 -1.7673 -0.1029
  137SAPE   C2414863   5.246   5.329   9.233 -0.4929  0.0941  0.6771
  137SAPE   H4R14864   5.181   5.330   9.323 -0.5049 -1.6908  0.7159
  137SAPE   H4S14865   5.220   5.240   9.172  0.2915  0.4453 -0.2026
  137SAPE   C2514866   5.232   5.450   9.149  0.3268 -0.1791  0.3043
  137SAPE   H5R14867   5.230   5.539   9.214 -1.1987 -1.4752  2.1062
  137SAPE   C2614868   5.259   5.460   9.015  0.6528 -0.8365 -0.1395
  137SAPE   H6R14869   5.253   5.561   8.970 -0.5325 -0.5134  0.7205
  137SAPE   C2714870   5.277   5.357   8.915 -0.0733 -0.5068  0.9134
  137SAPE   H7R14871   5.304   5.254   8.947  0.7582 -1.7255 -3.1001
  137SAPE   H7S14872   5.372   5.381   8.861 -0.1545 -0.4427  0.7993
  137SAPE   C2814873   5.160   5.359   8.817 -0.2336  0.0153 -0.0417
  137SAPE   H8R14874   5.062   5.365   8.867  0.0356  0.1351  0.4735
  137SAPE   C2914875   5.164   5.337   8.687  0.2687 -0.8776  0.4692
  137SAPE   H9R14876   5.068   5.345   8.635  0.3511 -1.1007  0.2834
  137SAPE  C21014877   5.283   5.317   8.596 -0.2485  0.2557 -0.3180
  137SAPE  H10R14878   5.245   5.280   8.498  0.3212 -0.3591 -0.3111
  137SAPE  H10S14879   5.338   5.226   8.629  0.3230  0.5985 -0.3240
  137SAPE  C21114880   5.368   5.441   8.572 -0.1311  0.2548 -0.0402
  137SAPE  H11R14881   5.346   5.515   8.650  0.2450 -1.0081  1.3074
  137SAPE  C21214882   5.461   5.467   8.475 -0.2555 -0.7165  0.2748
  137SAPE  H12R14883   5.506   5.567   8.468 -0.5677 -0.4991  1.1515
  137SAPE  C21314884   5.519   5.369   8.377  0.0557 -0.0502  0.9408
  137SAPE  H13R14885   5.434   5.338   8.313  0.0689  0.1543  0.8215
  137SAPE  H13S14886   5.541   5.268   8.418  1.6894  0.5058  1.5222
  137SAPE  C21414887   5.618   5.420   8.278 -0.0735  0.1259 -0.4313
  137SAPE  H14R14888   5.577   5.506   8.223  1.2269  1.4842  0.6429
  137SAPE  C21514889   5.734   5.354   8.245  0.8345  0.4798  0.5923
  137SAPE  H15R14890   5.798   5.394   8.164 -1.6609 -0.7667 -2.1919
  137SAPE  C21614891   5.793   5.226   8.307 -0.3587  0.0832 -0.6663
  137SAPE  H16R14892   5.722   5.175   8.375  1.0290 -0.1586  0.6350
  137SAPE  H16S14893   5.880   5.259   8.367 -0.3206  0.9640 -1.1742
  137SAPE  C21714894   5.825   5.131   8.202 -0.1109  0.0068  1.0560
  137SAPE  H17R14895   5.727   5.091   8.168 -0.6144  0.3479  2.0511
  137SAPE  H17S14896   5.877   5.042   8.245  0.8781  1.9040  4.1446
  137SAPE  C21814897   5.914   5.192   8.086  0.7178  0.0332 -0.1918
  137SAPE  H18R14898   6.009   5.234   8.127  1.5079 -1.3066 -0.6017
  137SAPE  H18S14899   5.863   5.268   8.023 -0.2271 -0.9680 -0.6574
  137SAPE  C21914900   5.955   5.077   7.993  0.6266  0.3319  0.3758
  137SAPE  H19R14901   5.860   5.025   7.968  0.8384 -0.8057  1.7960
  137SAPE  H19S14902   6.020   5.000   8.041 -0.7176 -1.9264 -1.2076
  137SAPE  C22014903   6.036   5.125   7.868  0.3508  0.1330  0.3183
  137SAPE  H20R14904   6.105   5.207   7.896  1.7224 -0.3193 -1.5714
  137SAPE  H20S14905   5.965   5.161   7.791  1.2467  0.6190 -0.2942
  137SAPE  H20T14906   6.097   5.043   7.827  2.3654  0.9800  1.4947
  137SAPE   C3314907   4.718   5.293   9.503  0.6974  0.0172  0.1583
  137SAPE   H3X14908   4.651   5.345   9.431  0.3943  0.6677  0.8879
  137SAPE   H3Y14909   4.651   5.250   9.581 -0.0879 -1.4779 -1.3039
  137SAPE   C3414910   4.773   5.173   9.421  0.1989 -0.4920  0.0883
  137SAPE   H4X14911   4.678   5.124   9.388 -2.4536  0.6807  4.9640
  137SAPE   H4Y14912   4.823   5.099   9.487  1.1722 -0.6148 -0.7764
  137SAPE   C3514913   4.859   5.218   9.295  0.3979 -0.3118 -0.0521
  137SAPE   H5X14914   4.962   5.238   9.332  0.9819 -1.7221 -0.8467
  137SAPE   H5Y14915   4.822   5.318   9.266  0.5024  0.1979  1.5022
  137SAPE   C3614916   4.858   5.117   9.180  0.0908  0.2987  0.1394
  137SAPE   H6X14917   4.751   5.094   9.164  0.2872 -1.1136  0.6987
  137SAPE   H6Y14918   4.900   5.026   9.229  1.0122  1.4263  1.5255
  137SAPE   C3714919   4.933   5.144   9.052 -0.0567 -0.1675  0.1299
  137SAPE   H7X14920   5.041   5.144   9.076 -0.1240  2.3487  0.7274
  137SAPE   H7Y14921   4.906   5.244   9.011 -1.8756 -0.5030  0.4130
  137SAPE   C3814922   4.902   5.035   8.951 -0.1280  0.3487  0.3803
  137SAPE   H8X14923   4.794   5.039   8.927  0.1867 -1.1414 -1.5590
  137SAPE   H8Y14924   4.929   4.935   8.992  0.5095  0.5134  0.3771
  137SAPE   C3914925   4.981   5.048   8.821 -0.0938 -0.9050 -0.0147
  137SAPE   H9X14926   5.088   5.060   8.849 -0.7179  0.7085  1.9237
  137SAPE   H9Y14927   4.960   5.136   8.757  2.8839  0.5227  0.7905
  137SAPE  C31014928   4.980   4.928   8.726  0.1844  0.2178  0.1446
  137SAPE  H10X14929   4.874   4.897   8.737  0.1479  0.6458  1.0463
  137SAPE  H10Y14930   5.050   4.851   8.765  0.5529  1.0582  1.1898
  137SAPE  C31114931   5.008   4.946   8.573 -0.0739 -0.4755 -0.0317
  137SAPE  H11X14932   5.116   4.968   8.564 -0.8733  3.1114 -3.2196
  137SAPE  H11Y14933   4.946   5.029   8.535 -0.2803 -0.9008 -0.6488
  137SAPE  C31214934   4.963   4.829   8.487 -0.1945  0.2381  0.1967
  137SAPE  H12X14935   4.862   4.795   8.519 -0.8174  0.8399 -1.0593
  137SAPE  H12Y14936   5.028   4.741   8.504  3.2504  1.7822 -3.3956
  137SAPE  C31314937   4.977   4.852   8.335  0.2384 -0.6640  0.8593
  137SAPE  H13X14938   5.061   4.922   8.317  0.8131 -1.8923 -1.5987
  137SAPE  H13Y14939   4.889   4.910   8.299 -1.0565 -0.4556  4.0050
  137SAPE  C31414940   4.996   4.725   8.249  0.7553  0.2697 -0.0202
  137SAPE  H14X14941   4.987   4.738   8.139  1.8249 -0.0994 -0.1686
  137SAPE  H14Y14942   4.918   4.651   8.275  0.4332  0.3341 -0.7759
  137SAPE  C31514943   5.133   4.655   8.283 -0.7812  0.0636  0.6970
  137SAPE  H15X14944   5.095   4.587   8.362 -0.5575 -0.3369  0.4584
  137SAPE  H15Y14945   5.203   4.726   8.333 -1.3324  1.0460  0.1171
  137SAPE  C31614946   5.205   4.585   8.168 -0.0040  0.3272 -0.1089
  137SAPE  H16X14947   5.288   4.526   8.212 -0.2340 -0.4096 -0.6623
  137SAPE  H16Y14948   5.248   4.654   8.092 -2.5637  0.0467 -1.9281
  137SAPE  C31714949   5.111   4.494   8.093  0.3814  0.3656 -0.0100
  137SAPE  H17X14950   5.021   4.545   8.051  0.8018  0.1332 -1.2266
  137SAPE  H17Y14951   5.066   4.431   8.173 -1.0937  0.4493 -0.7310
  137SAPE  C31814952   5.174   4.416   7.982 -0.6836  0.6997  0.5125
  137SAPE  H18X14953   5.118   4.323   7.957  1.6319 -1.0317  1.3999
  137SAPE  H18Y14954   5.281   4.398   8.006 -0.0778  0.1800 -2.2551
  137SAPE  H18Z14955   5.175   4.482   7.892  0.8554 -1.0247 -0.8170
  138SAPE     N14956   2.478   5.554  10.079 -0.0543  0.0056  0.0589
  138SAPE   HN114957   2.499   5.561  10.180 -3.0495  1.3237  0.6931
  138SAPE   HN214958   2.404   5.624  10.056  0.0972  0.4178  0.8097
  138SAPE   HN314959   2.438   5.458  10.072  0.7701 -0.3094 -0.4798
  138SAPE   C1214960   2.612   5.553  10.008 -1.1009  0.4969 -0.7332
  138SAPE  H12A14961   2.595   5.538   9.899 -0.7132 -0.9301 -0.6222
  138SAPE  H12B14962   2.664   5.458  10.034 -1.0091  0.6752 -0.2635
  138SAPE   C1114963   2.690   5.687  10.033  0.1528 -0.2624  0.0444
  138SAPE  H11A14964   2.779   5.683   9.967 -1.0747 -1.5503 -1.6472
  138SAPE  H11B14965   2.726   5.699  10.137 -1.4501 -1.3169  0.7664
  138SAPE     P14966   2.668   5.937   9.999 -0.2628 -0.0803 -0.4777
  138SAPE   O1314967   2.551   6.032  10.028  0.8515 -0.6189  0.0208
  138SAPE   O1414968   2.790   5.949  10.085  0.2688 -0.0915  0.3414
  138SAPE   O1214969   2.607   5.790   9.993  0.1267  0.4713 -0.2689
  138SAPE   O1114970   2.704   5.965   9.848 -0.4154 -0.0963  0.4770
  138SAPE    C114971   2.780   5.889   9.763 -0.0499  0.2731  0.5053
  138SAPE    HA14972   2.764   5.779   9.774  1.1617 -0.1146 -1.2177
  138SAPE    HB14973   2.749   5.913   9.659  0.8591  0.7121  0.3243
  138SAPE    C214974   2.938   5.919   9.764  1.0312  0.3814  0.1746
  138SAPE    HS14975   2.968   5.914   9.870  2.5906 -0.2349 -0.2687
  138SAPE   O2114976   2.960   6.042   9.696  0.7544 -0.3581 -0.4594
  138SAPE   C2114977   3.072   6.108   9.733  0.4930  0.9968 -0.2179
  138SAPE   O2214978   3.143   6.072   9.822  0.0526  0.2070 -0.3536
  138SAPE   C2214979   3.093   6.235   9.650 -0.7146 -0.0837  0.4534
  138SAPE   H2R14980   3.183   6.213   9.588 -0.9634  1.1502 -0.3844
  138SAPE   H2S14981   3.003   6.251   9.586  0.2622  0.4913 -0.8424
  138SAPE    C314982   3.004   5.799   9.694  0.1689  0.5275 -0.1845
  138SAPE    HX14983   2.984   5.712   9.760  2.5028  0.5058  0.6168
  138SAPE    HY14984   3.114   5.807   9.712 -0.1071 -2.1085  4.0412
  138SAPE   O3114985   2.960   5.788   9.556  0.7715 -0.0201 -0.0998
  138SAPE   C3114986   3.041   5.843   9.468 -0.5383  0.1367 -0.0657
  138SAPE   O3214987   3.151   5.889   9.490 -0.2224  0.4275  0.0225
  138SAPE   C3214988   2.985   5.813   9.330 -0.7239 -0.6260 -0.7079
  138SAPE   H2X14989   2.879   5.845   9.323 -0.5199  0.1974 -0.2506
  138SAPE   H2Y14990   2.978   5.704   9.313 -0.9575 -1.0638  1.9095
  138SAPE   C2314991   3.124   6.367   9.734  0.1886  0.2454 -0.1021
  138SAPE   H3R14992   3.192   6.354   9.821 -0.7665  3.4149  1.2601
  138SAPE   H3S14993   3.028   6.411   9.770 -0.4018 -0.7171 -0.4289
  138SAPE   C2414994   3.188   6.484   9.655 -0.1472  0.0089  0.2328
  138SAPE   H4R14995   3.288   6.448   9.624 -0.9405 -1.0958 -1.1665
  138SAPE   H4S14996   3.199   6.570   9.724 -1.4272  0.7226 -0.4112
  138SAPE   C2514997   3.087   6.517   9.545 -0.2837  0.3344  0.6890
  138SAPE   H5R14998   2.986   6.533   9.583 -0.8091  2.5836 -1.4042
  138SAPE   C2614999   3.100   6.509   9.406 -0.1692 -0.1143 -0.8768
  138SAPE   H6R15000   3.027   6.565   9.346 -0.1928  1.2143  0.3508
  138SAPE   C2715001   3.222   6.466   9.326 -0.6864 -0.3357 -0.6591
  138SAPE   H7R15002   3.204   6.464   9.216  1.0658  0.2259 -0.9925
  138SAPE   H7S15003   3.241   6.361   9.356  0.9840  0.4371  1.2435
  138SAPE   C2815004   3.353   6.533   9.343  0.3200 -0.2878  0.6645
  138SAPE   H8R15005   3.366   6.597   9.431  0.3785  1.1980 -0.3739
  138SAPE   C2915006   3.455   6.527   9.259 -0.4606  0.8776 -0.2773
  138SAPE   H9R15007   3.542   6.591   9.278  0.6463 -0.5704 -0.3025
  138SAPE  C21015008   3.459   6.448   9.128  1.0480 -0.8329 -0.7796
  138SAPE  H10R15009   3.394   6.358   9.126  3.0284 -2.3104 -0.6652
  138SAPE  H10S15010   3.559   6.406   9.107  1.5457 -1.4132  2.2874
  138SAPE  C21115011   3.416   6.547   9.025  0.3533  0.0929 -0.0161
  138SAPE  H11R15012   3.358   6.634   9.059  2.0572  1.0708  0.5722
  138SAPE  C21215013   3.443   6.524   8.893 -0.1388  0.6926  0.6217
  138SAPE  H12R15014   3.413   6.607   8.827  2.6251  0.4987 -1.0415
  138SAPE  C21315015   3.518   6.403   8.829  0.8980 -0.0360  0.0591
  138SAPE  H13R15016   3.443   6.350   8.767  2.9519 -0.6440 -2.0369
  138SAPE  H13S15017   3.562   6.327   8.896  2.5617 -0.4297 -1.4253
  138SAPE  C21415018   3.634   6.446   8.739 -0.1622 -0.3172 -0.0803
  138SAPE  H14R15019   3.730   6.439   8.790 -0.1995 -0.6931 -0.0579
  138SAPE  C21515020   3.635   6.499   8.620 -0.0382  0.6467  0.8108
  138SAPE  H15R15021   3.730   6.539   8.580 -1.3297  2.8913 -0.2569
  138SAPE  C21615022   3.522   6.536   8.528 -0.1015  0.5903  0.0629
  138SAPE  H16R15023   3.531   6.647   8.527  1.1025  0.5455  1.7674
  138SAPE  H16S15024   3.421   6.509   8.567 -0.1083  2.5393  1.5720
  138SAPE  C21715025   3.534   6.482   8.380 -0.6177 -0.0396  0.3957
  138SAPE  H17R15026   3.540   6.371   8.383  1.4143  0.0503  0.6432
  138SAPE  H17S15027   3.622   6.534   8.337  0.6281 -1.7352  0.8095
  138SAPE  C21815028   3.423   6.526   8.295  0.5742  0.0115 -0.0250
  138SAPE  H18R15029   3.406   6.636   8.303  0.5695  0.1782 -1.8140
  138SAPE  H18S15030   3.335   6.476   8.341  1.8565 -1.7363  0.6424
  138SAPE  C21915031   3.431   6.506   8.143  0.4746 -0.6988 -0.5871
  138SAPE  H19R15032   3.512   6.574   8.109  0.3999  0.4250  1.3321
  138SAPE  H19S15033   3.340   6.541   8.090  0.6808 -0.4556 -0.7765
  138SAPE  C22015034   3.461   6.366   8.097 -0.6592  0.7129 -0.1803
  138SAPE  H20R15035   3.394   6.301   8.157 -1.5068 -0.5648 -2.4041
  138SAPE  H20S15036   3.565   6.334   8.122 -0.4622  0.5904 -1.1348
  138SAPE  H20T15037   3.444   6.349   7.989  2.9486 -0.9824 -0.6126
  138SAPE   C3315038   3.059   5.897   9.218 -0.5220  0.0521  0.4676
  138SAPE   H3X15039   3.017   5.854   9.125  1.7692 -0.3276 -0.4476
  138SAPE   H3Y15040   3.166   5.873   9.202 -0.2265  1.3489  0.4576
  138SAPE   C3415041   3.029   6.045   9.233 -0.3973  0.3519 -0.4307
  138SAPE   H4X15042   3.053   6.082   9.334  0.8786  0.0112 -0.5999
  138SAPE   H4Y15043   2.919   6.057   9.222 -0.4984 -0.7294 -0.6846
  138SAPE   C3515044   3.100   6.123   9.125 -0.5065  0.8006  0.5855
  138SAPE   H5X15045   3.095   6.059   9.034  0.3149  0.6748  0.6212
  138SAPE   H5Y15046   3.206   6.152   9.144  0.4799 -0.7239 -2.0101
  138SAPE   C3615047   3.008   6.239   9.072  0.4424  0.1116  0.3397
  138SAPE   H6X15048   3.013   6.323   9.144  0.8826 -1.4980  2.2628
  138SAPE   H6Y15049   2.904   6.207   9.049  0.2278  2.5402 -2.7691
  138SAPE   C3715050   3.063   6.300   8.942 -0.1651  0.2506 -0.4532
  138SAPE   H7X15051   3.065   6.221   8.864  1.7836  0.5111 -0.7073
  138SAPE   H7Y15052   3.170   6.324   8.960  0.1095 -0.2440 -1.3569
  138SAPE   C3815053   2.983   6.425   8.895  0.5259 -0.1927  0.2681
  138SAPE   H8X15054   2.992   6.498   8.978  2.5007  0.8231 -0.7676
  138SAPE   H8Y15055   2.874   6.408   8.882 -0.1132  2.3482  1.6611
  138SAPE   C3915056   3.033   6.491   8.766  0.2783 -0.0684 -0.2298
  138SAPE   H9X15057   3.143   6.507   8.770 -0.1328  3.4580  0.3471
  138SAPE   H9Y15058   2.985   6.591   8.753  0.2421 -0.1174 -0.4865
  138SAPE  C31015059   2.993   6.415   8.642 -0.0399 -0.5153 -0.8956
  138SAPE  H10X15060   2.892   6.370   8.655 -0.4204  0.3603 -0.7625
  138SAPE  H10Y15061   3.072   6.337   8.629 -0.3233 -0.9066 -0.2956
  138SAPE  C31115062   3.000   6.491   8.509  0.5127  0.2255 -0.4542
  138SAPE  H11X15063   3.092   6.553   8.510  2.0505 -1.9189 -0.0254
  138SAPE  H11Y15064   2.905   6.547   8.509  0.0526 -0.5241 -1.1835
  138SAPE  C31215065   3.001   6.395   8.391 -0.3010  0.3181  0.2752
  138SAPE  H12X15066   2.921   6.318   8.395  1.2774 -1.3935  0.0288
  138SAPE  H12Y15067   3.092   6.332   8.385  0.4297  1.2211  1.4827
  138SAPE  C31315068   2.983   6.463   8.258 -0.1427  0.0559  0.1047
  138SAPE  H13X15069   3.057   6.545   8.247 -2.1303  2.1523  1.4552
  138SAPE  H13Y15070   2.892   6.526   8.265 -1.8664 -2.3165 -0.0727
  138SAPE  C31415071   2.982   6.369   8.143 -0.1447  0.5528 -0.0233
  138SAPE  H14X15072   2.953   6.266   8.172  0.9322  0.0379 -0.7178
  138SAPE  H14Y15073   3.084   6.344   8.107  0.6049  1.0161  1.7106
  138SAPE  C31515074   2.884   6.396   8.032 -0.0219 -0.2075  0.3765
  138SAPE  H15X15075   2.780   6.409   8.067 -0.6427  1.8054 -1.9249
  138SAPE  H15Y15076   2.877   6.313   7.959  0.5493 -0.3308  0.4516
  138SAPE  C31615077   2.914   6.521   7.957  0.0110 -0.4487 -0.5482
  138SAPE  H16X15078   2.914   6.603   8.033  1.6822 -0.8324 -0.0714
  138SAPE  H16Y15079   2.836   6.542   7.881  0.3103 -2.0300 -1.3242
  138SAPE  C31715080   3.058   6.527   7.896  0.3704  0.4606 -0.3735
  138SAPE  H17X15081   3.089   6.446   7.827 -0.8815 -1.5133  1.2622
  138SAPE  H17Y15082   3.126   6.513   7.982 -0.3509 -0.3251  0.0790
  138SAPE  C31815083   3.091   6.673   7.845  0.2898  0.0386  0.5172
  138SAPE  H18X15084   3.197   6.674   7.811  1.0176 -1.2230  2.5294
  138SAPE  H18Y15085   3.070   6.756   7.916  0.7753  0.8008 -0.2133
  138SAPE  H18Z15086   3.024   6.705   7.763  0.6923  1.2056  0.6144
  139SAPE     N15087   2.015   6.062  10.111  0.0460 -1.2749  0.2243
  139SAPE   HN115088   1.998   6.058  10.214 -2.1322 -2.3258 -0.1082
  139SAPE   HN215089   2.117   6.059  10.093 -0.1880  1.3913 -2.0788
  139SAPE   HN315090   1.962   6.140  10.068 -1.4694 -1.4319  1.6854
  139SAPE   C1215091   1.945   5.938  10.044 -0.2644 -0.3341  0.0206
  139SAPE  H12A15092   1.839   5.968  10.025 -0.5425 -0.1474  1.6679
  139SAPE  H12B15093   1.938   5.852  10.115 -0.5281 -0.1849  0.1787
  139SAPE   C1115094   2.016   5.911   9.909 -0.0185  0.1091  0.2802
  139SAPE  H11A15095   2.042   6.006   9.858 -1.2054 -0.6480 -1.8735
  139SAPE  H11B15096   1.949   5.854   9.842  1.7384 -0.7419 -0.8034
  139SAPE     P15097   2.153   5.698   9.963  0.3934  0.2117  0.3524
  139SAPE   O1315098   2.225   5.688  10.091  0.1476  0.8982  0.3901
  139SAPE   O1415099   2.024   5.627   9.951  0.1941  0.2791 -0.3134
  139SAPE   O1215100   2.145   5.851   9.933 -0.2550  1.0359  0.1446
  139SAPE   O1115101   2.243   5.643   9.849  0.4922 -0.1437  0.1580
  139SAPE    C115102   2.357   5.719   9.803  0.1525 -0.4149 -0.4018
  139SAPE    HA15103   2.401   5.779   9.886  0.1199 -0.7624 -0.1338
  139SAPE    HB15104   2.431   5.646   9.765  0.9858  0.1185  0.1672
  139SAPE    C215105   2.317   5.825   9.686 -0.1067 -0.4441  0.1269
  139SAPE    HS15106   2.224   5.876   9.721 -0.7931 -1.0261 -0.7832
  139SAPE   O2115107   2.274   5.751   9.567 -0.1705 -0.0265 -0.4352
  139SAPE   C2115108   2.146   5.720   9.553 -0.7879  0.2574 -0.0192
  139SAPE   O2215109   2.048   5.746   9.622 -0.8914  0.0549  0.1343
  139SAPE   C2215110   2.145   5.620   9.438  0.6593 -0.7685 -0.4781
  139SAPE   H2R15111   2.244   5.605   9.391  2.2631  0.8305  2.1404
  139SAPE   H2S15112   2.105   5.527   9.485 -2.4025  2.3867  3.9738
  139SAPE    C315113   2.428   5.927   9.644  0.3317 -0.5684 -0.0249
  139SAPE    HX15114   2.521   5.872   9.618 -0.8178 -2.0805 -1.1511
  139SAPE    HY15115   2.444   6.003   9.723 -1.9941 -0.9916  0.9570
  139SAPE   O3115116   2.381   6.008   9.536  0.2912 -0.1602  0.3528
  139SAPE   C3115117   2.459   6.030   9.440 -0.5091 -0.3765  0.6348
  139SAPE   O3215118   2.579   5.996   9.429 -0.1266  0.5602  0.1247
  139SAPE   C3215119   2.391   6.114   9.329 -0.0242  0.6740  0.7130
  139SAPE   H2X15120   2.419   6.221   9.339  2.0197  0.6933 -3.3073
  139SAPE   H2Y15121   2.281   6.099   9.332 -0.0294  0.7438  0.9118
  139SAPE   C2315122   2.048   5.674   9.323 -0.1498  0.6810  0.1221
  139SAPE   H3R15123   1.962   5.730   9.365  0.1186  1.6887 -0.6380
  139SAPE   H3S15124   2.000   5.591   9.266 -0.9171  0.3532  1.2062
  139SAPE   C2415125   2.119   5.768   9.223 -0.1310  0.3510 -0.2038
  139SAPE   H4R15126   2.181   5.839   9.282 -1.1638 -0.1429  1.5420
  139SAPE   H4S15127   2.042   5.824   9.165 -0.8291  0.4054  0.7596
  139SAPE   C2515128   2.219   5.698   9.134 -0.3589  0.2743  0.0863
  139SAPE   H5R15129   2.273   5.622   9.191 -4.3573 -1.2411  2.2845
  139SAPE   C2615130   2.245   5.730   9.006 -0.6410  0.5293 -0.7699
  139SAPE   H6R15131   2.305   5.659   8.947 -0.7813  1.4147 -2.0157
  139SAPE   C2715132   2.183   5.840   8.927 -0.0955 -0.0116  0.3427
  139SAPE   H7R15133   2.252   5.907   8.871 -0.0764 -1.0240 -0.8960
  139SAPE   H7S15134   2.122   5.898   8.999 -1.5821 -2.3427  1.0637
  139SAPE   C2815135   2.081   5.774   8.836  0.3692 -0.3845  0.4971
  139SAPE   H8R15136   2.011   5.716   8.898  0.5327  0.4819  1.5255
  139SAPE   C2915137   2.089   5.759   8.698  0.5027 -0.0409 -0.3268
  139SAPE   H9R15138   2.003   5.713   8.647 -0.3284 -2.2969  2.7757
  139SAPE  C21015139   2.193   5.803   8.603 -0.0367 -0.5404 -0.1375
  139SAPE  H10R15140   2.293   5.817   8.649  0.2631 -2.4396 -0.1388
  139SAPE  H10S15141   2.169   5.903   8.559  3.5130  0.2879 -0.5483
  139SAPE  C21115142   2.216   5.713   8.487 -0.2645 -1.1483 -0.1661
  139SAPE  H11R15143   2.244   5.615   8.529  1.2868 -0.4921  0.3998
  139SAPE  C21215144   2.196   5.729   8.354 -0.6064 -0.1677  0.4531
  139SAPE  H12R15145   2.214   5.637   8.296 -1.2049  1.1278 -1.9424
  139SAPE  C21315146   2.139   5.847   8.274  0.4587 -0.1440 -0.6509
  139SAPE  H13R15147   2.115   5.922   8.351  0.4129  0.1815 -0.9803
  139SAPE  H13S15148   2.052   5.820   8.210  0.5875  2.1357 -1.8806
  139SAPE  C21415149   2.247   5.911   8.177 -0.2254 -0.2448  0.1330
  139SAPE  H14R15150   2.331   5.955   8.232 -1.2179  2.1146 -0.1248
  139SAPE  C21515151   2.244   5.943   8.046 -0.2670  0.2289 -0.0067
  139SAPE  H15R15152   2.332   5.993   8.002  1.1427 -2.6582 -0.6661
  139SAPE  C21615153   2.130   5.898   7.963  0.4398  0.0083  0.7366
  139SAPE  H16R15154   2.098   5.795   7.992  1.6309  0.0946  2.5524
  139SAPE  H16S15155   2.161   5.888   7.857 -0.6328  1.1993  0.2952
  139SAPE  C21715156   2.006   5.987   7.953  0.3504  0.0805 -0.1222
  139SAPE  H17R15157   1.970   5.994   8.058  1.4579 -0.3434  0.2936
  139SAPE  H17S15158   1.928   5.929   7.899  1.4791 -1.3358 -0.2747
  139SAPE  C21815159   2.026   6.120   7.898  0.2557  0.0647 -0.0058
  139SAPE  H18R15160   2.022   6.108   7.788  1.7376 -4.4022  0.1960
  139SAPE  H18S15161   2.121   6.166   7.935 -1.2480  2.2220  1.4072
  139SAPE  C21915162   1.915   6.219   7.937 -0.0026 -0.0323 -0.3058
  139SAPE  H19R15163   1.935   6.320   7.895  0.5539  0.0172  0.0627
  139SAPE  H19S15164   1.922   6.234   8.047 -0.8139 -0.4991 -0.1799
  139SAPE  C22015165   1.773   6.169   7.902  0.7602  0.1480  0.6946
  139SAPE  H20R15166   1.701   6.240   7.949 -1.7644 -1.2952 -0.7702
  139SAPE  H20S15167   1.756   6.076   7.961  1.2463  1.4376  2.9793
  139SAPE  H20T15168   1.747   6.171   7.794 -4.4340  0.6582  1.7080
  139SAPE   C3315169   2.448   6.076   9.195 -0.1786  0.9052  0.6568
  139SAPE   H3X15170   2.443   5.966   9.188  2.4208  0.8166 -1.8008
  139SAPE   H3Y15171   2.556   6.101   9.194  0.1262 -0.2251  2.1066
  139SAPE   C3415172   2.381   6.124   9.072  0.4827 -0.5748  0.5906
  139SAPE   H4X15173   2.365   6.234   9.070 -0.7736 -0.6990 -2.4037
  139SAPE   H4Y15174   2.279   6.079   9.071  1.3154 -2.5782  0.1724
  139SAPE   C3515175   2.459   6.098   8.936  0.0860  0.6947 -0.4266
  139SAPE   H5X15176   2.460   5.988   8.927 -0.4850  0.5706  0.8703
  139SAPE   H5Y15177   2.564   6.134   8.949  0.2899 -0.4091  1.1307
  139SAPE   C3615178   2.392   6.160   8.814 -0.4748  0.7380  0.7642
  139SAPE   H6X15179   2.368   6.266   8.836  1.7129  1.5238 -0.2867
  139SAPE   H6Y15180   2.295   6.116   8.785 -0.4482 -0.9789  3.0289
  139SAPE   C3715181   2.484   6.166   8.687  0.7882  0.6546  0.0671
  139SAPE   H7X15182   2.591   6.189   8.709  1.0614  0.1877 -0.7382
  139SAPE   H7Y15183   2.438   6.246   8.626 -0.3835 -0.2775 -0.2958
  139SAPE   C3815184   2.468   6.045   8.594  0.2649  0.5708  0.2759
  139SAPE   H8X15185   2.362   6.024   8.567  0.8974 -2.4586 -0.2765
  139SAPE   H8Y15186   2.499   5.952   8.647 -0.1122 -0.4571 -1.2203
  139SAPE   C3915187   2.555   6.031   8.468 -0.1652 -0.5897 -0.7196
  139SAPE   H9X15188   2.514   5.941   8.417 -4.4578  0.8335 -0.2236
  139SAPE   H9Y15189   2.661   6.008   8.487  0.3530 -1.9720 -4.4749
  139SAPE  C31015190   2.553   6.144   8.358 -0.1568 -0.3824  0.2205
  139SAPE  H10X15191   2.566   6.239   8.413  0.5705  0.9076 -2.0360
  139SAPE  H10Y15192   2.451   6.149   8.314 -0.2719  1.1740  0.6131
  139SAPE  C31115193   2.663   6.129   8.254 -0.5586 -0.2148 -0.4989
  139SAPE  H11X15194   2.758   6.157   8.304 -1.4343  2.5590 -0.2379
  139SAPE  H11Y15195   2.642   6.197   8.169 -1.3997 -1.0846 -1.0179
  139SAPE  C31215196   2.680   5.990   8.191 -0.0005  0.0688 -0.3052
  139SAPE  H12X15197   2.579   5.963   8.153 -0.9243  0.2454  1.9172
  139SAPE  H12Y15198   2.714   5.927   8.276 -0.4684  1.3439  0.8675
  139SAPE  C31315199   2.781   5.977   8.077 -0.2040 -0.6315 -0.0702
  139SAPE  H13X15200   2.887   5.986   8.110  0.6994  0.1030 -2.9109
  139SAPE  H13Y15201   2.769   6.056   8.001  0.1357 -0.1391  0.3805
  139SAPE  C31415202   2.779   5.841   8.006  0.1575  0.0588  0.8181
  139SAPE  H14X15203   2.679   5.824   7.962  0.3168 -1.5721  1.0046
  139SAPE  H14Y15204   2.801   5.768   8.087  1.6736 -0.3809  0.0602
  139SAPE  C31515205   2.890   5.823   7.903 -0.6652  0.6012  0.7299
  139SAPE  H15X15206   2.986   5.845   7.955 -1.2379  0.6122  1.7935
  139SAPE  H15Y15207   2.882   5.906   7.829 -3.6829 -2.1282 -2.3233
  139SAPE  C31615208   2.874   5.697   7.814 -0.0716 -0.2966  0.0007
  139SAPE  H16X15209   2.845   5.608   7.873 -1.3447 -1.5075 -2.3234
  139SAPE  H16Y15210   2.779   5.716   7.758 -0.0825 -0.0648  0.0952
  139SAPE  C31715211   2.995   5.654   7.728  0.3290 -0.0935 -0.1133
  139SAPE  H17X15212   3.072   5.624   7.803  0.0775 -3.7968 -1.1542
  139SAPE  H17Y15213   3.030   5.736   7.662  0.2082 -0.7295 -0.9779
  139SAPE  C31815214   2.964   5.535   7.635 -0.6601  0.6483 -0.9556
  139SAPE  H18X15215   3.058   5.512   7.582 -0.2611 -0.7203  0.2732
  139SAPE  H18Y15216   2.887   5.573   7.564  0.1791  2.4360 -0.9474
  139SAPE  H18Z15217   2.928   5.459   7.708  0.6582  0.3511 -0.5900
  140SAPE     N15218   5.090   1.041   9.615 -0.0319 -1.0426 -0.5641
  140SAPE   HN115219   5.039   1.052   9.525 -1.1731  2.3601  0.3488
  140SAPE   HN215220   5.180   0.989   9.607  1.7760  1.8307 -0.1917
  140SAPE   HN315221   5.023   1.000   9.682 -0.3478 -0.6634 -0.6470
  140SAPE   C1215222   5.140   1.181   9.659 -0.3934  0.0681  0.0644
  140SAPE  H12A15223   5.076   1.233   9.733  0.1813  2.0443 -0.7569
  140SAPE  H12B15224   5.143   1.239   9.564  2.3741  0.6362  0.4140
  140SAPE   C1115225   5.283   1.174   9.728  0.6069  0.5433  0.5787
  140SAPE  H11A15226   5.271   1.090   9.800 -3.7342  0.7022  0.3156
  140SAPE  H11B15227   5.304   1.268   9.784  2.2273  1.2505 -1.1265
  140SAPE     P15228   5.447   1.255   9.537 -0.1372  0.1008  0.0569
  140SAPE   O1315229   5.366   1.378   9.534 -0.7303 -0.3960 -0.0558
  140SAPE   O1415230   5.590   1.268   9.582 -0.0465 -0.2451  0.5265
  140SAPE   O1215231   5.379   1.145   9.627 -0.2664 -0.3322 -0.5829
  140SAPE   O1115232   5.443   1.188   9.393 -0.1024  0.5521  0.6449
  140SAPE    C115233   5.325   1.140   9.333  0.0266  0.1888 -0.7512
  140SAPE    HA15234   5.306   1.033   9.358  0.2944  0.5898  1.2718
  140SAPE    HB15235   5.230   1.187   9.365  0.3428 -0.2602  0.9392
  140SAPE    C215236   5.341   1.145   9.175  0.8627 -0.1290 -0.1609
  140SAPE    HS15237   5.244   1.119   9.128  0.4103  0.4005  0.4732
  140SAPE   O2115238   5.444   1.051   9.157  0.2346 -0.0064  0.1950
  140SAPE   C2115239   5.445   0.996   9.042 -0.2877  0.6163  0.6240
  140SAPE   O2215240   5.384   1.021   8.943  0.8472  0.2164  0.0506
  140SAPE   C2215241   5.544   0.878   9.055  0.2549 -0.5140  0.0702
  140SAPE   H2R15242   5.635   0.921   9.102  0.0800 -0.5666  0.4617
  140SAPE   H2S15243   5.497   0.803   9.121 -2.1448 -0.0109 -0.9526
  140SAPE    C315244   5.387   1.287   9.145 -0.3674  0.9142  0.5207
  140SAPE    HX15245   5.491   1.310   9.179  0.6841  0.4879 -2.1749
  140SAPE    HY15246   5.307   1.344   9.196 -1.8978  0.0662 -0.8496
  140SAPE   O3115247   5.365   1.314   9.001 -0.9020  0.1809 -0.6556
  140SAPE   C3115248   5.478   1.318   8.925  0.4404 -0.1532  0.0142
  140SAPE   O3215249   5.593   1.323   8.967 -1.1910 -0.2578 -0.2716
  140SAPE   C3215250   5.434   1.320   8.776  0.3311  0.1441 -0.4214
  140SAPE   H2X15251   5.434   1.425   8.741 -2.9012  0.7766  1.0797
  140SAPE   H2Y15252   5.333   1.274   8.771 -0.1417  1.0582  0.4204
  140SAPE   C2315253   5.593   0.828   8.917 -0.4418  0.8302 -0.1584
  140SAPE   H3R15254   5.614   0.912   8.848 -0.1370 -0.4867 -1.7136
  140SAPE   H3S15255   5.522   0.757   8.869 -1.1454  2.0918 -1.0370
  140SAPE   C2415256   5.729   0.760   8.934 -0.7290 -0.3890  0.3252
  140SAPE   H4R15257   5.807   0.838   8.941  0.9267 -1.8945 -0.6067
  140SAPE   H4S15258   5.755   0.706   8.840 -0.1485  0.7966 -0.2128
  140SAPE   C2515259   5.726   0.658   9.054 -0.0390  0.5540  0.5759
  140SAPE   H5R15260   5.758   0.703   9.149  2.4885 -0.4000  0.2726
  140SAPE   C2615261   5.688   0.532   9.045 -0.3538  0.7389  0.1794
  140SAPE   H6R15262   5.674   0.481   9.141  0.7624  3.1126  1.6722
  140SAPE   C2715263   5.659   0.458   8.912  0.2298 -1.1752 -1.0406
  140SAPE   H7R15264   5.690   0.353   8.933 -1.3528 -1.3889  0.4987
  140SAPE   H7S15265   5.728   0.499   8.835  1.9771 -1.5672  0.2422
  140SAPE   C2815266   5.518   0.468   8.869  0.8316  0.8085 -0.4013
  140SAPE   H8R15267   5.467   0.559   8.903 -0.9351  0.2072 -1.3307
  140SAPE   C2915268   5.434   0.371   8.813 -0.5254 -0.1070  0.0451
  140SAPE   H9R15269   5.330   0.400   8.792 -0.4196  1.0894  1.0279
  140SAPE  C21015270   5.486   0.233   8.779 -0.3323 -0.3702 -0.6976
  140SAPE  H10R15271   5.589   0.208   8.814  0.0040  0.9322 -0.7052
  140SAPE  H10S15272   5.476   0.214   8.670  0.3633 -0.5531 -0.7395
  140SAPE  C21115273   5.412   0.136   8.864  0.0152 -0.0965  0.4178
  140SAPE  H11R15274   5.407   0.156   8.972  0.1565 -0.2507  0.4534
  140SAPE  C21215275   5.363   0.019   8.814  0.6774 -0.4192  0.2719
  140SAPE  H12R15276   5.308  -0.043   8.887  1.6343 -1.3257  0.2558
  140SAPE  C21315277   5.366  -0.054   8.684 -0.2685  0.4823  0.3080
  140SAPE  H13R15278   5.421  -0.150   8.689 -0.1599  0.1046 -4.3163
  140SAPE  H13S15279   5.422   0.012   8.615  0.2459  0.9247  1.1292
  140SAPE  C21415280   5.232  -0.080   8.628  1.0579 -0.7505 -0.2161
  140SAPE  H14R15281   5.196  -0.184   8.627 -1.9233  0.1746 -0.9068
  140SAPE  C21515282   5.134   0.010   8.595 -0.1549  0.4464  0.1824
  140SAPE  H15R15283   5.031  -0.024   8.573 -0.5336  0.0578  2.3681
  140SAPE  C21615284   5.141   0.164   8.584  0.3991  0.6000  0.0318
  140SAPE  H16R15285   5.186   0.197   8.488  0.5336 -0.7821 -0.4055
  140SAPE  H16S15286   5.218   0.194   8.659 -0.4651 -1.3430  1.8030
  140SAPE  C21715287   5.003   0.234   8.610 -0.1983  0.0617  0.1013
  140SAPE  H17R15288   4.921   0.203   8.542 -1.0185  0.1062  1.0587
  140SAPE  H17S15289   5.028   0.333   8.566 -0.6120  0.9148  1.7112
  140SAPE  C21815290   4.969   0.250   8.759 -0.6608 -0.1367 -0.5366
  140SAPE  H18R15291   4.951   0.148   8.799 -3.4541  0.3814 -0.2993
  140SAPE  H18S15292   4.872   0.304   8.771 -0.3296  0.5938 -1.0633
  140SAPE  C21915293   5.065   0.334   8.835 -0.0950  0.4216  0.3731
  140SAPE  H19R15294   5.112   0.411   8.769 -0.7170  0.5740  0.1073
  140SAPE  H19S15295   5.151   0.273   8.869 -1.8002 -1.3864  1.5915
  140SAPE  C22015296   4.994   0.395   8.952  0.0998 -0.4680  0.3556
  140SAPE  H20R15297   4.925   0.476   8.919 -0.6796 -0.8280  1.0660
  140SAPE  H20S15298   5.084   0.426   9.008  1.5583  0.1528 -2.1509
  140SAPE  H20T15299   4.931   0.319   9.003 -0.0516 -0.9128 -0.4767
  140SAPE   C3315300   5.543   1.252   8.696 -1.3239 -0.2057  0.7079
  140SAPE   H3X15301   5.573   1.149   8.723 -0.0835  0.2476  1.1511
  140SAPE   H3Y15302   5.638   1.311   8.698 -1.6697  0.6861 -2.6705
  140SAPE   C3415303   5.507   1.236   8.545 -0.3583 -0.1958  0.4548
  140SAPE   H4X15304   5.596   1.193   8.493  0.1616  0.0552  1.1153
  140SAPE   H4Y15305   5.481   1.335   8.503 -1.3572  0.4728  2.4950
  140SAPE   C3515306   5.386   1.151   8.515  0.7844  0.3823  0.9663
  140SAPE   H5X15307   5.301   1.188   8.575  1.4142  3.6413  0.0421
  140SAPE   H5Y15308   5.419   1.049   8.545  0.5690  0.3090  0.9495
  140SAPE   C3615309   5.352   1.161   8.366  0.2307 -0.1643 -0.8827
  140SAPE   H6X15310   5.449   1.153   8.313  0.4769 -1.1023 -0.3217
  140SAPE   H6Y15311   5.312   1.264   8.353  0.6731  0.2786  0.9222
  140SAPE   C3715312   5.243   1.058   8.323  0.1609  0.0101  0.8949
  140SAPE   H7X15313   5.154   1.086   8.383 -0.4951  0.0654 -0.0854
  140SAPE   H7Y15314   5.280   0.956   8.345  0.2858 -0.2456 -0.4245
  140SAPE   C3815315   5.220   1.067   8.177 -0.3676 -0.3842 -0.9068
  140SAPE   H8X15316   5.317   1.073   8.123  1.4366  1.2938  2.2594
  140SAPE   H8Y15317   5.164   1.161   8.161  0.0597 -0.1112 -0.8130
  140SAPE   C3915318   5.125   0.958   8.121 -0.4327 -0.2001 -0.5122
  140SAPE   H9X15319   5.082   1.003   8.029 -2.8903  0.4914  0.8842
  140SAPE   H9Y15320   5.041   0.917   8.181 -0.0092 -0.8965 -0.3780
  140SAPE  C31015321   5.199   0.843   8.051 -0.9490 -0.6162  0.1779
  140SAPE  H10X15322   5.303   0.865   8.017 -1.3696 -1.6084 -1.8916
  140SAPE  H10Y15323   5.140   0.814   7.962 -0.8513 -1.0766  0.2568
  140SAPE  C31115324   5.207   0.719   8.148 -1.0325 -0.7412  0.1781
  140SAPE  H11X15325   5.102   0.700   8.180 -1.3236  2.0753  1.2209
  140SAPE  H11Y15326   5.269   0.754   8.232 -2.9453  4.4092 -0.1715
  140SAPE  C31215327   5.287   0.602   8.085 -0.4718  0.2121 -0.1220
  140SAPE  H12X15328   5.384   0.643   8.051 -1.0644  0.0847 -2.1264
  140SAPE  H12Y15329   5.233   0.564   7.995 -0.1178 -1.1204  0.2077
  140SAPE  C31315330   5.322   0.487   8.180 -0.1367 -0.4444  0.2838
  140SAPE  H13X15331   5.395   0.513   8.259 -0.2336 -1.7246  0.8179
  140SAPE  H13Y15332   5.365   0.402   8.123 -1.8405 -0.3178 -1.3149
  140SAPE  C31415333   5.193   0.437   8.251 -0.2471 -0.3879  0.9188
  140SAPE  H14X15334   5.152   0.508   8.326 -2.0196 -1.4992  1.0512
  140SAPE  H14Y15335   5.232   0.351   8.310 -1.7322 -0.9384  1.1475
  140SAPE  C31515336   5.076   0.383   8.162  0.5008  0.2485 -0.0814
  140SAPE  H15X15337   5.022   0.466   8.112  0.0181 -0.6912 -1.1720
  140SAPE  H15Y15338   5.005   0.335   8.233  0.5740  1.0841  0.5615
  140SAPE  C31615339   5.131   0.280   8.068 -0.1205 -0.3653 -0.1470
  140SAPE  H16X15340   5.175   0.197   8.127 -0.1759  1.4275  2.6337
  140SAPE  H16Y15341   5.211   0.335   8.015 -1.3209 -0.5159 -2.2174
  140SAPE  C31715342   5.024   0.231   7.974  0.0178  0.0355  1.0771
  140SAPE  H17X15343   4.982   0.322   7.928  2.8861  0.7331 -0.4064
  140SAPE  H17Y15344   4.944   0.189   8.038 -1.0528 -1.8915 -1.3817
  140SAPE  C31815345   5.056   0.124   7.869  0.3796  0.3293  0.0595
  140SAPE  H18X15346   5.148   0.141   7.809 -0.8834  0.3682 -1.9529
  140SAPE  H18Y15347   4.979   0.099   7.793 -0.0367 -2.3575  1.2768
  140SAPE  H18Z15348   5.072   0.032   7.929  0.1648 -0.2496 -0.7507
  141SAPE     N15349   6.970   2.585   9.597 -0.2877  0.7058 -0.6944
  141SAPE   HN115350   6.993   2.512   9.526  1.5364 -2.0199  2.4178
  141SAPE   HN215351   7.021   2.567   9.686 -0.8656  1.1922 -0.2577
  141SAPE   HN315352   6.868   2.577   9.613  0.2693 -0.5686  3.2135
  141SAPE   C1215353   7.003   2.723   9.549 -0.1748  0.1235  0.2582
  141SAPE  H12A15354   6.941   2.744   9.459  0.0934 -1.6201 -0.3797
  141SAPE  H12B15355   7.109   2.726   9.516 -1.0496 -0.9176 -3.0282
  141SAPE   C1115356   6.978   2.824   9.667 -0.0687 -0.4940 -0.0108
  141SAPE  H11A15357   6.993   2.926   9.624 -1.3151  0.3774  1.5300
  141SAPE  H11B15358   7.066   2.808   9.733  1.3536  2.1474 -1.1203
  141SAPE     P15359   6.722   2.829   9.681  0.1107 -0.0096 -0.2409
  141SAPE   O1315360   6.622   2.817   9.791 -0.1765 -0.3465  0.2432
  141SAPE   O1415361   6.723   2.961   9.601  0.0927  0.5019  0.5519
  141SAPE   O1215362   6.859   2.806   9.747  0.1721  0.5277 -0.4153
  141SAPE   O1115363   6.705   2.711   9.579 -0.5324 -0.0415 -1.1323
  141SAPE    C115364   6.567   2.672   9.559  0.2688  0.2688  0.6035
  141SAPE    HA15365   6.553   2.599   9.641 -0.2634 -0.3998 -0.0557
  141SAPE    HB15366   6.490   2.752   9.570 -0.1619 -0.4126  3.1412
  141SAPE    C215367   6.565   2.595   9.428  0.3203  0.2566  0.0869
  141SAPE    HS15368   6.653   2.527   9.432  0.7556  0.8766  1.6680
  141SAPE   O2115369   6.575   2.693   9.320  0.3674  0.3308 -0.0428
  141SAPE   C2115370   6.638   2.655   9.211  0.5677  0.1841  0.1864
  141SAPE   O2215371   6.678   2.541   9.192  0.6473 -0.1002 -0.0931
  141SAPE   C2215372   6.637   2.771   9.112 -0.0319  0.2279  0.3567
  141SAPE   H2R15373   6.595   2.859   9.166 -0.7807  1.1465 -1.6366
  141SAPE   H2S15374   6.742   2.796   9.087  0.3713  0.5347  2.1871
  141SAPE    C315375   6.444   2.497   9.393  0.1758  0.5017  0.1320
  141SAPE    HX15376   6.438   2.436   9.485 -0.4853  0.7451  0.2560
  141SAPE    HY15377   6.475   2.425   9.314 -1.0196 -0.5051  0.5495
  141SAPE   O3115378   6.329   2.566   9.359 -0.8995  0.3430 -0.8899
  141SAPE   C3115379   6.254   2.509   9.266 -0.8272  0.1178  0.4082
  141SAPE   O3215380   6.257   2.396   9.224  0.7060  0.6890 -0.0118
  141SAPE   C3215381   6.153   2.612   9.216  0.1750  0.1954  0.6405
  141SAPE   H2X15382   6.211   2.706   9.209 -0.7892  0.7147 -1.0486
  141SAPE   H2Y15383   6.074   2.619   9.293 -1.3515  0.6871 -0.9047
  141SAPE   C2315384   6.564   2.725   8.990 -0.4531 -0.0637  0.2548
  141SAPE   H3R15385   6.461   2.694   9.014 -1.3004  1.2256 -1.4612
  141SAPE   H3S15386   6.616   2.636   8.948  0.9236  0.1147  1.4948
  141SAPE   C2415387   6.561   2.828   8.877 -0.0178 -0.4477  0.6732
  141SAPE   H4R15388   6.524   2.784   8.782 -1.3841 -1.7125  1.7303
  141SAPE   H4S15389   6.665   2.855   8.847 -1.0773  1.1555 -1.8730
  141SAPE   C2515390   6.477   2.940   8.929  0.2368  0.0173 -0.2104
  141SAPE   H5R15391   6.469   2.944   9.038 -0.2621  0.9683 -0.2720
  141SAPE   C2615392   6.424   3.032   8.855  0.1104 -0.2315  0.8188
  141SAPE   H6R15393   6.365   3.116   8.895 -1.2841 -0.5596 -0.4321
  141SAPE   C2715394   6.440   3.050   8.711  0.0204 -0.2570  0.5675
  141SAPE   H7R15395   6.542   3.019   8.680 -0.1944 -0.0659 -0.3656
  141SAPE   H7S15396   6.450   3.160   8.706 -0.1312 -0.1310  2.5154
  141SAPE   C2815397   6.339   3.004   8.605 -0.0742  0.7674  0.0642
  141SAPE   H8R15398   6.240   2.982   8.645  0.4617 -1.1109  0.4330
  141SAPE   C2915399   6.358   2.979   8.473  0.0445  0.1731  0.6871
  141SAPE   H9R15400   6.272   2.957   8.408  0.3548  2.0212 -0.4462
  141SAPE  C21015401   6.487   2.978   8.393 -0.3745  0.0142 -0.4095
  141SAPE  H10R15402   6.554   3.056   8.434 -1.2693  0.7428 -0.3211
  141SAPE  H10S15403   6.468   3.001   8.286  0.4475 -0.3317 -0.6428
  141SAPE  C21115404   6.557   2.844   8.402  0.1562  0.3079 -0.2877
  141SAPE  H11R15405   6.579   2.798   8.500  1.2148 -2.7246 -1.8366
  141SAPE  C21215406   6.616   2.777   8.308 -0.3200  0.1746 -0.5909
  141SAPE  H12R15407   6.651   2.680   8.347  0.0368  0.5089 -0.0709
  141SAPE  C21315408   6.621   2.807   8.155 -0.7290  0.1293 -0.6577
  141SAPE  H13R15409   6.714   2.867   8.138 -1.3971  1.3428 -0.1536
  141SAPE  H13S15410   6.533   2.867   8.124 -0.1831  0.7598 -1.0379
  141SAPE  C21415411   6.628   2.683   8.066  0.0481 -0.0593  0.1841
  141SAPE  H14R15412   6.532   2.630   8.052  1.7884 -3.7651  1.0429
  141SAPE  C21515413   6.741   2.628   8.030 -0.0696  0.3828  0.3417
  141SAPE  H15R15414   6.731   2.537   7.968  1.0733  0.2621  0.3155
  141SAPE  C21615415   6.884   2.682   8.036 -0.2390 -0.1723 -0.1040
  141SAPE  H16R15416   6.922   2.649   8.135 -2.2245 -1.4178  0.2855
  141SAPE  H16S15417   6.873   2.790   8.057 -2.0300 -0.1553 -0.9288
  141SAPE  C21715418   6.978   2.660   7.913  0.3880  0.1422 -0.0913
  141SAPE  H17R15419   6.920   2.712   7.833 -3.7205 -1.3680  1.6547
  141SAPE  H17S15420   6.976   2.550   7.906 -2.6143  0.1260 -0.1777
  141SAPE  C21815421   7.121   2.718   7.921  0.2506  0.6252 -0.3464
  141SAPE  H18R15422   7.159   2.695   7.819 -0.8880 -1.3547 -0.3870
  141SAPE  H18S15423   7.168   2.647   7.993  0.2347  2.0846  1.1477
  141SAPE  C21915424   7.125   2.871   7.946  0.1718 -0.4094 -0.1286
  141SAPE  H19R15425   7.125   2.898   8.054 -0.0225 -0.3822 -0.1352
  141SAPE  H19S15426   7.042   2.924   7.894  1.5307  0.8873 -1.0628
  141SAPE  C22015427   7.255   2.922   7.883  0.4416 -0.4686 -0.2666
  141SAPE  H20R15428   7.341   2.871   7.931  1.3412 -1.6461 -2.9346
  141SAPE  H20S15429   7.259   3.033   7.884  2.9098 -0.4689 -1.5790
  141SAPE  H20T15430   7.272   2.880   7.782 -0.4625 -0.2858 -0.5003
  141SAPE   C3315431   6.090   2.572   9.082  0.4266  0.2374  0.4318
  141SAPE   H3X15432   5.999   2.630   9.053 -0.5464 -2.4760 -2.5412
  141SAPE   H3Y15433   6.052   2.468   9.074  1.7036 -0.1889 -0.2635
  141SAPE   C3415434   6.190   2.601   8.972 -0.0463 -0.3451 -0.2665
  141SAPE   H4X15435   6.288   2.557   9.002 -0.6488 -0.9650  0.8433
  141SAPE   H4Y15436   6.196   2.712   8.963 -1.7372 -0.2694 -0.7728
  141SAPE   C3515437   6.170   2.525   8.837  0.1045 -0.0946 -0.8113
  141SAPE   H5X15438   6.074   2.560   8.794  0.3967  0.7796 -0.7776
  141SAPE   H5Y15439   6.170   2.415   8.853  0.3988 -0.1255 -1.0133
  141SAPE   C3615440   6.286   2.550   8.744  0.7370  0.1572  0.0691
  141SAPE   H6X15441   6.374   2.498   8.788  0.1534 -0.8201  0.1148
  141SAPE   H6Y15442   6.310   2.658   8.733 -0.2506  0.4099  0.2625
  141SAPE   C3715443   6.266   2.484   8.607 -0.1928 -0.6751 -0.4603
  141SAPE   H7X15444   6.183   2.538   8.559  2.1592  2.0588 -1.7334
  141SAPE   H7Y15445   6.228   2.381   8.625  0.7012 -1.2156 -1.5423
  141SAPE   C3815446   6.407   2.494   8.536  0.6147  0.5493 -0.5695
  141SAPE   H8X15447   6.464   2.412   8.586 -2.0628 -0.4879  1.0087
  141SAPE   H8Y15448   6.455   2.588   8.571 -0.3835  0.9007 -0.1043
  141SAPE   C3915449   6.405   2.492   8.380 -0.4295  0.1390 -0.9204
  141SAPE   H9X15450   6.501   2.513   8.328 -0.6801  0.9770 -1.0608
  141SAPE   H9Y15451   6.335   2.574   8.353 -1.8301  0.0779  2.1639
  141SAPE  C31015452   6.372   2.355   8.312 -0.1076  0.4440  0.3944
  141SAPE  H10X15453   6.291   2.306   8.370  1.1042 -1.7950  0.3015
  141SAPE  H10Y15454   6.456   2.287   8.337 -0.1330  0.6340  1.0195
  141SAPE  C31115455   6.340   2.369   8.164 -0.4020  0.2337  0.1266
  141SAPE  H11X15456   6.412   2.418   8.094 -0.5763 -0.8137 -0.8064
  141SAPE  H11Y15457   6.252   2.436   8.155 -0.6030 -0.0960 -0.4036
  141SAPE  C31215458   6.295   2.231   8.110 -0.0293 -0.5307 -0.2906
  141SAPE  H12X15459   6.379   2.160   8.120  0.5997  0.3489  0.7820
  141SAPE  H12Y15460   6.273   2.244   8.001 -0.5377 -1.0877 -0.2639
  141SAPE  C31315461   6.167   2.166   8.173 -0.1089  0.7164  0.6189
  141SAPE  H13X15462   6.085   2.241   8.168 -0.4739  0.3396  0.8506
  141SAPE  H13Y15463   6.179   2.141   8.280  0.4367 -2.0270  0.0013
  141SAPE  C31415464   6.121   2.023   8.119  0.0448 -0.8355 -0.2843
  141SAPE  H14X15465   6.121   2.029   8.008 -1.6942  0.5263 -0.2529
  141SAPE  H14Y15466   6.015   2.009   8.150 -0.5156  0.2491 -1.5942
  141SAPE  C31515467   6.222   1.922   8.164  0.1243 -0.2743 -0.0673
  141SAPE  H15X15468   6.216   1.908   8.274  1.1442 -1.5704 -0.1567
  141SAPE  H15Y15469   6.326   1.944   8.133 -0.2386 -0.6066 -1.6534
  141SAPE  C31615470   6.190   1.775   8.125 -0.1865  0.6103 -0.0414
  141SAPE  H16X15471   6.283   1.717   8.145 -1.0143 -0.3747  1.0510
  141SAPE  H16Y15472   6.169   1.773   8.016  0.1336  0.4468 -0.1018
  141SAPE  C31715473   6.070   1.699   8.184  0.0384  0.3795  0.2351
  141SAPE  H17X15474   6.059   1.606   8.124  0.9227  2.2198 -3.0634
  141SAPE  H17Y15475   5.980   1.757   8.153  1.6556  2.9384  0.0322
  141SAPE  C31815476   6.068   1.674   8.338  0.1238 -0.2052 -0.5616
  141SAPE  H18X15477   5.978   1.614   8.367 -1.4729  1.4307 -1.8605
  141SAPE  H18Y15478   6.059   1.769   8.395  1.2998 -0.8030  0.6657
  141SAPE  H18Z15479   6.159   1.624   8.377  0.8131  0.6532 -1.0391
  142SAPE     N15480   6.705   1.957   9.984 -0.4958  0.4790  0.3693
  142SAPE   HN115481   6.727   1.898   9.901 -2.0637  1.3464 -0.6944
  142SAPE   HN215482   6.787   2.021   9.989 -1.1776  1.3969  0.0664
  142SAPE   HN315483   6.716   1.898  10.069  1.0885 -0.4477 -0.4363
  142SAPE   C1215484   6.581   2.031   9.961  0.8735  0.3679 -0.2716
  142SAPE  H12A15485   6.553   2.106  10.038  1.7515 -0.5364  0.9729
  142SAPE  H12B15486   6.501   1.954   9.955  1.3052  0.0434 -2.6056
  142SAPE   C1115487   6.574   2.098   9.811 -0.1867  0.1432 -0.0143
  142SAPE  H11A15488   6.471   2.139   9.809 -0.4258 -0.4836 -1.8076
  142SAPE  H11B15489   6.585   2.012   9.743 -1.1961 -1.5161  1.8148
  142SAPE     P15490   6.656   2.347   9.736 -0.2623  0.1063  0.2056
  142SAPE   O1315491   6.521   2.392   9.764  0.2418  0.4157  0.1972
  142SAPE   O1415492   6.773   2.429   9.778  0.1560 -0.1458  0.0697
  142SAPE   O1215493   6.676   2.204   9.790 -0.5470  0.5036 -0.2826
  142SAPE   O1115494   6.670   2.315   9.584 -0.0772 -0.4278 -0.2730
  142SAPE    C115495   6.807   2.294   9.534 -0.0153  0.0171  0.2107
  142SAPE    HA15496   6.825   2.369   9.454  3.2632 -0.5894  0.2427
  142SAPE    HB15497   6.891   2.297   9.606 -1.3257 -0.4934  1.8021
  142SAPE    C215498   6.808   2.167   9.454  0.4104  0.1473  1.2574
  142SAPE    HS15499   6.912   2.137   9.431  0.4611  1.0377  0.2385
  142SAPE   O2115500   6.727   2.177   9.330 -0.2443  0.7156  0.0623
  142SAPE   C2115501   6.791   2.199   9.219 -0.6015 -0.0054 -0.2093
  142SAPE   O2215502   6.910   2.222   9.204 -0.1544  0.1971  0.1820
  142SAPE   C2215503   6.683   2.168   9.117 -0.2634  0.3270  0.1035
  142SAPE   H2R15504   6.620   2.085   9.154 -0.7697  0.2631 -0.8765
  142SAPE   H2S15505   6.628   2.261   9.093 -0.0602  0.1587 -1.0894
  142SAPE    C315506   6.742   2.049   9.528 -0.1533 -0.0717  0.3624
  142SAPE    HX15507   6.632   2.065   9.520 -0.1430 -0.7345 -2.1020
  142SAPE    HY15508   6.783   2.057   9.631 -2.0823 -0.1190  1.1710
  142SAPE   O3115509   6.793   1.921   9.481  1.0172 -0.1907 -0.1166
  142SAPE   C3115510   6.725   1.864   9.380  0.5771 -0.5655 -0.5408
  142SAPE   O3215511   6.619   1.912   9.341 -0.2535 -0.1882 -0.1580
  142SAPE   C3215512   6.797   1.741   9.329 -0.0797 -0.8623  1.0999
  142SAPE   H2X15513   6.727   1.666   9.287 -0.1575 -0.6668  0.8782
  142SAPE   H2Y15514   6.853   1.692   9.412  2.8288 -1.8404 -1.2616
  142SAPE   C2315515   6.747   2.113   8.980 -0.1479 -0.0629 -0.4269
  142SAPE   H3R15516   6.830   2.042   9.002  0.4869  0.6751 -0.4203
  142SAPE   H3S15517   6.796   2.194   8.921  0.6346  0.5498  1.0203
  142SAPE   C2415518   6.639   2.049   8.888 -0.3398 -0.0439 -0.2977
  142SAPE   H4R15519   6.581   1.984   8.957 -1.4556  3.9161  2.8973
  142SAPE   H4S15520   6.698   1.976   8.828  0.9521 -0.0351  0.9157
  142SAPE   C2515521   6.565   2.157   8.815  0.2936 -0.2172  0.0595
  142SAPE   H5R15522   6.616   2.220   8.742  1.1508  0.8814  1.5384
  142SAPE   C2615523   6.430   2.186   8.825  0.4188  0.4669 -0.8083
  142SAPE   H6R15524   6.384   2.241   8.742 -2.5465 -1.8074 -0.8581
  142SAPE   C2715525   6.338   2.108   8.917  0.7711 -0.3210  0.4870
  142SAPE   H7R15526   6.376   2.086   9.019 -3.2462 -1.6519  1.9109
  142SAPE   H7S15527   6.326   2.015   8.858  0.5005 -0.3687  0.6166
  142SAPE   C2815528   6.197   2.165   8.925 -0.5859 -1.1124 -0.1879
  142SAPE   H8R15529   6.198   2.262   8.977  0.4332 -0.6536 -1.0217
  142SAPE   C2915530   6.082   2.121   8.866 -0.1847 -0.6556 -0.6983
  142SAPE   H9R15531   5.987   2.171   8.891  0.5865  0.5620 -0.0980
  142SAPE  C21015532   6.054   1.988   8.797  0.5486 -0.0953 -0.5389
  142SAPE  H10R15533   6.143   1.931   8.761  0.4719 -1.8214  1.8040
  142SAPE  H10S15534   6.010   2.016   8.699 -1.5736 -0.3029  0.3136
  142SAPE  C21115535   5.957   1.901   8.865  0.0252  0.7696  0.6081
  142SAPE  H11R15536   5.975   1.894   8.973 -0.2828  0.6375  0.6492
  142SAPE  C21215537   5.884   1.800   8.813 -0.5557 -0.5384 -0.6740
  142SAPE  H12R15538   5.815   1.743   8.877  1.0100 -0.0695  1.5303
  142SAPE  C21315539   5.866   1.782   8.667 -0.3536 -0.0416  0.0928
  142SAPE  H13R15540   5.963   1.777   8.612 -0.5074 -2.5394 -0.0386
  142SAPE  H13S15541   5.814   1.867   8.618 -1.1577 -0.4854  0.1728
  142SAPE  C21415542   5.796   1.649   8.642 -0.1717 -0.1813  0.8059
  142SAPE  H14R15543   5.825   1.571   8.713  1.1743 -0.2462  0.2101
  142SAPE  C21515544   5.702   1.625   8.544 -0.1295  0.5345  0.1954
  142SAPE  H15R15545   5.658   1.524   8.532  0.5092  0.2332  0.3620
  142SAPE  C21615546   5.641   1.721   8.446  0.4448  0.3579  1.3552
  142SAPE  H16R15547   5.667   1.826   8.473  0.9454  0.8499 -0.8641
  142SAPE  H16S15548   5.530   1.711   8.451  0.3873  0.4975  0.5750
  142SAPE  C21715549   5.687   1.697   8.305 -0.0955  0.2965 -0.1006
  142SAPE  H17R15550   5.796   1.721   8.302  0.0152 -0.0286  0.8730
  142SAPE  H17S15551   5.624   1.765   8.244 -0.1548  0.9990  0.7304
  142SAPE  C21815552   5.671   1.554   8.254  0.8653 -0.8645 -0.0028
  142SAPE  H18R15553   5.577   1.512   8.296  0.1866 -0.8892 -1.4821
  142SAPE  H18S15554   5.755   1.489   8.286 -0.1391 -1.3060  1.8350
  142SAPE  C21915555   5.681   1.550   8.103  0.2134  0.5859 -0.4367
  142SAPE  H19R15556   5.784   1.580   8.075  0.6255  0.3519  0.7680
  142SAPE  H19S15557   5.608   1.621   8.057  1.3129  1.9380 -0.1633
  142SAPE  C22015558   5.647   1.404   8.052 -0.1007  0.2204 -0.5073
  142SAPE  H20R15559   5.656   1.406   7.941 -1.7124 -0.8665 -0.6908
  142SAPE  H20S15560   5.541   1.381   8.077  0.1677 -1.4099 -0.7632
  142SAPE  H20T15561   5.720   1.330   8.090 -0.2158  1.2825  2.0027
  142SAPE   C3315562   6.896   1.784   9.207  0.6213  0.4523 -1.0989
  142SAPE   H3X15563   6.967   1.855   9.255  3.6993 -0.8828 -3.3514
  142SAPE   H3Y15564   6.834   1.819   9.121  0.0670  1.6164 -0.2578
  142SAPE   C3415565   6.972   1.667   9.160  0.3923 -0.0447 -0.0793
  142SAPE   H4X15566   6.953   1.590   9.237 -0.3638 -0.8456 -1.0304
  142SAPE   H4Y15567   7.077   1.700   9.173  0.8479 -0.3927 -2.4090
  142SAPE   C3515568   6.946   1.634   9.013 -0.2523  0.1638 -0.4011
  142SAPE   H5X15569   6.936   1.721   8.944  0.9865 -0.6139 -1.5878
  142SAPE   H5Y15570   6.844   1.590   9.012  0.2767 -1.1311  0.0097
  142SAPE   C3615571   7.047   1.536   8.959  0.0224 -0.0679  0.5959
  142SAPE   H6X15572   7.033   1.438   9.010 -2.7689  0.8257  1.7013
  142SAPE   H6Y15573   7.150   1.573   8.980 -0.8401  1.6623  2.0507
  142SAPE   C3715574   7.046   1.527   8.802 -0.0162  1.0046 -0.1171
  142SAPE   H7X15575   7.153   1.523   8.772 -0.5637 -1.0478 -2.0474
  142SAPE   H7Y15576   7.002   1.611   8.744  0.6739  0.7288 -1.0667
  142SAPE   C3815577   6.988   1.393   8.745  0.1431 -0.2718 -0.1796
  142SAPE   H8X15578   6.880   1.384   8.767 -0.2189  2.1911 -0.6123
  142SAPE   H8Y15579   7.053   1.317   8.793  1.3316  0.4726 -0.5492
  142SAPE   C3915580   7.008   1.395   8.589  0.9170  0.2644 -0.5283
  142SAPE   H9X15581   7.114   1.405   8.558  0.7518 -0.4058 -1.3674
  142SAPE   H9Y15582   6.950   1.477   8.543 -1.2710 -1.0202 -0.2280
  142SAPE  C31015583   6.950   1.273   8.512 -0.7970  0.4295 -0.2635
  142SAPE  H10X15584   6.859   1.235   8.565  1.2694 -2.9266  1.2028
  142SAPE  H10Y15585   7.027   1.195   8.528  1.4169  2.4448 -0.6358
  142SAPE  C31115586   6.931   1.291   8.360 -0.1022 -1.4951 -0.5586
  142SAPE  H11X15587   6.835   1.344   8.348  1.2419  2.2303  2.7601
  142SAPE  H11Y15588   6.920   1.187   8.323 -1.9337 -1.6739  0.3700
  142SAPE  C31215589   7.040   1.349   8.276  0.2662 -0.3454 -0.2325
  142SAPE  H12X15590   7.081   1.442   8.322  0.0861 -0.4790  0.1977
  142SAPE  H12Y15591   7.008   1.355   8.170  0.3401  0.2335 -0.2287
  142SAPE  C31315592   7.169   1.264   8.272 -0.0866 -0.5022 -0.1546
  142SAPE  H13X15593   7.148   1.169   8.218 -0.3772 -1.6438  1.8359
  142SAPE  H13Y15594   7.200   1.225   8.372 -2.9317 -2.8827 -0.0678
  142SAPE  C31415595   7.285   1.320   8.190  0.4565  0.1611 -0.0716
  142SAPE  H14X15596   7.365   1.337   8.265  0.9815  0.7722 -0.7621
  142SAPE  H14Y15597   7.257   1.416   8.141  0.8018 -0.8044 -2.3115
  142SAPE  C31515598   7.317   1.224   8.077 -0.8995 -0.6539  0.4326
  142SAPE  H15X15599   7.234   1.234   8.004 -1.3174  0.8274  1.0889
  142SAPE  H15Y15600   7.334   1.120   8.114  2.7565 -1.1476 -2.1014
  142SAPE  C31615601   7.452   1.243   8.010 -0.7430  0.1580  0.2991
  142SAPE  H16X15602   7.541   1.230   8.076  0.4430  1.1960 -1.0149
  142SAPE  H16Y15603   7.464   1.346   7.969  0.1499  0.1698  0.5470
  142SAPE  C31715604   7.478   1.154   7.882  0.1259  0.1564 -1.4256
  142SAPE  H17X15605   7.500   1.050   7.916  0.8657  0.5534 -0.6359
  142SAPE  H17Y15606   7.573   1.188   7.836  0.4681  2.2246  0.5782
  142SAPE  C31815607   7.367   1.157   7.778  0.3179  0.3085 -0.8197
  142SAPE  H18X15608   7.329   1.257   7.747 -2.0683  0.3535  1.7712
  142SAPE  H18Y15609   7.274   1.112   7.820  0.2321 -0.1392 -1.4827
  142SAPE  H18Z15610   7.401   1.090   7.697  0.5451  0.5876 -0.9546
  143SAPE     N15611   1.383   0.915   9.988 -0.2542 -0.5882 -0.1614
  143SAPE   HN115612   1.453   0.940  10.061  0.5346  3.4602 -2.0490
  143SAPE   HN215613   1.300   0.924  10.049 -0.0122  1.4676 -0.0779
  143SAPE   HN315614   1.392   0.816   9.956 -0.4646  0.1948 -2.9687
  143SAPE   C1215615   1.390   1.027   9.887 -0.8508  0.3320 -0.0284
  143SAPE  H12A15616   1.497   1.054   9.870 -0.7077  0.8864  1.6035
  143SAPE  H12B15617   1.333   1.114   9.924 -2.0478 -0.6484  0.4787
  143SAPE   C1115618   1.329   0.994   9.747  0.2614  0.4079 -0.1397
  143SAPE  H11A15619   1.395   0.917   9.702 -0.6828  0.0832 -1.0190
  143SAPE  H11B15620   1.323   1.078   9.675 -3.1950  0.9264  0.5842
  143SAPE     P15621   1.073   1.042   9.763 -0.6536 -0.2696 -0.0103
  143SAPE   O1315622   0.947   0.965   9.759 -0.1980  0.6820 -0.6007
  143SAPE   O1415623   1.090   1.148   9.872  0.3066  0.4389 -0.0191
  143SAPE   O1215624   1.193   0.937   9.768  0.1370  0.3444  0.1033
  143SAPE   O1115625   1.086   1.112   9.627  0.6242 -0.6489  0.0243
  143SAPE    C115626   0.986   1.195   9.565 -0.2690  0.1852 -0.0308
  143SAPE    HA15627   0.889   1.140   9.573 -0.4286 -0.1537 -3.0157
  143SAPE    HB15628   0.982   1.292   9.619 -0.3967  1.8075 -2.7535
  143SAPE    C215629   1.018   1.220   9.414 -0.8519  0.1609  0.5146
  143SAPE    HS15630   0.934   1.259   9.353  1.6207  1.7989 -2.0951
  143SAPE   O2115631   1.058   1.093   9.356 -0.4429 -0.7632  0.3924
  143SAPE   C2115632   0.963   0.999   9.356  0.5512  0.2753  0.3059
  143SAPE   O2215633   0.842   1.022   9.370 -0.4015 -0.2335  0.1369
  143SAPE   C2215634   1.022   0.859   9.342  0.2950 -0.4672 -0.3614
  143SAPE   H2R15635   1.044   0.818   9.443 -0.8300  0.8783  0.4577
  143SAPE   H2S15636   0.953   0.790   9.289  1.4345 -1.0033 -1.1980
  143SAPE    C315637   1.130   1.327   9.398  0.3671  0.4808  0.6938
  143SAPE    HX15638   1.227   1.276   9.417 -1.2364 -3.1293 -0.1105
  143SAPE    HY15639   1.127   1.400   9.482  1.7479 -1.7130  2.8013
  143SAPE   O3115640   1.133   1.394   9.265 -1.0870  0.6867  0.1580
  143SAPE   C3115641   1.239   1.474   9.231  0.7296  0.4717 -0.6983
  143SAPE   O3215642   1.327   1.513   9.304 -0.0285 -0.1252  0.2938
  143SAPE   C3215643   1.214   1.521   9.087 -0.2426 -0.9768 -0.8994
  143SAPE   H2X15644   1.192   1.629   9.099 -1.2054 -1.1521 -0.9929
  143SAPE   H2Y15645   1.131   1.465   9.037 -0.2341 -1.7941 -0.0295
  143SAPE   C2315646   1.152   0.854   9.259 -0.8442  0.2127 -0.3858
  143SAPE   H3R15647   1.230   0.913   9.311 -1.7611  1.5654 -0.5021
  143SAPE   H3S15648   1.130   0.909   9.165 -0.2114  1.4380  0.1675
  143SAPE   C2415649   1.207   0.716   9.222  0.2268 -0.0078 -0.0782
  143SAPE   H4R15650   1.288   0.726   9.146  1.6106 -3.9440  0.6155
  143SAPE   H4S15651   1.127   0.650   9.182 -0.1414 -0.5618  1.4747
  143SAPE   C2515652   1.271   0.662   9.351  0.1154  0.7527  1.2795
  143SAPE   H5R15653   1.203   0.661   9.438 -0.1624 -0.2075  1.0611
  143SAPE   C2615654   1.397   0.631   9.367 -0.5608 -0.5104 -0.5760
  143SAPE   H6R15655   1.423   0.591   9.466 -0.4267  1.0465  0.0457
  143SAPE   C2715656   1.504   0.603   9.264 -0.6225  0.5340 -0.4844
  143SAPE   H7R15657   1.515   0.687   9.193  1.1063 -0.5184 -1.5096
  143SAPE   H7S15658   1.473   0.518   9.200 -1.4459 -1.2606  2.1394
  143SAPE   C2815659   1.638   0.575   9.335 -0.0579 -0.3331  0.0646
  143SAPE   H8R15660   1.640   0.562   9.445 -0.0578 -2.8627 -0.1629
  143SAPE   C2915661   1.747   0.546   9.264 -0.0168  0.2664  0.2627
  143SAPE   H9R15662   1.832   0.510   9.325  0.4524  0.0933 -0.4835
  143SAPE  C21015663   1.764   0.544   9.113  0.4323 -0.2056 -0.4699
  143SAPE  H10R15664   1.870   0.564   9.085  0.9616 -0.0405  1.5560
  143SAPE  H10S15665   1.707   0.629   9.070 -1.7716 -2.3271 -1.9747
  143SAPE  C21115666   1.729   0.410   9.045  0.0237  0.3301 -0.1855
  143SAPE  H11R15667   1.760   0.323   9.105 -0.3137  1.8710  2.3751
  143SAPE  C21215668   1.694   0.398   8.915  1.1279 -0.0647  0.1818
  143SAPE  H12R15669   1.668   0.302   8.867 -0.0598 -0.3743  1.3728
  143SAPE  C21315670   1.655   0.513   8.834 -0.1065 -0.6572  0.7226
  143SAPE  H13R15671   1.628   0.600   8.897  1.0461  0.7362 -0.6183
  143SAPE  H13S15672   1.564   0.481   8.779 -0.9259  2.3739  0.1406
  143SAPE  C21415673   1.772   0.553   8.746  0.3313  0.4733 -0.2493
  143SAPE  H14R15674   1.859   0.587   8.804  0.1678  0.3884  0.0474
  143SAPE  C21515675   1.789   0.542   8.611  0.2527  0.1420 -0.2831
  143SAPE  H15R15676   1.886   0.563   8.564  0.0576  0.9299 -0.3413
  143SAPE  C21615677   1.673   0.507   8.515 -0.2844  0.1256 -0.4051
  143SAPE  H16R15678   1.585   0.566   8.547  1.1132  1.9951  0.1867
  143SAPE  H16S15679   1.664   0.396   8.509  1.9775 -0.2106  1.1021
  143SAPE  C21715680   1.711   0.567   8.373 -0.3879  0.0201 -0.8210
  143SAPE  H17R15681   1.819   0.584   8.359 -0.2821 -1.6407 -2.4055
  143SAPE  H17S15682   1.667   0.667   8.354  0.5945  0.9082  1.3121
  143SAPE  C21815683   1.676   0.472   8.263  0.2862  0.5944 -0.4379
  143SAPE  H18R15684   1.748   0.387   8.258 -1.3453 -0.7638 -1.9809
  143SAPE  H18S15685   1.684   0.523   8.165 -2.6382  0.9374 -0.5860
  143SAPE  C21915686   1.527   0.422   8.275  0.0324 -0.2607  0.0213
  143SAPE  H19R15687   1.459   0.499   8.318 -1.3693 -1.0301 -0.7199
  143SAPE  H19S15688   1.517   0.339   8.349 -0.8968 -0.0265  0.1823
  143SAPE  C22015689   1.467   0.373   8.139 -0.4256 -0.4397 -0.8408
  143SAPE  H20R15690   1.485   0.456   8.068  0.0669  1.2962  1.2191
  143SAPE  H20S15691   1.359   0.355   8.156 -1.2088  4.1998  0.3921
  143SAPE  H20T15692   1.528   0.286   8.107  0.3611  0.2665 -1.3126
  143SAPE   C3315693   1.330   1.495   8.988  0.5982 -0.0821 -0.2413
  143SAPE   H3X15694   1.357   1.388   9.001  0.2480  0.0489  2.1788
  143SAPE   H3Y15695   1.423   1.545   9.023  1.8919 -1.5673 -1.4265
  143SAPE   C3415696   1.314   1.547   8.845 -0.1600 -0.4401  0.0162
  143SAPE   H4X15697   1.412   1.536   8.795 -0.1660  0.2628 -0.1687
  143SAPE   H4Y15698   1.294   1.657   8.846  0.2793 -0.3273 -1.7511
  143SAPE   C3515699   1.207   1.467   8.770 -0.6132  0.1627 -0.2010
  143SAPE   H5X15700   1.181   1.504   8.668 -1.5076 -1.5066 -0.6194
  143SAPE   H5Y15701   1.109   1.476   8.822 -1.0519  0.2435 -1.0183
  143SAPE   C3615702   1.229   1.316   8.755  0.7770  0.5091  0.5963
  143SAPE   H6X15703   1.130   1.274   8.727  1.4074 -0.5573 -0.1099
  143SAPE   H6Y15704   1.258   1.269   8.851  2.3625  1.1904  0.4901
  143SAPE   C3715705   1.331   1.278   8.652 -0.2369 -0.0675 -0.0173
  143SAPE   H7X15706   1.359   1.171   8.662  2.2817  0.4759 -0.6611
  143SAPE   H7Y15707   1.424   1.337   8.666 -0.2976 -0.3113  1.6420
  143SAPE   C3815708   1.271   1.285   8.509 -0.1070  0.3192 -0.4812
  143SAPE   H8X15709   1.253   1.395   8.497  0.5343  0.4836  0.0254
  143SAPE   H8Y15710   1.168   1.244   8.500 -1.1312  2.8893 -1.5278
  143SAPE   C3915711   1.358   1.227   8.398 -0.1990 -0.0615 -0.0050
  143SAPE   H9X15712   1.371   1.117   8.395 -1.2667 -0.2340  1.1327
  143SAPE   H9Y15713   1.462   1.258   8.418 -0.5767  2.6133 -1.6137
  143SAPE  C31015714   1.310   1.272   8.258  0.3166  0.9170  0.6005
  143SAPE  H10X15715   1.201   1.251   8.249  0.9075 -1.7640 -1.6952
  143SAPE  H10Y15716   1.353   1.215   8.174  0.3674  1.3202  0.3496
  143SAPE  C31115717   1.338   1.418   8.223  0.5857  0.0124  0.5315
  143SAPE  H11X15718   1.373   1.473   8.314  0.2251 -0.7562  1.1503
  143SAPE  H11Y15719   1.236   1.451   8.194  0.9131  1.1608  0.6346
  143SAPE  C31215720   1.430   1.433   8.106  0.4854 -0.8217 -0.3542
  143SAPE  H12X15721   1.395   1.375   8.019  2.0208 -0.4803 -1.2428
  143SAPE  H12Y15722   1.526   1.386   8.138  1.7238  1.3503 -0.6480
  143SAPE  C31315723   1.450   1.582   8.055 -0.2945  0.5267 -0.5839
  143SAPE  H13X15724   1.346   1.617   8.041 -0.9091  1.3116  4.2050
  143SAPE  H13Y15725   1.507   1.585   7.960  0.5305  1.5100 -0.0868
  143SAPE  C31415726   1.511   1.674   8.158 -1.0706 -0.4953 -0.2140
  143SAPE  H14X15727   1.614   1.637   8.176 -1.0571 -0.3064  0.0997
  143SAPE  H14Y15728   1.445   1.676   8.247  0.8674 -0.9378  1.2877
  143SAPE  C31515729   1.521   1.823   8.109 -0.1368  0.1114  0.0778
  143SAPE  H15X15730   1.596   1.839   8.029 -1.0480  1.1491 -0.5817
  143SAPE  H15Y15731   1.553   1.886   8.195  0.6376 -1.5437  1.0571
  143SAPE  C31615732   1.386   1.881   8.063 -0.6907 -0.0707  0.1128
  143SAPE  H16X15733   1.309   1.847   8.137 -0.0914  0.8318  1.1824
  143SAPE  H16Y15734   1.350   1.846   7.964 -1.6711  0.8255  0.1351
  143SAPE  C31715735   1.383   2.028   8.070  0.0565  0.3470 -0.2905
  143SAPE  H17X15736   1.475   2.076   8.030  1.4110 -1.5666  0.4108
  143SAPE  H17Y15737   1.395   2.063   8.175 -2.0359  1.8010 -0.4832
  143SAPE  C31815738   1.259   2.093   8.020 -0.4382 -0.2350 -0.1257
  143SAPE  H18X15739   1.242   2.187   8.077 -1.0556  0.6515 -1.7097
  143SAPE  H18Y15740   1.169   2.028   8.034 -0.5981 -0.4545 -1.9369
  143SAPE  H18Z15741   1.261   2.117   7.912 -0.5218  1.8227  0.2947
  144SAPE     N15742   5.626   0.962  10.132 -0.0532  0.3542  0.5680
  144SAPE   HN115743   5.641   1.060  10.099 -0.7709  1.6753  3.7875
  144SAPE   HN215744   5.548   0.961  10.201 -2.2439 -0.8969 -1.7636
  144SAPE   HN315745   5.718   0.954  10.182  0.5800  2.8294 -0.0591
  144SAPE   C1215746   5.611   0.863  10.019 -0.1407  1.0220 -0.7979
  144SAPE  H12A15747   5.634   0.765  10.066 -1.4866  0.9175 -0.3208
  144SAPE  H12B15748   5.693   0.887   9.947  0.2593  0.9630 -0.3681
  144SAPE   C1115749   5.476   0.868   9.950  0.3009  0.1657  0.2107
  144SAPE  H11A15750   5.482   0.796   9.865  0.1446 -1.1069  1.2447
  144SAPE  H11B15751   5.458   0.971   9.913  1.8701  0.7817  1.1115
  144SAPE     P15752   5.323   0.705  10.088  0.4960  0.2991 -0.3674
  144SAPE   O1315753   5.421   0.616  10.149 -0.3323 -0.4274 -0.4066
  144SAPE   O1415754   5.211   0.736  10.177 -0.6504 -0.1003 -0.2114
  144SAPE   O1215755   5.373   0.843  10.040 -0.1801  0.0784 -0.3224
  144SAPE   O1115756   5.259   0.636   9.959  0.2519 -0.0013  0.5075
  144SAPE    C115757   5.153   0.709   9.894  0.0219 -0.1313  0.5728
  144SAPE    HA15758   5.086   0.754   9.970  1.9633  2.5408  0.8602
  144SAPE    HB15759   5.204   0.786   9.832  0.6772 -3.2027 -3.0309
  144SAPE    C215760   5.078   0.614   9.804 -0.0484  0.1548 -0.0129
  144SAPE    HS15761   5.047   0.523   9.860  0.3619 -0.8779 -1.3877
  144SAPE   O2115762   5.152   0.552   9.694  0.2925 -0.6690 -0.3002
  144SAPE   C2115763   5.216   0.638   9.610  0.2966  0.9115  0.2116
  144SAPE   O2215764   5.221   0.756   9.623  0.2159 -0.4001  0.3894
  144SAPE   C2215765   5.290   0.556   9.500 -0.2492 -0.0430 -0.4550
  144SAPE   H2R15766   5.326   0.463   9.550  3.7475  0.2005 -2.4328
  144SAPE   H2S15767   5.216   0.520   9.426 -0.4063 -0.7115  0.0198
  144SAPE    C315768   4.945   0.673   9.743 -0.2945  0.1111  0.4237
  144SAPE    HX15769   4.973   0.755   9.673  1.3786  0.3968  1.3706
  144SAPE    HY15770   4.887   0.715   9.828  1.3004 -1.6555  2.4927
  144SAPE   O3115771   4.866   0.567   9.685 -0.2784  0.3709  0.6864
  144SAPE   C3115772   4.858   0.579   9.544  0.7959  0.7591 -0.2100
  144SAPE   O3215773   4.926   0.648   9.479 -0.2774  0.0300  0.0117
  144SAPE   C3215774   4.757   0.478   9.487 -0.1223 -0.5443  0.1367
  144SAPE   H2X15775   4.700   0.415   9.559  1.9844 -2.7939 -0.0449
  144SAPE   H2Y15776   4.820   0.399   9.441  1.5099 -0.7475  2.5502
  144SAPE   C2315777   5.402   0.636   9.432  0.6236  0.1146 -0.4110
  144SAPE   H3R15778   5.476   0.666   9.509  1.3687  1.3092 -1.5523
  144SAPE   H3S15779   5.366   0.732   9.389  0.0512  1.8083  3.4933
  144SAPE   C2415780   5.460   0.550   9.318  0.3406 -0.3168 -1.3099
  144SAPE   H4R15781   5.542   0.593   9.257  0.9738  0.9602  0.3485
  144SAPE   H4S15782   5.379   0.522   9.248 -0.1994 -1.1503 -0.3792
  144SAPE   C2515783   5.528   0.426   9.390  0.0029  0.3754 -0.7791
  144SAPE   H5R15784   5.571   0.448   9.489 -2.1146  1.2985 -0.0076
  144SAPE   C2615785   5.525   0.302   9.346 -0.2141 -0.0998  0.3050
  144SAPE   H6R15786   5.580   0.222   9.398 -0.0047  0.3694  0.8173
  144SAPE   C2715787   5.455   0.262   9.215  0.7602  0.1539  0.2227
  144SAPE   H7R15788   5.506   0.324   9.138 -0.5268  2.5048  1.1488
  144SAPE   H7S15789   5.347   0.289   9.208  0.6075 -0.5147 -0.0868
  144SAPE   C2815790   5.468   0.114   9.191 -0.5404 -0.3507 -0.5617
  144SAPE   H8R15791   5.565   0.090   9.144  0.2514  2.3494 -0.4724
  144SAPE   C2915792   5.381   0.017   9.213 -0.2144 -0.0904  0.3874
  144SAPE   H9R15793   5.413  -0.086   9.194  0.4918 -0.3554  2.7080
  144SAPE  C21015794   5.248   0.031   9.278  0.2965  0.4138 -0.3661
  144SAPE  H10R15795   5.242   0.123   9.340  2.3588 -1.7260  3.3721
  144SAPE  H10S15796   5.241  -0.050   9.353  1.2380  1.6406  1.0895
  144SAPE  C21115797   5.144   0.037   9.166  0.5699  0.3501 -0.0972
  144SAPE  H11R15798   5.175   0.105   9.086 -2.5184  1.0041 -0.8350
  144SAPE  C21215799   5.031  -0.035   9.154  0.0053 -0.0828 -0.2138
  144SAPE  H12R15800   4.983  -0.034   9.055 -0.9046  1.9149  0.1782
  144SAPE  C21315801   4.984  -0.133   9.254 -0.0891  0.1642 -0.1553
  144SAPE  H13R15802   5.042  -0.129   9.348 -0.8269 -0.6055  0.3412
  144SAPE  H13S15803   5.011  -0.235   9.220  0.8345  0.1650  0.5363
  144SAPE  C21415804   4.839  -0.130   9.298 -0.6861  0.5186 -0.5353
  144SAPE  H14R15805   4.803  -0.033   9.336  1.8572  1.8486 -1.3273
  144SAPE  C21515806   4.741  -0.219   9.279  0.0016 -0.7386  0.4260
  144SAPE  H15R15807   4.640  -0.185   9.304 -0.0059  1.4865 -2.0958
  144SAPE  C21615808   4.739  -0.356   9.214  0.5030  0.5605 -0.0486
  144SAPE  H16R15809   4.691  -0.427   9.284 -0.5821 -0.2423 -1.5552
  144SAPE  H16S15810   4.845  -0.389   9.212  0.6622  1.0879 -0.8084
  144SAPE  C21715811   4.671  -0.356   9.077  0.0620  0.6086  0.4892
  144SAPE  H17R15812   4.570  -0.316   9.101 -0.0005 -0.2233  1.7410
  144SAPE  H17S15813   4.673  -0.459   9.035  2.2430  0.7909  0.0254
  144SAPE  C21815814   4.746  -0.264   8.981  0.4020  0.5698  0.2389
  144SAPE  H18R15815   4.850  -0.303   8.977  0.3258  0.0352  2.2960
  144SAPE  H18S15816   4.761  -0.167   9.032  1.8568 -1.7903  4.9189
  144SAPE  C21915817   4.688  -0.246   8.844  0.2785 -0.7013 -0.2738
  144SAPE  H19R15818   4.591  -0.196   8.865  0.0011 -1.7352  1.0785
  144SAPE  H19S15819   4.658  -0.340   8.793 -1.5541  1.2866 -3.1466
  144SAPE  C22015820   4.777  -0.157   8.742 -0.6351 -0.7493 -0.1597
  144SAPE  H20R15821   4.875  -0.205   8.722 -0.8352 -1.8938  1.3726
  144SAPE  H20S15822   4.787  -0.057   8.790  0.7241 -1.5512  1.3360
  144SAPE  H20T15823   4.722  -0.131   8.649  1.3590 -1.1800 -1.5129
  144SAPE   C3315824   4.688   0.551   9.366 -0.4947  0.3713  0.8006
  144SAPE   H3X15825   4.756   0.566   9.280 -1.5481  1.4189  0.1168
  144SAPE   H3Y15826   4.646   0.651   9.391  0.1131  0.3218  2.1326
  144SAPE   C3415827   4.571   0.464   9.311  0.2079  0.1157 -0.0920
  144SAPE   H4X15828   4.523   0.527   9.233 -2.3529  1.0294  2.0595
  144SAPE   H4Y15829   4.492   0.455   9.389  1.1702  0.7250  0.9737
  144SAPE   C3515830   4.632   0.334   9.261 -0.6346  0.4500  0.0262
  144SAPE   H5X15831   4.681   0.275   9.341 -3.3618 -1.3381  0.5288
  144SAPE   H5Y15832   4.715   0.370   9.197 -0.9680 -0.8739 -1.2094
  144SAPE   C3615833   4.531   0.243   9.192  0.3681  0.2589  0.3310
  144SAPE   H6X15834   4.445   0.229   9.262  0.3113  0.0321  0.2168
  144SAPE   H6Y15835   4.572   0.146   9.158 -1.0943 -0.0467 -0.6584
  144SAPE   C3715836   4.472   0.288   9.061 -0.0057 -0.3522 -0.5213
  144SAPE   H7X15837   4.545   0.350   9.005 -0.0162  0.0683 -0.0708
  144SAPE   H7Y15838   4.393   0.358   9.094  0.9200 -0.6914  2.7359
  144SAPE   C3815839   4.419   0.173   8.979  0.5680  0.1940  0.3350
  144SAPE   H8X15840   4.373   0.097   9.046  1.9208 -2.2758 -1.3793
  144SAPE   H8Y15841   4.503   0.117   8.932  0.4859  0.6398 -0.3481
  144SAPE   C3915842   4.315   0.210   8.874 -0.1226 -0.6650 -0.2917
  144SAPE   H9X15843   4.373   0.291   8.823  0.2353 -0.9062 -0.2754
  144SAPE   H9Y15844   4.222   0.251   8.918  0.2399 -0.5396  0.3680
  144SAPE  C31015845   4.288   0.102   8.774  0.6181 -0.6607 -0.1428
  144SAPE  H10X15846   4.196   0.041   8.789  1.5133 -2.1486 -0.4501
  144SAPE  H10Y15847   4.363   0.020   8.779  1.0414 -0.4332 -1.9357
  144SAPE  C31115848   4.296   0.156   8.627 -0.2311  0.2849  0.4415
  144SAPE  H11X15849   4.392   0.208   8.608 -0.4789  1.4303  2.1743
  144SAPE  H11Y15850   4.219   0.229   8.595  1.1560  1.1388 -1.1264
  144SAPE  C31215851   4.286   0.032   8.522  0.1675  0.4042 -0.1986
  144SAPE  H12X15852   4.178   0.011   8.504  0.5318 -0.6536 -1.2611
  144SAPE  H12Y15853   4.324  -0.056   8.578 -0.0593 -1.3899 -2.6681
  144SAPE  C31315854   4.367   0.049   8.392  0.5584 -0.0283  0.0045
  144SAPE  H13X15855   4.384  -0.048   8.341  2.4219  0.7988 -1.0691
  144SAPE  H13Y15856   4.466   0.088   8.425  0.8713 -1.3529  0.6871
  144SAPE  C31415857   4.302   0.143   8.290  0.1203  0.3016 -0.5731
  144SAPE  H14X15858   4.285   0.234   8.352  1.6696 -1.2961  2.4691
  144SAPE  H14Y15859   4.198   0.126   8.256  0.1061  1.1832 -0.9813
  144SAPE  C31515860   4.402   0.190   8.186  0.0448  0.1679  1.0403
  144SAPE  H15X15861   4.497   0.233   8.225  1.0493 -0.3517 -0.7586
  144SAPE  H15Y15862   4.364   0.273   8.123 -1.2638 -0.8536  0.4132
  144SAPE  C31615863   4.423   0.075   8.082 -0.3734  0.8491 -0.0444
  144SAPE  H16X15864   4.326   0.057   8.031 -2.3708  0.1653  3.6123
  144SAPE  H16Y15865   4.443  -0.012   8.149 -0.4348  0.6181 -0.3212
  144SAPE  C31715866   4.544   0.111   7.996 -0.1186  1.2219 -0.0678
  144SAPE  H17X15867   4.631   0.134   8.062  0.7794 -0.0392 -0.7479
  144SAPE  H17Y15868   4.513   0.184   7.919 -0.5125 -1.0194 -2.1476
  144SAPE  C31815869   4.586  -0.017   7.927 -0.0146  0.1295  0.4117
  144SAPE  H18X15870   4.602  -0.102   7.997 -0.7329 -0.4569 -0.1227
  144SAPE  H18Y15871   4.681   0.005   7.874  0.5670  2.4602  2.2307
  144SAPE  H18Z15872   4.506  -0.040   7.854 -0.3953 -0.7290  1.0848
  145SAPE     N15873   1.325   0.115   9.847 -0.3312  0.5411 -0.6378
  145SAPE   HN115874   1.412   0.121   9.791 -0.3484 -0.7852 -0.8434
  145SAPE   HN215875   1.354   0.113   9.947  0.0493 -2.3722 -0.7191
  145SAPE   HN315876   1.272   0.027   9.831  1.0728 -0.6240  0.7227
  145SAPE   C1215877   1.241   0.240   9.827 -0.6656 -0.1350 -0.1031
  145SAPE  H12A15878   1.195   0.262   9.926  1.2293 -2.0022  1.2853
  145SAPE  H12B15879   1.175   0.232   9.738  0.6203 -0.1184 -1.0831
  145SAPE   C1115880   1.342   0.361   9.796  0.3488  0.2164 -0.1144
  145SAPE  H11A15881   1.285   0.447   9.757  0.9245 -0.3748 -2.3841
  145SAPE  H11B15882   1.405   0.312   9.719  0.2549  0.9413 -0.6578
  145SAPE     P15883   1.493   0.530   9.922 -0.0652 -0.7244 -0.0919
  145SAPE   O1315884   1.398   0.644   9.914  0.1408  0.2313 -0.1802
  145SAPE   O1415885   1.568   0.524  10.047 -0.5303  0.2770  0.3822
  145SAPE   O1215886   1.410   0.393   9.914 -0.7117  0.5239  0.0612
  145SAPE   O1115887   1.587   0.528   9.795  0.3860  0.5254  0.0423
  145SAPE    C115888   1.686   0.427   9.780 -0.1865 -0.0944  0.4179
  145SAPE    HA15889   1.701   0.365   9.871 -0.2944  1.1409  1.2907
  145SAPE    HB15890   1.657   0.354   9.701 -1.8934 -0.9951  1.8354
  145SAPE    C215891   1.827   0.499   9.769 -0.4237  0.3471 -0.1457
  145SAPE    HS15892   1.845   0.523   9.876 -0.3948 -0.7807  0.1129
  145SAPE   O2115893   1.814   0.622   9.693  0.2897 -0.5837  0.1229
  145SAPE   C2115894   1.822   0.732   9.764  0.1049 -0.2742  0.9219
  145SAPE   O2215895   1.851   0.746   9.879  0.1600  0.1305 -0.1707
  145SAPE   C2215896   1.769   0.839   9.671 -0.1218 -0.2674 -0.6012
  145SAPE   H2R15897   1.799   0.813   9.567  0.5319 -0.7062 -0.3112
  145SAPE   H2S15898   1.658   0.839   9.671 -0.1278 -0.6879 -0.1518
  145SAPE    C315899   1.925   0.401   9.703  0.5559  0.2374  0.8304
  145SAPE    HX15900   1.953   0.327   9.781  0.2915  0.5737  1.2461
  145SAPE    HY15901   2.010   0.470   9.681 -1.2813  2.6228  0.8099
  145SAPE   O3115902   1.887   0.347   9.580 -0.3813  0.2223  0.8090
  145SAPE   C3115903   1.890   0.213   9.576  0.4435  0.6917  0.2035
  145SAPE   O3215904   1.931   0.142   9.668  0.1423  0.3295  0.6308
  145SAPE   C3215905   1.847   0.166   9.438  0.0909 -0.6334  1.1269
  145SAPE   H2X15906   1.894   0.237   9.367  1.1578 -1.2544  1.1976
  145SAPE   H2Y15907   1.737   0.180   9.433  0.3587  1.9793 -3.5112
  145SAPE   C2315908   1.793   0.989   9.713 -0.1011 -0.0922 -0.1044
  145SAPE   H3R15909   1.902   1.007   9.705 -0.4758  1.9472 -1.5588
  145SAPE   H3S15910   1.747   1.007   9.813  0.0498  0.5749 -0.1480
  145SAPE   C2415911   1.726   1.089   9.617  0.2201 -0.1563 -0.1586
  145SAPE   H4R15912   1.740   1.188   9.665  0.4935 -0.3505  0.1695
  145SAPE   H4S15913   1.616   1.073   9.619 -0.6405  4.2536 -1.2842
  145SAPE   C2515914   1.788   1.092   9.484  0.7189 -0.0235 -0.2787
  145SAPE   H5R15915   1.883   1.145   9.468 -0.0144  0.6304 -3.0548
  145SAPE   C2615916   1.724   1.061   9.366 -0.4115 -0.7187 -0.3967
  145SAPE   H6R15917   1.779   1.070   9.272 -0.1901  0.2084 -0.1908
  145SAPE   C2715918   1.579   1.018   9.347  0.1597  0.1325 -0.1433
  145SAPE   H7R15919   1.531   0.982   9.440 -1.4466  1.2869 -0.4795
  145SAPE   H7S15920   1.589   0.939   9.269 -2.7001  0.0994 -0.5765
  145SAPE   C2815921   1.500   1.136   9.293  0.5232 -0.7499 -0.4111
  145SAPE   H8R15922   1.501   1.224   9.359 -0.9010 -0.6675 -0.4809
  145SAPE   C2915923   1.430   1.144   9.183  0.7857 -0.3961  0.5259
  145SAPE   H9R15924   1.358   1.227   9.172 -0.5550 -1.4328  1.1424
  145SAPE  C21015925   1.405   1.027   9.084  0.1263 -0.4308 -0.0043
  145SAPE  H10R15926   1.306   1.027   9.032  0.9063  0.3113 -1.5775
  145SAPE  H10S15927   1.403   0.933   9.142 -0.5312  1.8614  4.0429
  145SAPE  C21115928   1.508   1.015   8.974 -0.7457 -0.0107  0.2536
  145SAPE  H11R15929   1.611   1.040   9.005 -0.1599 -1.3899 -0.4872
  145SAPE  C21215930   1.494   0.953   8.854  0.0564 -0.1138  0.5256
  145SAPE  H12R15931   1.577   0.952   8.783  0.5282  1.2689  1.0229
  145SAPE  C21315932   1.363   0.905   8.795  0.3113  0.0562 -0.0733
  145SAPE  H13R15933   1.392   0.860   8.698  0.2228  1.6619 -0.8856
  145SAPE  H13S15934   1.294   0.988   8.769  2.5316  1.7400 -0.9920
  145SAPE  C21415935   1.294   0.794   8.867 -0.1903  0.5972 -0.7917
  145SAPE  H14R15936   1.364   0.717   8.904 -1.4235  0.1843  0.7978
  145SAPE  C21515937   1.159   0.776   8.882 -0.5791 -0.3713 -0.1399
  145SAPE  H15R15938   1.130   0.682   8.931  0.1645 -1.3096 -1.4241
  145SAPE  C21615939   1.056   0.871   8.825  0.8051 -0.4159  0.2433
  145SAPE  H16R15940   1.083   0.977   8.848 -0.0227  0.1462 -1.2596
  145SAPE  H16S15941   0.955   0.851   8.866  0.0478 -2.8192 -2.4582
  145SAPE  C21715942   1.059   0.854   8.669 -0.0707 -0.5234 -0.0780
  145SAPE  H17R15943   1.042   0.749   8.640 -1.2831 -0.3319 -0.1119
  145SAPE  H17S15944   1.162   0.868   8.631 -0.1120  1.0111  0.2709
  145SAPE  C21815945   0.950   0.945   8.604  0.1183 -0.1836  0.3043
  145SAPE  H18R15946   0.969   1.053   8.621  0.4200 -0.0926 -0.5836
  145SAPE  H18S15947   0.856   0.918   8.657  0.0324 -2.4253 -0.8943
  145SAPE  C21915948   0.945   0.921   8.453 -0.2530  0.1556 -0.2388
  145SAPE  H19R15949   0.906   0.826   8.412  1.0360  0.7726 -3.1376
  145SAPE  H19S15950   1.045   0.932   8.407 -0.0904 -2.2897 -0.5838
  145SAPE  C22015951   0.853   1.020   8.386  0.1711 -0.3778 -0.0327
  145SAPE  H20R15952   0.904   1.119   8.382  3.1232 -1.7394  0.8000
  145SAPE  H20S15953   0.771   1.031   8.460  1.4764  2.8017  1.1595
  145SAPE  H20T15954   0.814   0.992   8.286  0.8128 -1.4467  0.0063
  145SAPE   C3315955   1.888   0.018   9.401 -0.1412 -0.4293  0.8050
  145SAPE   H3X15956   1.847  -0.052   9.476  0.7820  0.3031  2.0191
  145SAPE   H3Y15957   1.998   0.006   9.400 -0.0978 -0.4042 -1.4853
  145SAPE   C3415958   1.836  -0.022   9.266 -0.0540 -0.0682  0.0246
  145SAPE   H4X15959   1.728   0.000   9.271  0.0239  0.0525  1.8026
  145SAPE   H4Y15960   1.855  -0.132   9.257 -1.9111 -0.6391  2.2505
  145SAPE   C3515961   1.910   0.051   9.151  0.4021 -0.2878  0.2124
  145SAPE   H5X15962   2.015   0.017   9.145  0.5397 -0.1561  1.4989
  145SAPE   H5Y15963   1.902   0.160   9.169 -0.6635 -0.5390  1.3689
  145SAPE   C3615964   1.837   0.011   9.021  0.2444 -0.0893  0.7401
  145SAPE   H6X15965   1.730   0.038   9.031 -0.1009 -0.7002 -0.9892
  145SAPE   H6Y15966   1.839  -0.099   9.004 -0.7507  0.0457 -0.3588
  145SAPE   C3715967   1.895   0.099   8.905  0.0333 -0.4095 -0.2172
  145SAPE   H7X15968   2.000   0.069   8.881  0.3784  0.3948  0.2427
  145SAPE   H7Y15969   1.902   0.202   8.946  0.4265 -1.4520  2.5764
  145SAPE   C3815970   1.814   0.094   8.771 -0.2173  1.0915  0.2319
  145SAPE   H8X15971   1.712   0.129   8.798 -0.4935  0.6930 -0.2870
  145SAPE   H8Y15972   1.799  -0.011   8.740 -1.2041  1.2348  0.1821
  145SAPE   C3915973   1.890   0.171   8.655 -0.0281 -0.0123  0.2177
  145SAPE   H9X15974   1.999   0.153   8.649  0.4869  2.7362  0.0832
  145SAPE   H9Y15975   1.885   0.280   8.672  0.3113  0.1326 -0.5500
  145SAPE  C31015976   1.818   0.157   8.524 -0.4550  0.6920  0.3232
  145SAPE  H10X15977   1.839   0.242   8.456  0.5761 -0.0165 -0.2768
  145SAPE  H10Y15978   1.708   0.151   8.532 -0.3837 -3.2703  0.1758
  145SAPE  C31115979   1.843   0.017   8.456  0.4620 -0.2192 -0.3599
  145SAPE  H11X15980   1.831  -0.058   8.537 -0.6356  1.2354  0.8844
  145SAPE  H11Y15981   1.948  -0.006   8.426  0.0399 -3.4290  0.2041
  145SAPE  C31215982   1.760  -0.006   8.326 -0.5207  0.6854 -0.0057
  145SAPE  H12X15983   1.650   0.012   8.330 -0.5242  0.5360  1.0544
  145SAPE  H12Y15984   1.771  -0.115   8.312 -0.0033  0.7988 -0.5009
  145SAPE  C31315985   1.807   0.066   8.206 -0.2372  0.3294  0.5221
  145SAPE  H13X15986   1.912   0.037   8.188 -0.2137  0.4931  0.3870
  145SAPE  H13Y15987   1.809   0.175   8.226  2.3922  0.1273  1.6415
  145SAPE  C31415988   1.722   0.036   8.086  0.7101  0.0741 -0.0642
  145SAPE  H14X15989   1.618   0.072   8.096  0.6060 -0.7424  2.1172
  145SAPE  H14Y15990   1.712  -0.074   8.080  3.7870 -0.3230  0.1787
  145SAPE  C31515991   1.781   0.097   7.957 -0.1300  0.2237  0.3525
  145SAPE  H15X15992   1.885   0.062   7.939 -0.1891  1.2615 -2.2653
  145SAPE  H15Y15993   1.788   0.205   7.980  0.7079  0.0537  0.9485
  145SAPE  C31615994   1.689   0.058   7.841 -0.0980 -0.1033 -0.0778
  145SAPE  H16X15995   1.649  -0.045   7.853  0.0615 -0.0202  1.2707
  145SAPE  H16Y15996   1.741   0.062   7.742 -2.0961 -1.6023 -1.2704
  145SAPE  C31715997   1.570   0.149   7.824 -0.3097 -0.9410  0.0864
  145SAPE  H17X15998   1.616   0.245   7.791  0.9762 -1.6049 -0.1346
  145SAPE  H17Y15999   1.528   0.171   7.924  1.5994 -0.6293  0.8550
  145SAPE  C31816000   1.462   0.099   7.725 -0.2848 -0.1501 -0.8169
  145SAPE  H18X16001   1.502   0.066   7.627  0.0878  1.8594 -1.3941
  145SAPE  H18Y16002   1.392   0.185   7.713 -1.9741 -0.7667  3.1109
  145SAPE  H18Z16003   1.403   0.017   7.771 -1.1863  0.0007 -1.6637
  146SAPE     N16004   5.810   1.163   9.448  0.2288  0.0332  0.2683
  146SAPE   HN116005   5.872   1.140   9.528 -0.5048  0.7660  1.0639
  146SAPE   HN216006   5.854   1.239   9.393 -0.0914  0.5010  0.6516
  146SAPE   HN316007   5.723   1.200   9.491  0.7160  0.5857  0.7873
  146SAPE   C1216008   5.772   1.039   9.363 -0.1284  0.9649  0.3290
  146SAPE  H12A16009   5.865   0.984   9.336 -0.6088 -0.3950  1.2906
  146SAPE  H12B16010   5.718   1.083   9.277  1.1668 -0.3432 -1.2226
  146SAPE   C1116011   5.684   0.939   9.444  0.4743 -0.0167 -0.4363
  146SAPE  H11A16012   5.646   0.849   9.390  0.3632 -0.4944  0.4152
  146SAPE  H11B16013   5.593   0.999   9.465  0.0953 -0.6479 -0.2627
  146SAPE     P16014   5.837   0.767   9.583 -0.0400 -0.0321  0.1237
  146SAPE   O1316015   5.942   0.791   9.686 -0.2444 -0.4081 -0.0466
  146SAPE   O1416016   5.742   0.655   9.606  0.6988  0.5823  0.6893
  146SAPE   O1216017   5.753   0.898   9.568  0.5259  0.2383  0.1838
  146SAPE   O1116018   5.904   0.756   9.442 -0.0217 -0.1361 -0.7982
  146SAPE    C116019   5.925   0.631   9.386  0.0877  0.0499 -0.0353
  146SAPE    HA16020   5.838   0.562   9.395 -2.5780  3.2277  0.3784
  146SAPE    HB16021   5.941   0.655   9.278  0.3920  1.9846  0.4070
  146SAPE    C216022   6.056   0.573   9.429 -0.3090 -0.8917  0.4013
  146SAPE    HS16023   6.055   0.570   9.540 -1.0382 -0.1628  0.4194
  146SAPE   O2116024   6.160   0.665   9.384  0.4912 -0.4481 -0.0734
  146SAPE   C2116025   6.275   0.664   9.445  0.0828 -0.0345 -0.1771
  146SAPE   O2216026   6.306   0.584   9.530  0.0493  0.1318  0.3877
  146SAPE   C2216027   6.360   0.766   9.390 -0.5917 -0.3777 -0.1427
  146SAPE   H2R16028   6.358   0.785   9.281  0.6835  3.3583  0.3276
  146SAPE   H2S16029   6.337   0.861   9.443  0.3586 -0.1280 -0.1645
  146SAPE    C316030   6.075   0.428   9.383  0.2046 -0.3455  0.8065
  146SAPE    HX16031   5.989   0.374   9.427 -0.5839  1.4054  1.5343
  146SAPE    HY16032   6.179   0.399   9.406  1.5208  1.4669 -2.1854
  146SAPE   O3116033   6.062   0.425   9.243 -0.2510  0.9619  0.0621
  146SAPE   C3116034   6.058   0.301   9.193  0.1901 -1.0337 -0.4135
  146SAPE   O3216035   6.077   0.202   9.264 -0.7844 -0.2952 -0.4278
  146SAPE   C3216036   6.020   0.305   9.050  0.5999  0.5204  0.2762
  146SAPE   H2X16037   6.117   0.335   9.006  1.5754 -0.9178  1.3682
  146SAPE   H2Y16038   5.951   0.388   9.025  0.3317 -0.2389 -1.6223
  146SAPE   C2316039   6.509   0.732   9.434 -0.4317  0.0336 -0.6420
  146SAPE   H3R16040   6.529   0.623   9.428 -0.5328  0.0692 -1.7802
  146SAPE   H3S16041   6.527   0.748   9.543  2.6302 -1.7452 -0.7801
  146SAPE   C2416042   6.620   0.812   9.364  0.1638  0.1783 -0.1002
  146SAPE   H4R16043   6.607   0.781   9.258  1.4017 -0.6802 -0.0238
  146SAPE   H4S16044   6.712   0.764   9.403  0.6993 -0.1030 -1.6638
  146SAPE   C2516045   6.623   0.960   9.394  0.1758 -0.2180 -0.0109
  146SAPE   H5R16046   6.639   0.990   9.498 -1.1133 -0.8753  0.4021
  146SAPE   C2616047   6.607   1.056   9.297  0.4322 -0.3203  0.2693
  146SAPE   H6R16048   6.627   1.159   9.329 -0.4797 -0.7410  2.3353
  146SAPE   C2716049   6.583   1.033   9.155 -0.5082 -0.0998  0.1830
  146SAPE   H7R16050   6.480   0.993   9.152 -0.7172  0.4296  0.1884
  146SAPE   H7S16051   6.638   0.945   9.115 -2.3467 -0.0625 -2.7058
  146SAPE   C2816052   6.594   1.145   9.058 -0.0563  0.0583  0.2761
  146SAPE   H8R16053   6.644   1.238   9.089 -2.5141  1.0777  1.4471
  146SAPE   C2916054   6.534   1.144   8.935 -0.2913  0.5917  0.3352
  146SAPE   H9R16055   6.560   1.221   8.861 -3.2069  3.3038  1.8848
  146SAPE  C21016056   6.447   1.033   8.877 -0.2546  0.3054  0.1892
  146SAPE  H10R16057   6.374   0.992   8.951 -0.9003  2.9349  1.1029
  146SAPE  H10S16058   6.506   0.943   8.849 -0.8423 -0.4267  1.1922
  146SAPE  C21116059   6.358   1.074   8.759 -0.4870 -0.1924  0.0673
  146SAPE  H11R16060   6.251   1.067   8.786 -0.0874 -0.9271  1.5107
  146SAPE  C21216061   6.384   1.092   8.630  0.1451  0.2054  0.1062
  146SAPE  H12R16062   6.300   1.124   8.567 -1.4106 -1.0303  1.4922
  146SAPE  C21316063   6.525   1.091   8.568  0.1797 -0.0451 -0.7091
  146SAPE  H13R16064   6.556   0.986   8.546 -0.2330 -0.0502 -1.2863
  146SAPE  H13S16065   6.600   1.131   8.640  0.9314 -0.4443 -1.2572
  146SAPE  C21416066   6.538   1.174   8.445  0.4488 -0.8524 -0.3713
  146SAPE  H14R16067   6.562   1.281   8.460  2.8452 -1.3072 -0.6453
  146SAPE  C21516068   6.513   1.136   8.323 -0.3634  0.8166  0.1227
  146SAPE  H15R16069   6.545   1.207   8.245  0.3117 -0.9644 -1.2645
  146SAPE  C21616070   6.455   1.005   8.277  0.8456 -0.7389 -0.1782
  146SAPE  H16R16071   6.348   1.009   8.248  0.6787  1.4195  0.5917
  146SAPE  H16S16072   6.470   0.935   8.362  1.7108  0.3200  0.5736
  146SAPE  C21716073   6.522   0.960   8.146 -0.0272 -0.0155 -0.2997
  146SAPE  H17R16074   6.486   1.036   8.073 -1.0067  2.2010  2.3547
  146SAPE  H17S16075   6.474   0.862   8.127  0.4536 -0.4680  0.7421
  146SAPE  C21816076   6.674   0.934   8.149 -0.6748  0.4492 -0.3668
  146SAPE  H18R16077   6.696   0.865   8.233  1.8697  1.4166 -0.1361
  146SAPE  H18S16078   6.727   1.030   8.170  1.6534 -0.5255 -1.4869
  146SAPE  C21916079   6.724   0.875   8.016  0.3762 -0.2638 -0.2532
  146SAPE  H19R16080   6.702   0.938   7.927  1.3380 -1.2137 -1.2014
  146SAPE  H19S16081   6.664   0.782   8.006 -0.3543 -0.0539  1.6837
  146SAPE  C22016082   6.870   0.830   8.013  0.1897  0.1734 -0.2765
  146SAPE  H20R16083   6.902   0.810   7.909 -1.9424  0.9344 -1.1358
  146SAPE  H20S16084   6.882   0.739   8.076  1.6470 -0.3385 -1.2520
  146SAPE  H20T16085   6.934   0.908   8.061 -2.4515  3.3832 -1.6238
  146SAPE   C3316086   5.959   0.168   8.999 -0.0131  0.0661  0.5283
  146SAPE   H3X16087   5.866   0.158   9.059  0.6172  0.2728  1.5608
  146SAPE   H3Y16088   6.025   0.083   9.026  0.1289 -0.4312 -1.2476
  146SAPE   C3416089   5.942   0.165   8.848  0.5257  0.0979 -0.1548
  146SAPE   H4X16090   5.898   0.258   8.805  2.2515  1.3608  0.6791
  146SAPE   H4Y16091   5.879   0.077   8.824  1.9180 -0.8480 -0.4107
  146SAPE   C3516092   6.078   0.148   8.786 -0.6110  0.3538 -0.4400
  146SAPE   H5X16093   6.119   0.047   8.806  2.0987  1.5739  0.7006
  146SAPE   H5Y16094   6.150   0.228   8.816 -1.4265  1.1155 -0.4698
  146SAPE   C3616095   6.086   0.170   8.633  0.6522 -0.0750  0.4259
  146SAPE   H6X16096   6.071   0.275   8.601  0.4303 -0.7461 -1.8742
  146SAPE   H6Y16097   6.002   0.119   8.581  0.2138  0.3026  0.7536
  146SAPE   C3716098   6.214   0.116   8.574  0.1523  0.3142  0.1067
  146SAPE   H7X16099   6.205   0.015   8.618 -3.1090  1.2796  1.9724
  146SAPE   H7Y16100   6.303   0.169   8.613  0.2328  0.2771 -0.0234
  146SAPE   C3816101   6.213   0.101   8.423  0.3523 -0.4204  0.1820
  146SAPE   H8X16102   6.314   0.103   8.376 -0.6849  1.8228 -2.1433
  146SAPE   H8Y16103   6.165   0.187   8.372 -2.0437 -0.6950  1.8437
  146SAPE   C3916104   6.141  -0.025   8.370 -0.6298  0.4280 -0.1710
  146SAPE   H9X16105   6.045  -0.044   8.422  0.3471  2.3574  2.5467
  146SAPE   H9Y16106   6.202  -0.115   8.396  0.2746  1.4210  1.3455
  146SAPE  C31016107   6.111  -0.014   8.220  0.5280  0.3987 -0.8262
  146SAPE  H10X16108   6.040   0.068   8.200  0.4988  0.6763  0.3076
  146SAPE  H10Y16109   6.052  -0.102   8.186  0.6984  0.3153 -0.9057
  146SAPE  C31116110   6.238  -0.033   8.144 -0.5348 -0.2390 -0.2254
  146SAPE  H11X16111   6.304  -0.114   8.183 -1.7273 -0.6179  1.0855
  146SAPE  H11Y16112   6.301   0.054   8.173 -1.6027 -0.0360  1.6431
  146SAPE  C31216113   6.238  -0.051   7.988 -0.6434 -0.4464 -0.0486
  146SAPE  H12X16114   6.223  -0.158   7.964  2.7185 -1.2939  1.0421
  146SAPE  H12Y16115   6.342  -0.021   7.961 -0.7173  0.9364  1.1055
  146SAPE  C31316116   6.141   0.052   7.925 -0.3252 -0.3247  0.3360
  146SAPE  H13X16117   6.159   0.149   7.976 -2.1358  0.0861  0.2516
  146SAPE  H13Y16118   6.037   0.019   7.946 -0.3655 -1.0592 -0.9651
  146SAPE  C31416119   6.146   0.073   7.774 -0.1328  0.4294  0.2917
  146SAPE  H14X16120   6.140  -0.018   7.712  1.4383  1.5698 -1.6531
  146SAPE  H14Y16121   6.237   0.125   7.739  1.3670 -1.0395  1.8281
  146SAPE  C31516122   6.030   0.159   7.737  0.3388 -0.4105  0.8586
  146SAPE  H15X16123   6.031   0.262   7.778  1.4654 -0.2597  0.4927
  146SAPE  H15Y16124   5.937   0.110   7.774  0.4795 -0.6223  0.9307
  146SAPE  C31616125   6.007   0.186   7.585 -0.6576 -0.1566  0.1552
  146SAPE  H16X16126   5.968   0.094   7.536  1.2642 -0.4253 -0.9716
  146SAPE  H16Y16127   6.110   0.207   7.550 -0.7218  1.3842  0.8120
  146SAPE  C31716128   5.916   0.308   7.560 -0.7274 -0.0628 -0.0744
  146SAPE  H17X16129   5.960   0.399   7.605 -0.8628  0.9118 -1.8094
  146SAPE  H17Y16130   5.816   0.292   7.605 -0.6187 -0.1959  0.1199
  146SAPE  C31816131   5.906   0.348   7.411 -0.3794 -0.2485 -0.5686
  146SAPE  H18X16132   5.865   0.258   7.359  2.6523 -1.8577 -0.4029
  146SAPE  H18Y16133   6.010   0.367   7.378 -1.1943  2.5548 -1.8227
  146SAPE  H18Z16134   5.832   0.431   7.405 -2.1401 -1.8128 -1.6640
  147SAPE     N16135   3.557   3.754   6.120  0.7347  0.1047  0.2417
  147SAPE   HN116136   3.621   3.758   6.202  0.4592 -1.4183  0.5646
  147SAPE   HN216137   3.483   3.827   6.119 -0.6068 -1.0062 -4.0461
  147SAPE   HN316138   3.507   3.664   6.133  0.1636  0.6515  2.0690
  147SAPE   C1216139   3.632   3.747   5.988 -0.3966  0.5223  0.4082
  147SAPE  H12A16140   3.555   3.707   5.919 -0.9116 -0.4117  1.4800
  147SAPE  H12B16141   3.720   3.680   6.002 -0.3875  0.4811  0.1563
  147SAPE   C1116142   3.681   3.886   5.935  0.3181  0.2188 -0.0752
  147SAPE  H11A16143   3.590   3.940   5.902  1.5681  2.1777 -0.5059
  147SAPE  H11B16144   3.730   3.869   5.837 -0.9362  0.3880 -0.7409
  147SAPE     P16145   3.832   4.086   5.971 -0.4853  0.3445 -0.1489
  147SAPE   O1316146   3.896   4.048   5.845 -0.2207  0.1299  0.5290
  147SAPE   O1416147   3.737   4.199   5.957  0.1158 -0.2540 -0.5801
  147SAPE   O1216148   3.761   3.948   6.030 -0.3161 -1.0074  0.2290
  147SAPE   O1116149   3.931   4.126   6.084 -0.4137 -0.0584  0.0612
  147SAPE    C116150   4.022   4.029   6.140  0.0019  0.5711  0.7609
  147SAPE    HA16151   4.050   3.956   6.062 -2.8428  0.1332  0.0321
  147SAPE    HB16152   4.110   4.092   6.167 -1.0666  2.5694 -0.1491
  147SAPE    C216153   3.958   3.975   6.274  0.5320 -0.0187  0.0033
  147SAPE    HS16154   3.847   3.970   6.274  0.5176  0.1820 -1.0938
  147SAPE   O2116155   3.988   4.061   6.388  0.3271 -0.2511 -0.2100
  147SAPE   C2116156   3.925   4.181   6.389  0.3446 -0.2003 -0.2841
  147SAPE   O2216157   3.819   4.200   6.331 -0.1460 -0.6458 -0.0392
  147SAPE   C2216158   3.986   4.285   6.483  0.0706  0.2478  0.1846
  147SAPE   H2R16159   4.001   4.247   6.587  1.3529 -0.5410 -0.2634
  147SAPE   H2S16160   4.092   4.288   6.449 -0.6441 -0.6737 -2.2882
  147SAPE    C316161   4.002   3.831   6.295  0.3058 -0.0457 -0.1885
  147SAPE    HX16162   4.112   3.812   6.294  0.0616 -1.5303 -0.4577
  147SAPE    HY16163   3.977   3.770   6.205  1.8032 -2.6371  1.0586
  147SAPE   O3116164   3.945   3.782   6.413  0.0488  0.2204 -0.3375
  147SAPE   C3116165   3.818   3.736   6.415  0.1798  0.3501 -0.2876
  147SAPE   O3216166   3.737   3.745   6.325  0.4606  0.6054 -0.0179
  147SAPE   C3216167   3.798   3.666   6.558 -0.4651 -0.1508 -0.0850
  147SAPE   H2X16168   3.892   3.634   6.609 -0.6725 -0.1840  0.2855
  147SAPE   H2Y16169   3.750   3.569   6.534 -0.3995 -0.2153  0.0418
  147SAPE   C2316170   3.914   4.419   6.501 -0.1461 -0.2887  0.5487
  147SAPE   H3R16171   3.892   4.461   6.400 -2.2270 -0.7265  0.7742
  147SAPE   H3S16172   3.980   4.489   6.557 -0.2854 -0.8127  1.3861
  147SAPE   C2416173   3.789   4.392   6.582  0.8101  0.1663  0.4133
  147SAPE   H4R16174   3.825   4.350   6.678  0.2489  0.4843  0.7662
  147SAPE   H4S16175   3.737   4.307   6.531 -0.3780  1.0901  0.0249
  147SAPE   C2516176   3.701   4.512   6.590  0.0218 -0.1041 -0.6722
  147SAPE   H5R16177   3.689   4.569   6.496  0.6334  1.0879 -0.0517
  147SAPE   C2616178   3.637   4.544   6.701 -0.4367 -0.0479  0.4599
  147SAPE   H6R16179   3.576   4.636   6.697  1.3721  1.1562 -1.4867
  147SAPE   C2716180   3.621   4.477   6.841 -0.0353 -0.6365 -0.1800
  147SAPE   H7R16181   3.693   4.395   6.860 -1.1469 -1.3873  0.9368
  147SAPE   H7S16182   3.521   4.430   6.851 -0.6572  0.8001  0.7767
  147SAPE   C2816183   3.633   4.589   6.946  0.6131 -0.1683 -0.4800
  147SAPE   H8R16184   3.725   4.649   6.935  0.2940  0.4653  0.2211
  147SAPE   C2916185   3.551   4.623   7.045 -0.5055 -0.2340 -0.3304
  147SAPE   H9R16186   3.575   4.716   7.099 -1.1686  0.4865 -1.2368
  147SAPE  C21016187   3.416   4.555   7.072  0.3871  0.0504  1.1375
  147SAPE  H10R16188   3.408   4.473   6.997  0.1407  2.0887 -1.2207
  147SAPE  H10S16189   3.344   4.634   7.041  0.4222 -1.1440 -2.4207
  147SAPE  C21116190   3.387   4.491   7.203  0.1578  0.2593  0.4836
  147SAPE  H11R16191   3.387   4.382   7.209 -1.0505  0.3026  1.8549
  147SAPE  C21216192   3.374   4.569   7.320  1.0415  0.8617 -0.5694
  147SAPE  H12R16193   3.355   4.512   7.412 -2.8571  1.1384 -1.0613
  147SAPE  C21316194   3.368   4.718   7.335 -0.6957  0.3935 -0.4955
  147SAPE  H13R16195   3.295   4.749   7.413 -0.5503  1.5736 -0.7985
  147SAPE  H13S16196   3.339   4.762   7.237 -1.3676 -0.2051 -0.5722
  147SAPE  C21416197   3.506   4.773   7.364  0.6912 -0.5966  0.1688
  147SAPE  H14R16198   3.588   4.706   7.391 -0.0348 -1.7915 -0.5039
  147SAPE  C21516199   3.531   4.911   7.371 -0.1284  0.4786  0.0272
  147SAPE  H15R16200   3.638   4.932   7.388 -0.3631  0.4021  1.7941
  147SAPE  C21616201   3.437   5.023   7.338 -0.4057 -0.2414  0.1986
  147SAPE  H16R16202   3.333   4.987   7.327 -1.2384  2.0058  0.2899
  147SAPE  H16S16203   3.475   5.069   7.244 -3.2673  1.6713 -0.1575
  147SAPE  C21716204   3.439   5.138   7.438  0.1457  0.2734 -0.3096
  147SAPE  H17R16205   3.544   5.173   7.441  1.7170 -3.9450  3.0154
  147SAPE  H17S16206   3.426   5.095   7.539 -1.2043  0.6823 -0.2881
  147SAPE  C21816207   3.334   5.246   7.413  0.3010  0.1443 -0.3925
  147SAPE  H18R16208   3.238   5.191   7.420  0.4269 -0.4434 -2.5464
  147SAPE  H18S16209   3.348   5.280   7.308 -0.5435 -0.8485 -0.8381
  147SAPE  C21916210   3.329   5.356   7.517  0.7216 -0.4412  0.6062
  147SAPE  H19R16211   3.310   5.316   7.619  0.0057 -0.4158  0.4896
  147SAPE  H19S16212   3.240   5.414   7.487  0.6529  0.1534  1.9055
  147SAPE  C22016213   3.449   5.445   7.521  0.1033 -0.4929 -0.5119
  147SAPE  H20R16214   3.545   5.392   7.543  0.1840  0.1289  0.7846
  147SAPE  H20S16215   3.447   5.534   7.588  4.1688 -0.2086 -0.4932
  147SAPE  H20T16216   3.465   5.500   7.426  0.3078  2.5342  1.1483
  147SAPE   C3316217   3.710   3.752   6.650 -0.8030 -0.3403 -0.5584
  147SAPE   H3X16218   3.615   3.761   6.592 -0.1487  0.0854 -1.5868
  147SAPE   H3Y16219   3.758   3.851   6.664 -1.5760 -0.3480  3.2374
  147SAPE   C3416220   3.670   3.676   6.776  0.6408  0.1899 -0.0293
  147SAPE   H4X16221   3.763   3.627   6.812 -0.3508 -0.9498  1.1107
  147SAPE   H4Y16222   3.615   3.583   6.749  1.2925  0.7330 -3.6789
  147SAPE   C3516223   3.608   3.752   6.891 -0.0716 -0.8667  0.5253
  147SAPE   H5X16224   3.687   3.821   6.928  1.4783 -2.7624  0.9155
  147SAPE   H5Y16225   3.573   3.678   6.966 -0.2154 -0.9848  0.3437
  147SAPE   C3616226   3.490   3.835   6.843 -0.1422  0.3370  0.6116
  147SAPE   H6X16227   3.424   3.755   6.804  0.9652 -1.8492  2.8967
  147SAPE   H6Y16228   3.512   3.903   6.758 -2.5669  1.6735  0.9501
  147SAPE   C3716229   3.429   3.911   6.956  0.0095 -0.4206 -0.1177
  147SAPE   H7X16230   3.483   4.005   6.982 -1.3626  1.0597 -2.2977
  147SAPE   H7Y16231   3.421   3.855   7.051 -1.3461  1.2144  0.8050
  147SAPE   C3816232   3.294   3.967   6.937  0.6520 -0.2013  0.0387
  147SAPE   H8X16233   3.231   3.877   6.923 -2.2900  2.0487 -2.3965
  147SAPE   H8Y16234   3.290   4.032   6.848 -0.4117  3.3630  2.4701
  147SAPE   C3916235   3.236   4.052   7.056 -0.3409  0.3599  0.8463
  147SAPE   H9X16236   3.135   4.078   7.019 -0.5579 -1.3259  0.1671
  147SAPE   H9Y16237   3.298   4.145   7.057  0.1025  0.1753 -1.9198
  147SAPE  C31016238   3.223   3.997   7.199 -0.5269 -0.2381 -0.0615
  147SAPE  H10X16239   3.316   3.944   7.227 -0.7444 -0.0582  1.0794
  147SAPE  H10Y16240   3.144   3.918   7.203  0.2360 -0.9906  2.6446
  147SAPE  C31116241   3.201   4.103   7.304  0.1945 -0.3072 -0.2976
  147SAPE  H11X16242   3.275   4.184   7.284  0.3949 -0.3718  0.1612
  147SAPE  H11Y16243   3.222   4.069   7.407  0.2926  0.2410 -0.1312
  147SAPE  C31216244   3.056   4.162   7.305  0.2961 -0.6337 -0.2071
  147SAPE  H12X16245   3.017   4.198   7.208 -4.5142  0.8819  1.9897
  147SAPE  H12Y16246   3.061   4.260   7.357 -0.4769 -0.0806 -1.1415
  147SAPE  C31316247   2.951   4.077   7.378  0.7360  0.0551 -0.1772
  147SAPE  H13X16248   2.945   3.970   7.346 -1.7707 -0.5133  1.7978
  147SAPE  H13Y16249   2.852   4.110   7.341  0.3492 -0.3446  0.4686
  147SAPE  C31416250   2.953   4.077   7.529  0.6032  0.8174  0.3486
  147SAPE  H14X16251   2.951   4.181   7.567  0.5015  1.2149 -0.7030
  147SAPE  H14Y16252   3.046   4.023   7.556  1.3676  2.1138  0.3695
  147SAPE  C31516253   2.841   3.996   7.595  0.0435  0.6167  0.0068
  147SAPE  H15X16254   2.849   3.889   7.566  1.9321  0.5456  0.6440
  147SAPE  H15Y16255   2.739   4.028   7.565 -0.0119 -0.0286 -0.5177
  147SAPE  C31616256   2.846   3.984   7.750 -0.8941  0.0164 -0.0944
  147SAPE  H16X16257   2.853   4.087   7.791 -2.5617 -0.4357  1.4295
  147SAPE  H16Y16258   2.942   3.931   7.769 -1.1414 -0.1636  0.6605
  147SAPE  C31716259   2.736   3.902   7.810 -0.3437 -0.2852 -0.3936
  147SAPE  H17X16260   2.765   3.862   7.910 -1.0081 -0.2863 -0.1944
  147SAPE  H17Y16261   2.714   3.824   7.734  2.3678 -0.0542 -1.5067
  147SAPE  C31816262   2.608   3.986   7.827  0.2480 -0.7091 -0.0973
  147SAPE  H18X16263   2.561   4.018   7.731  0.8610 -0.1200 -0.2118
  147SAPE  H18Y16264   2.612   4.071   7.898 -5.4866  1.0224 -1.2686
  147SAPE  H18Z16265   2.526   3.925   7.870 -0.9153  0.6183 -0.3470
  148SAPE     N16266   3.608   2.868   6.002  0.2958  0.3347 -0.3064
  148SAPE   HN116267   3.637   2.877   5.903 -2.4223  1.1743 -1.1139
  148SAPE   HN216268   3.651   2.786   6.049  0.5847  0.1276 -0.9251
  148SAPE   HN316269   3.504   2.857   5.997  0.5020 -1.6608 -0.9116
  148SAPE   C1216270   3.650   2.977   6.092 -0.1961 -0.1053  0.0603
  148SAPE  H12A16271   3.741   2.954   6.153 -1.4015  0.8892  2.3672
  148SAPE  H12B16272   3.572   2.995   6.169  1.4101  0.3759  1.6486
  148SAPE   C1116273   3.688   3.101   6.010  0.1866 -0.5161  0.4723
  148SAPE  H11A16274   3.791   3.094   5.969  0.0388 -0.7138  0.1315
  148SAPE  H11B16275   3.684   3.181   6.087  0.5906  0.4218 -0.4509
  148SAPE     P16276   3.548   3.251   5.846 -0.2380 -0.6985  0.1420
  148SAPE   O1316277   3.670   3.324   5.795  0.2436 -0.2438  0.0222
  148SAPE   O1416278   3.437   3.226   5.751  0.4929 -0.3073  0.3111
  148SAPE   O1216279   3.597   3.116   5.894  0.0760 -0.1250  0.0745
  148SAPE   O1116280   3.490   3.318   5.979 -0.2567  0.2632 -0.0086
  148SAPE    C116281   3.388   3.242   6.044  0.5244  0.5205  0.5426
  148SAPE    HA16282   3.289   3.265   5.999  0.1927  0.0658  1.0227
  148SAPE    HB16283   3.394   3.132   6.028 -2.2229  0.4266 -0.3313
  148SAPE    C216284   3.375   3.284   6.189  0.2295 -0.1440 -0.9814
  148SAPE    HS16285   3.341   3.389   6.183  0.9508  0.3224  1.8981
  148SAPE   O2116286   3.494   3.283   6.257  0.1727  0.6758 -0.5686
  148SAPE   C2116287   3.570   3.387   6.263 -0.5114  0.0760 -0.4675
  148SAPE   O2216288   3.546   3.501   6.237  0.3008 -0.2031  0.1767
  148SAPE   C2216289   3.700   3.338   6.325 -0.4949  0.1305  0.1352
  148SAPE   H2R16290   3.754   3.266   6.260 -0.2913 -1.0174  1.5264
  148SAPE   H2S16291   3.760   3.432   6.328  2.3631 -1.5410 -0.9775
  148SAPE    C316292   3.276   3.187   6.262  0.2064 -0.0417 -0.7209
  148SAPE    HX16293   3.175   3.192   6.216 -1.1015 -3.8427  1.2535
  148SAPE    HY16294   3.257   3.231   6.362 -0.3349 -0.1532 -0.7722
  148SAPE   O3116295   3.322   3.053   6.261  0.1744 -0.2284  0.3194
  148SAPE   C3116296   3.253   2.967   6.337  0.8840 -0.1595 -0.1107
  148SAPE   O3216297   3.140   2.978   6.378 -0.2381 -0.5454 -0.1166
  148SAPE   C3216298   3.336   2.838   6.350  0.3132  0.1121 -0.4087
  148SAPE   H2X16299   3.410   2.820   6.268  2.6738  5.1363  0.2445
  148SAPE   H2Y16300   3.263   2.755   6.352 -0.7249  0.9519  3.2602
  148SAPE   C2316301   3.672   3.271   6.462  0.1493 -0.4341  0.4652
  148SAPE   H3R16302   3.593   3.193   6.450  0.6930 -0.8474 -0.5847
  148SAPE   H3S16303   3.633   3.351   6.528  0.5378 -0.2538  0.4736
  148SAPE   C2416304   3.806   3.208   6.500 -0.2506  0.3911  0.2827
  148SAPE   H4R16305   3.885   3.286   6.491 -0.4725  0.4729 -1.4692
  148SAPE   H4S16306   3.825   3.130   6.423 -0.5948  2.5850 -2.1905
  148SAPE   C2516307   3.808   3.158   6.642  0.4299 -0.1613 -0.4755
  148SAPE   H5R16308   3.832   3.230   6.722  0.6201 -0.5630 -0.1643
  148SAPE   C2616309   3.808   3.028   6.684  0.1138 -1.1024 -1.0921
  148SAPE   H6R16310   3.849   3.001   6.782  2.8228  0.1439 -1.7959
  148SAPE   C2716311   3.772   2.910   6.607  0.2184  0.0300  1.0957
  148SAPE   H7R16312   3.685   2.938   6.543  0.2532 -0.1738  0.9576
  148SAPE   H7S16313   3.732   2.832   6.674  0.3890 -1.0470 -0.0293
  148SAPE   C2816314   3.884   2.842   6.527 -0.6174  0.1258 -0.1981
  148SAPE   H8R16315   3.894   2.890   6.429 -0.2286  0.5349  0.0368
  148SAPE   C2916316   3.977   2.755   6.568 -0.3748 -0.0559  0.2486
  148SAPE   H9R16317   4.060   2.729   6.500  0.1771  1.2322  0.3945
  148SAPE  C21016318   3.994   2.699   6.707 -0.4261 -0.6195  0.6235
  148SAPE  H10R16319   3.913   2.740   6.773 -2.8140 -3.3124 -0.4174
  148SAPE  H10S16320   4.090   2.725   6.756  0.2675 -2.4772  0.3109
  148SAPE  C21116321   3.987   2.549   6.699 -0.8453 -0.0930 -0.3194
  148SAPE  H11R16322   4.075   2.490   6.667 -1.0483  0.3699 -1.7612
  148SAPE  C21216323   3.876   2.484   6.689  0.0681  0.5658  0.0197
  148SAPE  H12R16324   3.880   2.374   6.698 -0.1343  0.4893 -0.7505
  148SAPE  C21316325   3.734   2.533   6.694  0.1183  0.3217 -0.0518
  148SAPE  H13R16326   3.709   2.600   6.609  0.9513  1.6211  0.6999
  148SAPE  H13S16327   3.718   2.579   6.795 -2.7172  0.6606 -0.5546
  148SAPE  C21416328   3.641   2.415   6.668 -0.8751  0.0377  1.1451
  148SAPE  H14R16329   3.646   2.388   6.561  0.3193  1.1676  0.8857
  148SAPE  C21516330   3.563   2.354   6.750 -0.4736  0.5597  0.9022
  148SAPE  H15R16331   3.501   2.274   6.707  0.3265  0.6665 -0.5209
  148SAPE  C21616332   3.553   2.369   6.900 -0.2000  0.1235  0.2966
  148SAPE  H16R16333   3.449   2.367   6.939 -0.4299 -0.4759 -0.3191
  148SAPE  H16S16334   3.604   2.461   6.936 -0.2737  0.0698  0.5386
  148SAPE  C21716335   3.628   2.246   6.969  0.5123 -0.5926  0.8116
  148SAPE  H17R16336   3.728   2.231   6.924  0.1927  1.8699 -0.9122
  148SAPE  H17S16337   3.567   2.153   6.957  0.4359 -0.5475  0.8471
  148SAPE  C21816338   3.640   2.268   7.120  0.1996 -0.6284  0.7555
  148SAPE  H18R16339   3.696   2.363   7.127 -1.7493  0.9391 -2.2940
  148SAPE  H18S16340   3.684   2.185   7.179 -0.1871 -0.9342  0.6181
  148SAPE  C21916341   3.521   2.317   7.199  0.2726  0.0626 -0.1712
  148SAPE  H19R16342   3.448   2.234   7.188 -0.7875  1.3147 -3.7993
  148SAPE  H19S16343   3.471   2.409   7.161 -0.2780 -1.1805 -2.6138
  148SAPE  C22016344   3.553   2.334   7.346 -0.2869 -0.0358 -0.1543
  148SAPE  H20R16345   3.601   2.245   7.390 -0.0171  0.8507  1.4372
  148SAPE  H20S16346   3.467   2.351   7.415 -0.5331 -0.9251 -0.2303
  148SAPE  H20T16347   3.623   2.418   7.365  0.2100 -0.5890  0.5209
  148SAPE   C3316348   3.412   2.835   6.487 -0.1527 -0.3903 -0.1401
  148SAPE   H3X16349   3.454   2.933   6.519  2.2922 -1.5755  0.5621
  148SAPE   H3Y16350   3.503   2.772   6.478  0.2351  0.4516 -3.5574
  148SAPE   C3416351   3.322   2.789   6.607  0.0936 -0.4674  0.1759
  148SAPE   H4X16352   3.261   2.700   6.580 -1.0005  0.3760 -0.2536
  148SAPE   H4Y16353   3.255   2.869   6.646  2.4904  1.1147  1.3041
  148SAPE   C3516354   3.408   2.757   6.730 -0.1542  0.0397  0.0771
  148SAPE   H5X16355   3.486   2.836   6.735  0.4735 -0.6816  3.3045
  148SAPE   H5Y16356   3.463   2.661   6.726  1.4468  0.7681  2.5461
  148SAPE   C3616357   3.334   2.780   6.863 -0.7961  0.1048 -0.2101
  148SAPE   H6X16358   3.251   2.707   6.876 -0.8166  0.1442 -0.1190
  148SAPE   H6Y16359   3.295   2.883   6.871 -0.8466  0.1094 -0.4989
  148SAPE   C3716360   3.421   2.746   6.990  0.5379 -0.9818  0.8095
  148SAPE   H7X16361   3.456   2.642   6.974  3.6520 -0.0513  0.9671
  148SAPE   H7Y16362   3.369   2.752   7.088  2.1304 -3.6365  1.9152
  148SAPE   C3816363   3.544   2.845   7.009  0.2138 -0.0745 -0.4259
  148SAPE   H8X16364   3.501   2.941   7.044 -0.0128 -0.1860 -0.3919
  148SAPE   H8Y16365   3.597   2.839   6.912  0.4271 -0.4196 -0.2879
  148SAPE   C3916366   3.639   2.804   7.116 -0.2202  0.4849 -0.4015
  148SAPE   H9X16367   3.576   2.772   7.202 -0.7477 -0.4286 -1.1083
  148SAPE   H9Y16368   3.696   2.889   7.160  0.6003 -0.9684  1.5288
  148SAPE  C31016369   3.740   2.686   7.087 -0.4805  0.0429  0.2577
  148SAPE  H10X16370   3.770   2.714   6.983 -1.5577 -1.0171 -0.3664
  148SAPE  H10Y16371   3.681   2.593   7.079  2.3250 -1.7786 -0.6296
  148SAPE  C31116372   3.870   2.688   7.175  0.0005 -0.0720  0.1378
  148SAPE  H11X16373   3.895   2.788   7.216  0.6052  0.4691 -1.4467
  148SAPE  H11Y16374   3.962   2.660   7.119 -0.3543  0.7120 -0.8632
  148SAPE  C31216375   3.858   2.588   7.285  0.2613  0.3321  0.1214
  148SAPE  H12X16376   3.817   2.501   7.230 -0.6242  1.4660 -1.0885
  148SAPE  H12Y16377   3.798   2.615   7.375  2.2626  1.2510  1.2484
  148SAPE  C31316378   3.989   2.551   7.358 -1.1346  1.0049 -0.1171
  148SAPE  H13X16379   4.024   2.642   7.410  2.9970 -1.4152  1.8137
  148SAPE  H13Y16380   4.068   2.522   7.286  0.2775  1.5316  1.1784
  148SAPE  C31416381   3.970   2.441   7.462 -0.3947  0.2836 -0.2654
  148SAPE  H14X16382   3.879   2.464   7.520 -0.5566 -1.0732  0.0592
  148SAPE  H14Y16383   4.062   2.443   7.524 -1.1621  1.2426  0.8746
  148SAPE  C31516384   3.956   2.302   7.390 -0.9918  0.2480  0.1110
  148SAPE  H15X16385   4.054   2.272   7.347 -2.1989 -2.6757 -0.8391
  148SAPE  H15Y16386   3.881   2.310   7.308 -1.6967 -1.3242  0.5818
  148SAPE  C31616387   3.910   2.191   7.493  0.4497 -0.7629  0.5318
  148SAPE  H16X16388   3.801   2.208   7.511  0.5295  1.2072 -0.5499
  148SAPE  H16Y16389   3.963   2.220   7.586  0.4228 -1.9169  0.9158
  148SAPE  C31716390   3.928   2.051   7.454 -0.7489 -0.2939  0.0346
  148SAPE  H17X16391   3.894   1.986   7.537 -1.7664  0.6235  0.3430
  148SAPE  H17Y16392   4.034   2.024   7.432 -0.5768  1.3420 -1.4049
  148SAPE  C31816393   3.845   2.021   7.326 -0.6771 -0.6681 -0.0763
  148SAPE  H18X16394   3.855   1.917   7.286 -0.8284  0.2930 -2.7928
  148SAPE  H18Y16395   3.882   2.089   7.246 -0.0248 -1.0428 -0.1050
  148SAPE  H18Z16396   3.737   2.041   7.337 -0.8301 -0.7631 -1.2876
  149SAPE     N16397   2.546   3.034   6.048 -0.1754  0.2748 -0.1883
  149SAPE   HN116398   2.553   2.969   5.967  0.6382  2.3270 -1.8503
  149SAPE   HN216399   2.627   3.036   6.114 -1.0855  0.1475  0.9520
  149SAPE   HN316400   2.461   3.011   6.102 -0.2563 -1.1033 -0.8598
  149SAPE   C1216401   2.523   3.167   5.986 -0.3305 -0.5325  0.2393
  149SAPE  H12A16402   2.559   3.241   6.060 -1.0209 -1.3646  1.4363
  149SAPE  H12B16403   2.412   3.169   5.985 -0.3402 -0.7005  0.7815
  149SAPE   C1116404   2.573   3.190   5.839  0.1828  0.0949 -0.0259
  149SAPE  H11A16405   2.547   3.292   5.804 -2.7624 -0.0111  1.5016
  149SAPE  H11B16406   2.525   3.114   5.774  0.6044  2.5152 -3.3787
  149SAPE     P16407   2.819   3.291   5.828 -0.1106  0.2138 -0.2735
  149SAPE   O1316408   2.958   3.244   5.866 -0.4006 -0.2159 -0.3446
  149SAPE   O1416409   2.799   3.346   5.691  0.2372  0.6556 -0.2153
  149SAPE   O1216410   2.719   3.169   5.841 -0.7164 -0.2119  0.7631
  149SAPE   O1116411   2.759   3.407   5.924  0.0407 -0.0614 -0.3486
  149SAPE    C116412   2.799   3.407   6.062  0.5138  0.3587  0.0325
  149SAPE    HA16413   2.709   3.435   6.122  1.7246  0.5574  1.8157
  149SAPE    HB16414   2.831   3.310   6.104 -2.9218 -0.2793  1.5621
  149SAPE    C216415   2.909   3.519   6.084 -0.2580 -0.6694  0.5445
  149SAPE    HS16416   2.986   3.493   6.009 -1.9036 -1.5177 -0.9320
  149SAPE   O2116417   2.953   3.515   6.215 -0.0994 -0.4482 -0.1883
  149SAPE   C2116418   3.075   3.559   6.241  0.3264  0.4017  0.2843
  149SAPE   O2216419   3.150   3.598   6.160 -0.2511 -0.6576  0.9935
  149SAPE   C2216420   3.089   3.572   6.392  0.7582  0.3865  1.7918
  149SAPE   H2R16421   3.005   3.639   6.420 -0.0954  0.6331 -1.0632
  149SAPE   H2S16422   3.064   3.474   6.439  0.6113 -0.5680 -0.1993
  149SAPE    C316423   2.855   3.662   6.031  0.2622  0.5772  0.1908
  149SAPE    HX16424   2.846   3.641   5.922 -1.3771 -0.5369  0.4903
  149SAPE    HY16425   2.940   3.729   6.053  2.1406 -1.6681  0.1106
  149SAPE   O3116426   2.740   3.705   6.102  0.0096  0.2959  0.5384
  149SAPE   C3116427   2.630   3.703   6.030  0.0740 -0.4263  0.8087
  149SAPE   O3216428   2.616   3.661   5.918  0.1010 -0.0734  0.6905
  149SAPE   C3216429   2.515   3.767   6.116  0.0881  0.5775 -0.6019
  149SAPE   H2X16430   2.416   3.756   6.067  0.4588 -2.2864 -0.8685
  149SAPE   H2Y16431   2.533   3.876   6.103 -0.1317  0.8030  0.8227
  149SAPE   C2316432   3.219   3.624   6.440  0.2327 -0.3648  0.0419
  149SAPE   H3R16433   3.265   3.707   6.383  1.9309 -1.3937 -0.1590
  149SAPE   H3S16434   3.303   3.551   6.432  1.8827  1.2532  1.5498
  149SAPE   C2416435   3.231   3.665   6.591 -0.4281 -0.3778 -0.1999
  149SAPE   H4R16436   3.341   3.680   6.604 -0.0573 -1.5185 -1.7680
  149SAPE   H4S16437   3.205   3.580   6.657 -0.3290 -0.0472  0.2734
  149SAPE   C2516438   3.154   3.793   6.620  0.3464  0.6457 -0.6504
  149SAPE   H5R16439   3.176   3.879   6.555 -4.1085  1.2031 -1.7118
  149SAPE   C2616440   3.047   3.804   6.705  0.6414  0.5463  0.0336
  149SAPE   H6R16441   2.979   3.891   6.705 -2.4932 -1.6029  3.1398
  149SAPE   C2716442   2.997   3.688   6.795 -0.3223 -0.7560 -0.2039
  149SAPE   H7R16443   3.075   3.652   6.865 -1.4126  0.6305  1.8473
  149SAPE   H7S16444   2.958   3.604   6.734 -0.8525 -0.6695  0.0060
  149SAPE   C2816445   2.888   3.735   6.891 -0.2498 -0.0673 -0.1231
  149SAPE   H8R16446   2.920   3.796   6.976  1.2067 -0.3693 -0.4415
  149SAPE   C2916447   2.755   3.717   6.871  0.9163 -0.4351 -0.0519
  149SAPE   H9R16448   2.684   3.744   6.951  1.9545  0.6671  0.5389
  149SAPE  C21016449   2.686   3.669   6.738  0.3510  0.1511 -0.3977
  149SAPE  H10R16450   2.620   3.584   6.765  0.3003  0.4183  0.3396
  149SAPE  H10S16451   2.765   3.627   6.671 -0.2990 -0.8378 -0.5554
  149SAPE  C21116452   2.617   3.783   6.674  0.6410 -0.6175 -0.2551
  149SAPE  H11R16453   2.682   3.856   6.623  0.6104  0.4079  1.1365
  149SAPE  C21216454   2.491   3.811   6.681  0.4814  0.2288 -0.4272
  149SAPE  H12R16455   2.444   3.900   6.637  1.5196  1.2053  0.3778
  149SAPE  C21316456   2.390   3.722   6.752 -0.4489 -0.5336 -0.3774
  149SAPE  H13R16457   2.439   3.668   6.835  2.9039  2.7973  0.1007
  149SAPE  H13S16458   2.361   3.633   6.692  0.0937  0.0077 -1.4842
  149SAPE  C21416459   2.263   3.796   6.795  0.2129 -0.4715 -0.0498
  149SAPE  H14R16460   2.191   3.833   6.721 -0.8747 -2.1494  0.1115
  149SAPE  C21516461   2.233   3.833   6.923  0.0880  0.1936 -0.1549
  149SAPE  H15R16462   2.144   3.896   6.943 -0.1960 -0.3314  0.2616
  149SAPE  C21616463   2.312   3.805   7.053  0.8461 -0.1903 -0.6663
  149SAPE  H16R16464   2.377   3.715   7.047 -0.0975 -0.9509  0.2430
  149SAPE  H16S16465   2.245   3.791   7.141  0.4283 -2.2534 -1.2604
  149SAPE  C21716466   2.414   3.922   7.081  0.0724  0.4995 -0.4537
  149SAPE  H17R16467   2.359   4.016   7.105 -2.6696 -1.1123 -0.0440
  149SAPE  H17S16468   2.490   3.921   7.000  0.2286 -2.0348 -0.3476
  149SAPE  C21816469   2.482   3.887   7.213  0.7780  0.0782  0.1627
  149SAPE  H18R16470   2.413   3.844   7.289 -0.0412 -0.3928 -0.8183
  149SAPE  H18S16471   2.523   3.979   7.260 -0.2053  0.0462  1.0996
  149SAPE  C21916472   2.614   3.809   7.201 -0.0510 -0.1743 -0.8169
  149SAPE  H19R16473   2.682   3.872   7.140  0.4681  0.9199  0.8142
  149SAPE  H19S16474   2.607   3.706   7.159 -1.2986 -0.3284 -0.2690
  149SAPE  C22016475   2.670   3.790   7.344 -0.9324  0.3219  0.4887
  149SAPE  H20R16476   2.693   3.892   7.384  1.1189 -0.2643  0.9087
  149SAPE  H20S16477   2.754   3.719   7.345  0.1685  1.5820  1.9475
  149SAPE  H20T16478   2.593   3.745   7.410 -0.1449 -3.3785 -0.9223
  149SAPE   C3316479   2.516   3.721   6.259  0.0797  0.6243  0.3632
  149SAPE   H3X16480   2.435   3.776   6.311 -1.8238 -0.1683 -1.6046
  149SAPE   H3Y16481   2.614   3.727   6.312 -1.4406 -2.9897  4.0989
  149SAPE   C3416482   2.482   3.574   6.260  0.2833  0.5450 -0.8351
  149SAPE   H4X16483   2.533   3.515   6.181  1.6825 -1.3658  1.3490
  149SAPE   H4Y16484   2.374   3.558   6.238 -0.2310  0.0799  1.6366
  149SAPE   C3516485   2.508   3.508   6.396 -0.3526 -0.2705  0.4946
  149SAPE   H5X16486   2.414   3.458   6.429  0.0780 -1.6425 -0.2824
  149SAPE   H5Y16487   2.522   3.589   6.470  0.2591 -0.0180  0.1062
  149SAPE   C3616488   2.619   3.405   6.396 -0.4846 -0.6093 -0.4687
  149SAPE   H6X16489   2.715   3.441   6.353 -0.7322  0.0249 -0.4981
  149SAPE   H6Y16490   2.596   3.315   6.335  0.9724 -0.9714 -0.5192
  149SAPE   C3716491   2.657   3.352   6.535  0.1153 -0.3682  0.3132
  149SAPE   H7X16492   2.563   3.326   6.588 -0.0577  0.6447  0.5035
  149SAPE   H7Y16493   2.704   3.438   6.587  1.0535  0.6778 -2.1170
  149SAPE   C3816494   2.758   3.236   6.546  0.6420 -1.5738  0.5629
  149SAPE   H8X16495   2.847   3.266   6.487 -1.0552  0.8067 -0.9200
  149SAPE   H8Y16496   2.708   3.149   6.497 -0.0807 -1.5708  1.2654
  149SAPE   C3916497   2.790   3.188   6.685 -0.0151 -0.0443  1.1727
  149SAPE   H9X16498   2.859   3.101   6.685 -0.1872 -0.1855  0.6105
  149SAPE   H9Y16499   2.703   3.146   6.740 -1.5591  1.0779 -0.3146
  149SAPE  C31016500   2.851   3.304   6.768  0.0567 -0.0641  0.6013
  149SAPE  H10X16501   2.782   3.391   6.773 -0.3008 -0.3304  0.4113
  149SAPE  H10Y16502   2.934   3.343   6.707 -1.4468  1.6655 -0.4579
  149SAPE  C31116503   2.887   3.260   6.905 -0.3421 -0.1317 -0.9114
  149SAPE  H11X16504   2.945   3.165   6.906 -1.2181 -0.6967  0.6633
  149SAPE  H11Y16505   2.790   3.246   6.958  0.2863 -2.3180 -0.2280
  149SAPE  C31216506   2.969   3.368   6.980  0.2683 -0.5812  0.1269
  149SAPE  H12X16507   3.003   3.440   6.902 -0.2918 -0.9499 -0.4648
  149SAPE  H12Y16508   3.061   3.325   7.026  1.1828  0.3903 -0.7347
  149SAPE  C31316509   2.887   3.427   7.092  0.4413 -0.0407 -0.7179
  149SAPE  H13X16510   2.840   3.349   7.156  1.5145  0.7286  1.0915
  149SAPE  H13Y16511   2.803   3.490   7.057  1.2733  0.1598 -2.4489
  149SAPE  C31416512   2.975   3.519   7.185 -0.8538 -0.9110 -0.1877
  149SAPE  H14X16513   2.910   3.603   7.216  0.5065  0.6504 -1.3587
  149SAPE  H14Y16514   3.049   3.576   7.124 -3.7213  3.9177  0.3360
  149SAPE  C31516515   3.055   3.457   7.299 -1.1864  0.5304  0.3875
  149SAPE  H15X16516   3.128   3.535   7.331 -1.0543  1.2900 -1.6520
  149SAPE  H15Y16517   3.104   3.370   7.250 -0.3659  0.9717  0.3990
  149SAPE  C31616518   2.972   3.409   7.422 -0.5233 -0.1479  0.1524
  149SAPE  H16X16519   3.037   3.340   7.479 -1.4125 -0.9889  0.1728
  149SAPE  H16Y16520   2.899   3.332   7.388 -0.7403 -0.3285  1.0049
  149SAPE  C31716521   2.915   3.511   7.518  0.6649  0.4628  0.4606
  149SAPE  H17X16522   2.833   3.563   7.463 -0.6001 -0.3275  1.5381
  149SAPE  H17Y16523   3.005   3.573   7.540  1.9160 -1.2685  0.3822
  149SAPE  C31816524   2.860   3.457   7.650  0.2260  0.2501 -0.4290
  149SAPE  H18X16525   2.799   3.366   7.628 -0.5521  0.9586 -1.3087
  149SAPE  H18Y16526   2.800   3.533   7.704  2.0967  0.1864  1.9029
  149SAPE  H18Z16527   2.940   3.431   7.723 -2.2566  0.2867  2.4993
  150SAPE     N16528   2.639   3.593   5.655 -0.3326 -0.0434 -0.4859
  150SAPE   HN116529   2.640   3.607   5.758  0.3695 -3.1953  0.0363
  150SAPE   HN216530   2.540   3.587   5.624 -0.4403  2.4206 -0.8134
  150SAPE   HN316531   2.681   3.502   5.627  0.8415 -0.0959  1.3404
  150SAPE   C1216532   2.712   3.710   5.585  0.2732  0.6577 -0.3254
  150SAPE  H12A16533   2.781   3.665   5.510  1.3100  1.6043  0.0261
  150SAPE  H12B16534   2.772   3.745   5.672  0.1975 -1.8325  0.8107
  150SAPE   C1116535   2.623   3.823   5.535 -0.2720  0.1786 -1.1003
  150SAPE  H11A16536   2.590   3.795   5.432  1.7189 -0.0953 -1.7083
  150SAPE  H11B16537   2.692   3.910   5.533 -0.0664  0.0750  0.4301
  150SAPE     P16538   2.473   4.008   5.640  0.3523  0.1814  0.3882
  150SAPE   O1316539   2.455   4.059   5.499 -0.0785  0.5214 -0.0724
  150SAPE   O1416540   2.364   4.018   5.730  0.6348  0.1663 -0.4431
  150SAPE   O1216541   2.516   3.855   5.628  0.5256  0.6514  0.3032
  150SAPE   O1116542   2.607   4.080   5.701 -0.0141 -0.1185  0.3185
  150SAPE    C116543   2.680   4.011   5.802 -0.7337 -0.8315  0.9262
  150SAPE    HA16544   2.622   3.928   5.846  0.4208 -1.3278  1.5542
  150SAPE    HB16545   2.782   3.982   5.767  0.3302  4.3724 -1.2640
  150SAPE    C216546   2.711   4.114   5.916 -0.2774 -0.0299  0.8638
  150SAPE    HS16547   2.772   4.198   5.876  2.0335 -1.5519  0.9553
  150SAPE   O2116548   2.797   4.042   6.010  0.1066  0.0685  0.1942
  150SAPE   C2116549   2.849   4.128   6.099 -0.0405  0.0365 -1.4696
  150SAPE   O2216550   2.832   4.249   6.105 -0.3387  0.4100  0.4282
  150SAPE   C2216551   2.932   4.051   6.211  1.4534  0.2388  0.4325
  150SAPE   H2R16552   2.905   3.944   6.199 -1.9825  0.7174  2.5151
  150SAPE   H2S16553   3.039   4.067   6.185  1.0153 -2.1701 -3.7004
  150SAPE    C316554   2.585   4.175   5.972 -0.3143  0.3434 -0.0344
  150SAPE    HX16555   2.557   4.254   5.899  1.6690  0.5304 -0.6647
  150SAPE    HY16556   2.607   4.220   6.071 -0.5750 -3.0110  1.6840
  150SAPE   O3116557   2.479   4.079   5.999  0.4805 -0.0883 -0.1162
  150SAPE   C3116558   2.355   4.113   5.999 -0.0247 -0.1888 -0.2339
  150SAPE   O3216559   2.307   4.224   5.966  0.1668  0.2875  0.5425
  150SAPE   C3216560   2.269   3.998   6.055 -0.4850 -0.0267 -0.4098
  150SAPE   H2X16561   2.314   3.959   6.149 -1.0788  3.6012  1.5553
  150SAPE   H2Y16562   2.266   3.918   5.978  1.2359 -0.1393 -0.3986
  150SAPE   C2316563   2.892   4.101   6.354 -0.3688  0.6480  0.0426
  150SAPE   H3R16564   2.887   4.212   6.350 -2.7905  0.5891  0.0389
  150SAPE   H3S16565   2.984   4.071   6.409 -0.6887 -1.4475 -0.4918
  150SAPE   C2416566   2.765   4.040   6.419  0.8091 -0.2777  0.0489
  150SAPE   H4R16567   2.747   4.075   6.523  0.4428 -2.2923  0.6896
  150SAPE   H4S16568   2.770   3.930   6.425 -0.4188 -0.5080 -2.2054
  150SAPE   C2516569   2.641   4.063   6.334 -0.0757  0.2457 -0.4411
  150SAPE   H5R16570   2.629   3.990   6.252 -2.5336  0.6009 -0.4742
  150SAPE   C2616571   2.551   4.165   6.340 -0.0205 -0.6917 -1.0301
  150SAPE   H6R16572   2.476   4.176   6.260 -0.1213  0.3860 -0.8091
  150SAPE   C2716573   2.560   4.284   6.438 -0.9377 -1.1858  0.0988
  150SAPE   H7R16574   2.667   4.311   6.443 -1.5558  2.0063 -1.4413
  150SAPE   H7S16575   2.548   4.250   6.544  0.7174 -0.7911  0.4385
  150SAPE   C2816576   2.467   4.398   6.416 -0.1169  0.6618  0.3945
  150SAPE   H8R16577   2.471   4.432   6.311  0.8556  0.1658  0.2551
  150SAPE   C2916578   2.358   4.435   6.481  0.0387  0.0713 -0.3423
  150SAPE   H9R16579   2.308   4.526   6.445  0.0898  0.2732  0.0892
  150SAPE  C21016580   2.301   4.386   6.610 -0.8907  0.3014 -0.2564
  150SAPE  H10R16581   2.216   4.455   6.628 -0.2260  1.5266 -1.6839
  150SAPE  H10S16582   2.378   4.406   6.687 -0.2432  2.3210 -1.3690
  150SAPE  C21116583   2.274   4.238   6.632 -0.0990 -0.4220 -0.1808
  150SAPE  H11R16584   2.252   4.177   6.543  1.3123  0.4208 -1.1439
  150SAPE  C21216585   2.272   4.176   6.752  0.2722 -0.1297 -0.2462
  150SAPE  H12R16586   2.261   4.067   6.746 -1.1686  0.0198 -0.6163
  150SAPE  C21316587   2.313   4.240   6.888  0.0029  0.5198  0.7179
  150SAPE  H13R16588   2.260   4.192   6.974 -3.4337  2.1043 -0.3595
  150SAPE  H13S16589   2.269   4.342   6.885 -2.2098 -0.4089 -0.6689
  150SAPE  C21416590   2.459   4.233   6.914  0.4795  0.5605 -0.8844
  150SAPE  H14R16591   2.503   4.133   6.919 -1.1547 -0.1204  0.6796
  150SAPE  C21516592   2.532   4.342   6.941 -0.1664 -0.1335  0.0384
  150SAPE  H15R16593   2.640   4.329   6.959 -0.2709  1.0028  1.7353
  150SAPE  C21616594   2.485   4.487   6.955  0.1779 -0.4134 -0.3036
  150SAPE  H16R16595   2.396   4.506   6.893 -1.7485 -2.4282  1.6603
  150SAPE  H16S16596   2.561   4.566   6.933 -1.5828  2.4340  2.7527
  150SAPE  C21716597   2.444   4.519   7.096 -0.0284  0.0382  0.4369
  150SAPE  H17R16598   2.376   4.438   7.130 -0.2664  1.0534  2.5350
  150SAPE  H17S16599   2.399   4.621   7.099 -0.3564 -0.0534 -0.8036
  150SAPE  C21816600   2.564   4.530   7.191 -0.4852 -0.4064 -0.6875
  150SAPE  H18R16601   2.648   4.589   7.147 -1.0900  1.0918  0.0875
  150SAPE  H18S16602   2.595   4.430   7.228  0.1958  0.1088  0.1735
  150SAPE  C21916603   2.535   4.613   7.317 -0.1021 -0.5531  0.2283
  150SAPE  H19R16604   2.476   4.704   7.292  1.4300  0.4719  0.2380
  150SAPE  H19S16605   2.633   4.654   7.349 -0.2776  0.8910 -1.0172
  150SAPE  C22016606   2.463   4.541   7.432  0.3479  0.1272 -0.2905
  150SAPE  H20R16607   2.451   4.608   7.519 -1.8057  0.3815 -0.7337
  150SAPE  H20S16608   2.520   4.451   7.463 -1.1829 -2.1244 -3.4124
  150SAPE  H20T16609   2.364   4.506   7.397  0.3299 -0.5262  0.3889
  150SAPE   C3316610   2.123   4.035   6.094  0.3339 -0.2938  0.7458
  150SAPE   H3X16611   2.077   3.940   6.129  2.1190 -1.6031 -0.2365
  150SAPE   H3Y16612   2.060   4.078   6.013  0.0701  0.3054  1.2666
  150SAPE   C3416613   2.106   4.135   6.208 -0.3117  0.1614 -0.2769
  150SAPE   H4X16614   2.147   4.231   6.174 -0.7032  0.7458  0.8350
  150SAPE   H4Y16615   2.166   4.115   6.299 -1.3763  0.1967  0.4559
  150SAPE   C3516616   1.967   4.177   6.252 -0.9472  0.4444 -0.6145
  150SAPE   H5X16617   1.899   4.194   6.166 -1.8091 -0.2724 -0.0932
  150SAPE   H5Y16618   1.975   4.278   6.300  0.7895 -0.0157  0.1483
  150SAPE   C3616619   1.898   4.086   6.352 -0.6332  0.0793 -0.3660
  150SAPE   H6X16620   1.896   3.985   6.305  1.8067 -0.4443  0.4760
  150SAPE   H6Y16621   1.789   4.107   6.354 -0.7716 -0.2811 -2.3127
  150SAPE   C3716622   1.966   4.086   6.488  0.1223  0.8124  0.1729
  150SAPE   H7X16623   2.033   4.174   6.491 -0.7604  1.5232 -0.4900
  150SAPE   H7Y16624   2.023   3.992   6.506 -1.7558 -0.1530  1.4573
  150SAPE   C3816625   1.859   4.109   6.593 -0.8172  0.2142  0.2046
  150SAPE   H8X16626   1.769   4.044   6.588 -0.8422  0.3536 -1.4355
  150SAPE   H8Y16627   1.816   4.210   6.580 -0.0829  0.5456  0.2763
  150SAPE   C3916628   1.899   4.090   6.738 -0.6605  1.0825 -0.1958
  150SAPE   H9X16629   1.962   4.174   6.774 -2.6687  2.5996 -0.0148
  150SAPE   H9Y16630   1.956   3.996   6.750 -2.6547 -0.3125 -1.0367
  150SAPE  C31016631   1.782   4.083   6.837  0.4492 -0.0783 -0.1600
  150SAPE  H10X16632   1.707   4.005   6.812  1.4731 -0.9649 -0.5425
  150SAPE  H10Y16633   1.735   4.183   6.844  0.7736  0.1762 -1.4076
  150SAPE  C31116634   1.817   4.049   6.985 -0.6814 -0.9208 -0.1433
  150SAPE  H11X16635   1.859   3.947   6.995  2.0891  0.2744  1.8940
  150SAPE  H11Y16636   1.726   4.063   7.046 -0.0508  0.1959  0.5798
  150SAPE  C31216637   1.934   4.134   7.039  0.3048  0.4863 -0.0505
  150SAPE  H12X16638   1.911   4.242   7.026  3.0345  1.2063  0.4548
  150SAPE  H12Y16639   2.025   4.120   6.978  0.2506  0.1604 -0.0622
  150SAPE  C31316640   1.968   4.098   7.183  0.4237  0.1348  0.7251
  150SAPE  H13X16641   2.009   3.995   7.196 -1.9921 -1.2663 -1.6591
  150SAPE  H13Y16642   1.875   4.089   7.243  1.0139  2.0209  2.0170
  150SAPE  C31416643   2.046   4.209   7.250  0.0862  0.1270 -0.3165
  150SAPE  H14X16644   1.972   4.291   7.258  0.9287  0.7548  2.2098
  150SAPE  H14Y16645   2.131   4.244   7.188 -0.6406 -1.5882 -2.4081
  150SAPE  C31516646   2.099   4.170   7.384  0.1667 -0.2918 -0.4449
  150SAPE  H15X16647   2.017   4.115   7.435 -0.1745 -0.0422 -0.7171
  150SAPE  H15Y16648   2.111   4.267   7.439 -1.7413  0.8377 -1.8816
  150SAPE  C31616649   2.229   4.087   7.388  0.3276 -0.3497  0.0811
  150SAPE  H16X16650   2.319   4.138   7.346  1.4483 -0.8895  1.6939
  150SAPE  H16Y16651   2.213   3.987   7.343 -1.9413 -0.5236  1.1241
  150SAPE  C31716652   2.295   4.059   7.526 -0.3662 -0.4288  0.4198
  150SAPE  H17X16653   2.319   4.161   7.561 -1.6010  0.6094 -1.5863
  150SAPE  H17Y16654   2.388   4.000   7.511 -1.3111 -2.0597  0.6242
  150SAPE  C31816655   2.206   3.992   7.631 -0.0054  0.3196 -0.0651
  150SAPE  H18X16656   2.146   3.908   7.590 -0.4043  0.0016  1.1282
  150SAPE  H18Y16657   2.128   4.066   7.659 -0.1702  0.5549 -1.0901
  150SAPE  H18Z16658   2.265   3.954   7.717  2.4992  3.6832 -0.0752
  151SAPE     N16659   5.093   2.479   5.593 -0.4075 -0.1069 -0.5589
  151SAPE   HN116660   5.155   2.539   5.651  1.0385 -1.2466 -0.8479
  151SAPE   HN216661   5.145   2.492   5.504  1.7702  2.1083  0.9158
  151SAPE   HN316662   4.997   2.516   5.578  0.1431  0.5599 -2.6900
  151SAPE   C1216663   5.103   2.337   5.636  0.4684  0.2037 -0.0401
  151SAPE  H12A16664   5.055   2.346   5.736  0.9662 -0.5239  0.2755
  151SAPE  H12B16665   5.213   2.323   5.638  0.4754  0.2826  0.1920
  151SAPE   C1116666   5.031   2.239   5.543  0.1047  0.3023  0.1619
  151SAPE  H11A16667   5.039   2.140   5.592  2.7078  0.0055 -0.6778
  151SAPE  H11B16668   5.092   2.230   5.450 -0.6510 -3.4946 -0.1336
  151SAPE     P16669   4.773   2.217   5.581  0.2763  0.5412  0.0288
  151SAPE   O1316670   4.648   2.290   5.539  0.5079 -0.0334 -0.3461
  151SAPE   O1416671   4.771   2.069   5.556 -0.0006 -0.5837 -0.5096
  151SAPE   O1216672   4.900   2.278   5.513 -0.3220 -0.1122  0.0092
  151SAPE   O1116673   4.817   2.240   5.729  0.3068 -0.2305 -0.2022
  151SAPE    C116674   4.763   2.160   5.837  0.0591  0.4842  0.1759
  151SAPE    HA16675   4.655   2.185   5.839  0.3050  1.9665 -1.8531
  151SAPE    HB16676   4.781   2.051   5.823 -2.1664  0.1051 -0.1739
  151SAPE    C216677   4.821   2.192   5.981  0.0784 -0.3523 -1.3851
  151SAPE    HS16678   4.907   2.123   5.985  0.1278 -0.2733 -1.0589
  151SAPE   O2116679   4.720   2.154   6.079  0.1234 -0.6313  0.9948
  151SAPE   C2116680   4.703   2.025   6.093  0.1548 -0.1210  0.3465
  151SAPE   O2216681   4.773   1.937   6.044 -0.1398  0.4332  0.0233
  151SAPE   C2216682   4.607   1.995   6.213 -0.2004 -0.1349 -0.2793
  151SAPE   H2R16683   4.518   2.062   6.209 -0.3680 -0.3999 -2.3069
  151SAPE   H2S16684   4.564   1.893   6.212 -0.4857 -0.1056  2.2637
  151SAPE    C316685   4.873   2.333   5.993  0.4368 -0.4284 -0.2249
  151SAPE    HX16686   4.786   2.402   5.980 -0.5606 -1.6354 -0.1304
  151SAPE    HY16687   4.933   2.362   5.904  0.3270 -0.2881 -0.2559
  151SAPE   O3116688   4.930   2.368   6.120 -0.2005 -0.4521  0.3614
  151SAPE   C3116689   5.059   2.328   6.141  0.4801 -0.0541  0.6948
  151SAPE   O3216690   5.131   2.270   6.059  0.1008  0.4895  0.1570
  151SAPE   C3216691   5.088   2.357   6.284 -0.2662 -0.4577  0.0996
  151SAPE   H2X16692   4.991   2.357   6.339 -1.0513 -1.7726 -1.1929
  151SAPE   H2Y16693   5.134   2.457   6.298  1.5674 -1.5642  2.9373
  151SAPE   C2316694   4.685   2.010   6.349 -0.6142  0.5705  0.3512
  151SAPE   H3R16695   4.739   2.107   6.345 -0.4992  0.4674 -0.7596
  151SAPE   H3S16696   4.754   1.926   6.374 -0.4643  0.7441  0.5297
  151SAPE   C2416697   4.596   2.015   6.476 -0.5571 -0.8129 -0.1991
  151SAPE   H4R16698   4.530   2.104   6.472  1.1111  0.4618 -0.3719
  151SAPE   H4S16699   4.674   2.036   6.553  0.6300  0.0953 -1.6049
  151SAPE   C2516700   4.524   1.892   6.512  0.1844 -0.0857  0.1733
  151SAPE   H5R16701   4.454   1.853   6.437 -0.2881 -0.8212  0.9771
  151SAPE   C2616702   4.542   1.816   6.623 -0.5401 -0.5596  0.3206
  151SAPE   H6R16703   4.474   1.731   6.642  0.0657 -0.9284  0.8912
  151SAPE   C2716704   4.643   1.841   6.731  0.1961  0.2048  0.2432
  151SAPE   H7R16705   4.739   1.877   6.687 -0.2238  0.2726 -0.6287
  151SAPE   H7S16706   4.669   1.748   6.785  1.5380  0.6649  0.4325
  151SAPE   C2816707   4.585   1.946   6.830 -0.8765  0.0606  0.8347
  151SAPE   H8R16708   4.482   1.985   6.826 -0.7506  0.3131 -0.1442
  151SAPE   C2916709   4.655   1.988   6.937 -0.1981 -0.1508  0.5911
  151SAPE   H9R16710   4.625   2.067   7.007 -0.0853  0.0305  0.4388
  151SAPE  C21016711   4.792   1.932   6.974  0.6510  0.5382 -0.2727
  151SAPE  H10R16712   4.799   1.837   6.917 -1.8091 -0.0858  0.3500
  151SAPE  H10S16713   4.785   1.912   7.083 -0.4558  1.2785 -0.1900
  151SAPE  C21116714   4.899   2.025   6.932 -0.3416  0.7776  0.5362
  151SAPE  H11R16715   4.909   2.025   6.823 -3.2200 -0.0950  0.1832
  151SAPE  C21216716   4.974   2.092   7.023 -0.4380 -0.4768  0.5718
  151SAPE  H12R16717   5.072   2.119   6.981 -0.9000 -1.6687 -1.4559
  151SAPE  C21316718   4.980   2.079   7.175  0.0059  0.2670  0.4675
  151SAPE  H13R16719   5.081   2.099   7.218  0.7137  0.8887 -1.3607
  151SAPE  H13S16720   4.946   1.977   7.199 -0.4192  0.1152 -0.7147
  151SAPE  C21416721   4.878   2.172   7.229 -0.5673  0.2984  0.5876
  151SAPE  H14R16722   4.794   2.203   7.164 -1.5844 -1.7640  0.8355
  151SAPE  C21516723   4.870   2.208   7.358 -0.3839  0.1455 -0.5092
  151SAPE  H15R16724   4.792   2.275   7.397 -0.1156 -0.2925  0.8335
  151SAPE  C21616725   4.979   2.181   7.465  0.4411 -0.3737 -0.3501
  151SAPE  H16R16726   5.028   2.277   7.494 -3.2393  1.3000  0.9598
  151SAPE  H16S16727   5.051   2.102   7.433  0.5914 -0.3615 -0.0489
  151SAPE  C21716728   4.927   2.119   7.599 -0.0761 -0.1304 -1.0376
  151SAPE  H17R16729   5.010   2.077   7.660 -1.8714  0.6775  2.1296
  151SAPE  H17S16730   4.853   2.045   7.563 -0.8216 -0.2948  0.7731
  151SAPE  C21816731   4.845   2.216   7.692 -0.0488  0.5909 -0.2154
  151SAPE  H18R16732   4.754   2.250   7.638 -0.3455 -1.5985 -1.2087
  151SAPE  H18S16733   4.911   2.300   7.722  0.1744  0.5999 -0.7150
  151SAPE  C21916734   4.782   2.152   7.818 -0.1431  0.3366 -0.4520
  151SAPE  H19R16735   4.855   2.085   7.866 -1.1903  0.0629  0.8095
  151SAPE  H19S16736   4.686   2.102   7.792  0.4437 -1.7021  1.1042
  151SAPE  C22016737   4.728   2.262   7.914 -0.2040  0.7865  0.8285
  151SAPE  H20R16738   4.811   2.330   7.943 -0.4441  0.7048  1.7392
  151SAPE  H20S16739   4.644   2.315   7.863 -0.9480 -1.2500 -0.1800
  151SAPE  H20T16740   4.691   2.215   8.007  0.6282  2.0342  1.8322
  151SAPE   C3316741   5.173   2.247   6.344 -0.0677  0.5860  0.3497
  151SAPE   H3X16742   5.278   2.278   6.323 -0.3542  0.8227 -0.8073
  151SAPE   H3Y16743   5.157   2.146   6.299 -0.9935  0.9780 -0.2395
  151SAPE   C3416744   5.156   2.233   6.500 -0.3272 -0.6695 -0.1631
  151SAPE   H4X16745   5.088   2.149   6.526  0.3340 -0.3204  3.0900
  151SAPE   H4Y16746   5.132   2.330   6.548  0.7276  0.1061 -1.1538
  151SAPE   C3516747   5.301   2.207   6.553  0.2896 -0.0417  0.8018
  151SAPE   H5X16748   5.355   2.302   6.531 -0.7089 -0.0639 -2.2787
  151SAPE   H5Y16749   5.330   2.123   6.486 -1.8650 -2.3596  2.5583
  151SAPE   C3616750   5.321   2.169   6.703 -0.1808  0.2522  0.4043
  151SAPE   H6X16751   5.290   2.062   6.709 -1.7120  0.6527  0.0941
  151SAPE   H6Y16752   5.246   2.230   6.757 -0.3628 -0.6328  1.1770
  151SAPE   C3716753   5.465   2.200   6.755  0.7681  0.0568 -0.0906
  151SAPE   H7X16754   5.496   2.292   6.701 -2.1714  1.4172  0.3228
  151SAPE   H7Y16755   5.539   2.123   6.728  0.2681 -0.2786 -0.5275
  151SAPE   C3816756   5.458   2.239   6.903 -0.3949  0.2941  0.2836
  151SAPE   H8X16757   5.397   2.332   6.912 -0.1255  0.5702 -0.5972
  151SAPE   H8Y16758   5.561   2.259   6.939  0.0707  0.4346 -1.0537
  151SAPE   C3916759   5.394   2.125   6.984  0.0381  0.0619 -0.5922
  151SAPE   H9X16760   5.396   2.031   6.924 -0.7094  0.2361 -0.9031
  151SAPE   H9Y16761   5.285   2.136   7.004  0.2962 -0.3488  1.1898
  151SAPE  C31016762   5.466   2.101   7.116  0.2546 -0.5179  0.2038
  151SAPE  H10X16763   5.487   2.195   7.172  2.5841 -0.2902 -0.9514
  151SAPE  H10Y16764   5.561   2.045   7.112  0.2604 -0.4435 -1.0782
  151SAPE  C31116765   5.385   2.014   7.209 -0.0667 -0.0487  0.3895
  151SAPE  H11X16766   5.377   1.919   7.152 -1.5991  1.8465 -2.8412
  151SAPE  H11Y16767   5.286   2.051   7.242 -0.4588 -0.9250  0.2125
  151SAPE  C31216768   5.467   1.974   7.338  0.3250  0.4430 -0.1051
  151SAPE  H12X16769   5.577   1.979   7.326  0.4696 -1.4157  0.1125
  151SAPE  H12Y16770   5.453   1.870   7.373 -0.2904  1.0919  1.7232
  151SAPE  C31316771   5.426   2.054   7.461  0.1392  0.9038 -0.3677
  151SAPE  H13X16772   5.321   2.024   7.480  0.2717  0.8868  0.3777
  151SAPE  H13Y16773   5.432   2.164   7.444  1.9008  1.2875  2.1931
  151SAPE  C31416774   5.507   2.008   7.590  0.1062  0.5360  0.4077
  151SAPE  H14X16775   5.533   1.904   7.564  0.3393  0.3826  1.2121
  151SAPE  H14Y16776   5.435   2.003   7.674 -2.5993  1.9865 -1.6586
  151SAPE  C31516777   5.614   2.103   7.641  0.5049 -0.8961  0.3799
  151SAPE  H15X16778   5.586   2.209   7.620 -0.8678 -1.7101 -2.4211
  151SAPE  H15Y16779   5.707   2.070   7.589  0.5506  1.2001 -1.0304
  151SAPE  C31616780   5.633   2.086   7.791 -0.0504 -0.1890  0.4517
  151SAPE  H16X16781   5.539   2.116   7.842 -0.3018  0.2805 -0.2716
  151SAPE  H16Y16782   5.713   2.161   7.806 -0.1320  0.1605 -0.6922
  151SAPE  C31716783   5.703   1.954   7.836  0.2785 -0.8036  0.1554
  151SAPE  H17X16784   5.796   1.957   7.774 -0.2509 -0.1127 -0.6381
  151SAPE  H17Y16785   5.635   1.876   7.796 -0.9017  1.0283 -1.6412
  151SAPE  C31816786   5.729   1.935   7.984 -0.7406  0.5094 -0.6538
  151SAPE  H18X16787   5.772   1.833   7.994  0.0449  0.7049 -1.8140
  151SAPE  H18Y16788   5.634   1.947   8.041  0.7002 -0.4133  2.1287
  151SAPE  H18Z16789   5.796   2.013   8.025  0.2136 -0.6026 -0.0488
  152SAPE     N16790   1.861   5.666   5.659 -0.4685 -0.1025  0.0307
  152SAPE   HN116791   1.825   5.753   5.704  1.5377  0.5735  0.4484
  152SAPE   HN216792   1.958   5.691   5.631 -1.1359 -1.6285 -4.2719
  152SAPE   HN316793   1.803   5.642   5.576  0.8041 -0.6788 -0.7125
  152SAPE   C1216794   1.850   5.569   5.764  0.5434 -0.0278 -0.3329
  152SAPE  H12A16795   1.860   5.623   5.860 -0.9653  0.2547 -0.3000
  152SAPE  H12B16796   1.933   5.497   5.748 -0.3413 -0.8786 -1.3413
  152SAPE   C1116797   1.715   5.493   5.775 -0.7097  0.1377  0.2848
  152SAPE  H11A16798   1.637   5.571   5.784 -1.2134 -0.0782 -1.7043
  152SAPE  H11B16799   1.708   5.438   5.871 -0.5879 -1.0283 -0.3548
  152SAPE     P16800   1.704   5.248   5.681  0.1298 -0.3090 -0.3928
  152SAPE   O1316801   1.637   5.200   5.807 -0.0982 -0.5890  0.3576
  152SAPE   O1416802   1.642   5.191   5.555  0.2032  0.1610  0.1720
  152SAPE   O1216803   1.681   5.406   5.672 -0.0280  0.3533  0.2258
  152SAPE   O1116804   1.858   5.229   5.687 -0.4848  0.6102 -0.5639
  152SAPE    C116805   1.917   5.117   5.753 -0.5528 -0.0790 -0.1447
  152SAPE    HA16806   1.862   5.022   5.735 -0.3812 -0.0770 -0.6773
  152SAPE    HB16807   2.013   5.102   5.700 -0.8051  0.9449 -0.9217
  152SAPE    C216808   1.945   5.141   5.903  0.3550 -0.4853  0.0221
  152SAPE    HS16809   1.843   5.151   5.946 -0.4070 -2.8464 -1.0412
  152SAPE   O2116810   2.023   5.266   5.908  0.1276 -0.1524 -0.1278
  152SAPE   C2116811   2.007   5.325   6.022  0.4078 -0.2729  0.2794
  152SAPE   O2216812   1.917   5.303   6.103  0.4036 -0.5430  0.3443
  152SAPE   C2216813   2.129   5.421   6.036 -0.0136  0.6592  0.4013
  152SAPE   H2R16814   2.192   5.411   5.946  1.7848  0.3402  1.6407
  152SAPE   H2S16815   2.090   5.524   6.031  2.2273  1.4837 -2.0108
  152SAPE    C316816   2.013   5.022   5.976  0.3639 -0.5040 -0.0641
  152SAPE    HX16817   2.104   4.987   5.923  2.0600  0.4096  2.0785
  152SAPE    HY16818   1.940   4.938   5.982 -0.3103  0.1040  0.3233
  152SAPE   O3116819   2.053   5.061   6.103 -0.0850  0.8850 -0.0872
  152SAPE   C3116820   1.977   5.023   6.212  0.1237  0.8547  0.0806
  152SAPE   O3216821   1.866   4.981   6.203  0.4405 -0.0773 -0.2213
  152SAPE   C3216822   2.042   5.037   6.347 -0.4036  0.2293  0.2350
  152SAPE   H2X16823   2.125   5.110   6.332 -1.1627  0.4822 -3.6371
  152SAPE   H2Y16824   2.086   4.938   6.373 -0.7830  0.1099  0.4385
  152SAPE   C2316825   2.215   5.394   6.163 -0.2266 -0.0433 -0.6969
  152SAPE   H3R16826   2.242   5.286   6.158  2.2274  0.4916 -0.6203
  152SAPE   H3S16827   2.153   5.404   6.254  0.5660  1.8758 -0.3185
  152SAPE   C2416828   2.333   5.489   6.164 -0.4862 -0.1211  0.0031
  152SAPE   H4R16829   2.308   5.582   6.219 -0.7772  0.5285 -1.1914
  152SAPE   H4S16830   2.359   5.518   6.059  1.0311 -1.3044  0.0149
  152SAPE   C2516831   2.458   5.440   6.229 -0.8914 -0.3614 -0.3771
  152SAPE   H5R16832   2.532   5.392   6.164  0.2031 -1.0515  1.3267
  152SAPE   C2616833   2.475   5.433   6.362 -0.8763 -0.8343 -0.3807
  152SAPE   H6R16834   2.568   5.389   6.400  0.8334  1.5624 -1.5039
  152SAPE   C2716835   2.368   5.476   6.465  0.1847  0.2502 -0.5459
  152SAPE   H7R16836   2.272   5.514   6.424 -0.3051  0.5527  0.7951
  152SAPE   H7S16837   2.408   5.564   6.521  1.0901  0.4950 -1.5557
  152SAPE   C2816838   2.337   5.369   6.571 -0.1271  0.2441  0.4905
  152SAPE   H8R16839   2.278   5.293   6.518  1.2494  0.6609 -1.8026
  152SAPE   C2916840   2.378   5.345   6.702 -0.3362 -0.0356  1.1210
  152SAPE   H9R16841   2.357   5.253   6.758 -0.7983 -0.2122  0.6697
  152SAPE  C21016842   2.493   5.427   6.770  0.8685  0.1656 -0.1323
  152SAPE  H10R16843   2.444   5.503   6.833  2.2108  0.5721  0.4553
  152SAPE  H10S16844   2.541   5.502   6.703 -1.4237  1.9499  0.0849
  152SAPE  C21116845   2.580   5.349   6.866 -0.1325  0.6138  0.2309
  152SAPE  H11R16846   2.541   5.347   6.969 -2.4513 -0.5055 -0.5885
  152SAPE  C21216847   2.693   5.284   6.842  0.7718  1.1767  1.2011
  152SAPE  H12R16848   2.733   5.215   6.918 -0.9335 -1.0148  0.1997
  152SAPE  C21316849   2.773   5.273   6.713  0.3616  0.8191  0.3281
  152SAPE  H13R16850   2.710   5.303   6.626 -1.7916 -0.5556  1.3433
  152SAPE  H13S16851   2.784   5.164   6.697 -0.6280  0.8706 -0.8440
  152SAPE  C21416852   2.911   5.340   6.714  0.3013  0.9237 -0.0850
  152SAPE  H14R16853   2.944   5.396   6.802 -1.5391  2.1813 -0.1162
  152SAPE  C21516854   2.979   5.346   6.602 -0.8004 -0.0989  0.5226
  152SAPE  H15R16855   3.078   5.395   6.605  1.0707 -3.5744  3.0504
  152SAPE  C21616856   2.934   5.287   6.474  0.2922 -0.2189 -0.1563
  152SAPE  H16R16857   2.845   5.342   6.438  0.7054  0.9406  0.5523
  152SAPE  H16S16858   2.896   5.183   6.490  1.1331 -0.1492  2.9752
  152SAPE  C21716859   3.037   5.285   6.362  0.3588  0.3595 -0.0525
  152SAPE  H17R16860   3.122   5.216   6.381 -0.2327 -0.2274  0.5320
  152SAPE  H17S16861   3.089   5.381   6.342 -0.7423  0.5714 -2.2364
  152SAPE  C21816862   2.978   5.263   6.220 -0.1095  0.3685  0.1649
  152SAPE  H18R16863   2.913   5.174   6.203 -2.0296  1.4299  1.5797
  152SAPE  H18S16864   3.064   5.244   6.152  1.6028  1.0444  2.0591
  152SAPE  C21916865   2.906   5.388   6.157  0.1640 -0.1017 -0.1814
  152SAPE  H19R16866   2.960   5.477   6.195  0.8042 -1.0162  1.1396
  152SAPE  H19S16867   2.803   5.406   6.197  1.2004  2.1152  1.7505
  152SAPE  C22016868   2.905   5.385   6.002  0.0923  0.5995  0.3353
  152SAPE  H20R16869   2.850   5.300   5.957  0.7559  0.9341 -1.1591
  152SAPE  H20S16870   3.007   5.393   5.958 -0.0653  2.9010  0.2379
  152SAPE  H20T16871   2.861   5.477   5.958  0.5961  0.5706 -0.2500
  152SAPE   C3316872   1.944   5.088   6.456  0.4124 -0.0921 -0.0624
  152SAPE   H3X16873   1.972   5.062   6.560 -1.1109  2.2771  1.0422
  152SAPE   H3Y16874   1.847   5.038   6.432  1.4311 -0.8755 -2.8274
  152SAPE   C3416875   1.924   5.240   6.459 -0.0022 -0.6266 -0.5026
  152SAPE   H4X16876   1.905   5.272   6.354  2.4055  1.1095 -0.4859
  152SAPE   H4Y16877   2.019   5.292   6.482  0.1499 -0.7484 -0.8364
  152SAPE   C3516878   1.818   5.290   6.560  0.2112 -1.1963 -0.3288
  152SAPE   H5X16879   1.717   5.249   6.538 -0.3754 -1.0706  1.9089
  152SAPE   H5Y16880   1.820   5.400   6.547  1.0127 -1.4327 -2.6784
  152SAPE   C3616881   1.838   5.250   6.710 -0.2544  0.1118  1.0770
  152SAPE   H6X16882   1.838   5.139   6.716  2.9815 -0.0724 -0.5106
  152SAPE   H6Y16883   1.758   5.302   6.767 -3.9067  0.3204 -3.6114
  152SAPE   C3716884   1.973   5.298   6.770  0.0412  0.2964 -0.2215
  152SAPE   H7X16885   2.002   5.402   6.741  2.5409 -0.2264  0.1545
  152SAPE   H7Y16886   2.054   5.244   6.716  0.4587  1.3686 -0.7001
  152SAPE   C3816887   1.979   5.271   6.925 -0.3922  0.0220  0.4863
  152SAPE   H8X16888   1.946   5.169   6.952  0.6146 -0.5383 -0.3252
  152SAPE   H8Y16889   1.918   5.350   6.974 -1.4321 -0.7665  0.4693
  152SAPE   C3916890   2.116   5.282   6.978 -0.4678 -0.2951 -0.3444
  152SAPE   H9X16891   2.178   5.363   6.933  1.6734 -1.1339  0.9208
  152SAPE   H9Y16892   2.166   5.186   6.953 -1.2748 -1.1906  1.3123
  152SAPE  C31016893   2.132   5.289   7.129  0.2592 -0.2326 -0.6490
  152SAPE  H10X16894   2.100   5.388   7.168  2.8093 -0.2386  1.7918
  152SAPE  H10Y16895   2.237   5.279   7.164 -0.7857 -0.6043  2.8177
  152SAPE  C31116896   2.048   5.175   7.205 -0.9601  0.0045 -0.5290
  152SAPE  H11X16897   2.079   5.083   7.150  1.6368  0.3768  0.1450
  152SAPE  H11Y16898   1.939   5.197   7.204 -0.5871  2.4085  1.2733
  152SAPE  C31216899   2.102   5.157   7.345  0.0066  0.0078 -0.8434
  152SAPE  H12X16900   2.206   5.120   7.345 -0.2260 -0.6654  0.0745
  152SAPE  H12Y16901   2.036   5.078   7.387  1.6838  0.0178  2.0867
  152SAPE  C31316902   2.086   5.282   7.420 -0.3278 -0.4842  0.4798
  152SAPE  H13X16903   1.993   5.337   7.393  0.9629  1.6981  0.1974
  152SAPE  H13Y16904   2.153   5.355   7.369 -0.8653 -0.4857 -0.2497
  152SAPE  C31416905   2.093   5.273   7.573  0.2645 -0.0577 -0.5727
  152SAPE  H14X16906   2.198   5.253   7.605  0.3256  1.0386 -0.0556
  152SAPE  H14Y16907   2.035   5.188   7.615 -0.5331  0.9383  0.3670
  152SAPE  C31516908   2.049   5.403   7.653 -0.6115 -0.9051  0.3082
  152SAPE  H15X16909   1.938   5.401   7.654 -0.6048 -1.8065 -0.0921
  152SAPE  H15Y16910   2.079   5.495   7.599 -1.7214  0.7929  2.4313
  152SAPE  C31616911   2.103   5.414   7.799  0.1064  0.4726  0.3688
  152SAPE  H16X16912   2.214   5.416   7.793  0.0360 -0.0612 -2.3614
  152SAPE  H16Y16913   2.079   5.327   7.863  0.4727  0.9854  1.2168
  152SAPE  C31716914   2.057   5.546   7.867  0.0369 -0.5594 -0.0391
  152SAPE  H17X16915   2.093   5.625   7.798 -1.0163 -0.4490 -0.4940
  152SAPE  H17Y16916   2.120   5.561   7.956  0.7946 -0.0434 -0.6523
  152SAPE  C31816917   1.905   5.570   7.902 -0.6975 -0.2586  0.2816
  152SAPE  H18X16918   1.878   5.658   7.965  1.3590  0.3241  0.4273
  152SAPE  H18Y16919   1.841   5.489   7.942  0.4011 -1.0084  0.5665
  152SAPE  H18Z16920   1.867   5.589   7.799  1.7275 -1.1004 -0.8352
  153SAPE     N16921   5.338   4.771   5.894  0.4565 -0.2182 -0.0428
  153SAPE   HN116922   5.422   4.806   5.842  0.7477  0.1063  0.6281
  153SAPE   HN216923   5.332   4.668   5.888  0.3641 -0.1473 -1.5208
  153SAPE   HN316924   5.264   4.816   5.837 -0.4297 -0.5547  0.8313
  153SAPE   C1216925   5.362   4.833   6.033 -0.2261  0.4438  0.7709
  153SAPE  H12A16926   5.463   4.805   6.070  0.7236  0.4487 -1.6402
  153SAPE  H12B16927   5.292   4.779   6.100 -0.8979  0.8480  0.4078
  153SAPE   C1116928   5.338   4.983   6.022 -0.3869 -0.3722  0.5978
  153SAPE  H11A16929   5.331   5.022   6.126  5.0900  0.8964  0.7644
  153SAPE  H11B16930   5.247   4.999   5.961 -0.7010 -0.7755  0.9557
  153SAPE     P16931   5.547   5.142   6.018 -0.0128  0.1013 -0.5459
  153SAPE   O1316932   5.650   5.184   5.924  0.0791 -0.4819  0.0820
  153SAPE   O1416933   5.468   5.243   6.095 -0.3043  0.0861 -0.1996
  153SAPE   O1216934   5.440   5.048   5.946 -1.1149  0.0423 -0.5694
  153SAPE   O1116935   5.605   5.041   6.122  0.1082  0.1128 -0.9151
  153SAPE    C116936   5.633   5.065   6.258 -0.2819  0.3716 -0.6067
  153SAPE    HA16937   5.737   5.096   6.277 -1.0319  1.6788  1.6589
  153SAPE    HB16938   5.568   5.144   6.303  0.4623  0.8311 -0.3330
  153SAPE    C216939   5.614   4.938   6.340  0.5310  0.1102  0.1558
  153SAPE    HS16940   5.508   4.904   6.343  0.7441 -0.5326  1.0199
  153SAPE   O2116941   5.645   4.979   6.477  0.1093 -0.3534 -0.7514
  153SAPE   C2116942   5.601   4.888   6.563  0.0735 -0.6373 -0.3834
  153SAPE   O2216943   5.519   4.797   6.543  0.1512 -0.6416 -0.3550
  153SAPE   C2216944   5.665   4.916   6.696  0.5946 -0.3349  0.0643
  153SAPE   H2R16945   5.773   4.903   6.675  0.1916 -1.9182 -1.2498
  153SAPE   H2S16946   5.632   5.017   6.728  1.0108 -0.2638  0.2668
  153SAPE    C316947   5.703   4.825   6.280 -0.0293 -0.1122 -0.0934
  153SAPE    HX16948   5.701   4.809   6.170  0.1432 -3.0059  0.2550
  153SAPE    HY16949   5.655   4.734   6.322  0.6811 -0.1409  0.6817
  153SAPE   O3116950   5.836   4.848   6.327 -0.3068  0.2838 -0.0617
  153SAPE   C3116951   5.905   4.736   6.308 -0.1044 -0.4105 -0.4512
  153SAPE   O3216952   5.856   4.628   6.278  0.1461  0.3506 -0.4523
  153SAPE   C3216953   6.062   4.747   6.330  1.1282 -0.2411 -0.5386
  153SAPE   H2X16954   6.100   4.654   6.282 -1.1508 -1.1325 -0.7463
  153SAPE   H2Y16955   6.083   4.722   6.437 -1.1768  0.1251  0.0518
  153SAPE   C2316956   5.644   4.811   6.803 -0.3419  0.3342  0.0589
  153SAPE   H3R16957   5.681   4.717   6.758 -0.9548  0.0190  0.2088
  153SAPE   H3S16958   5.535   4.799   6.821 -1.3219  1.4280 -4.1221
  153SAPE   C2416959   5.726   4.832   6.930  0.0155 -0.3014 -0.5660
  153SAPE   H4R16960   5.709   4.935   6.968  1.4211 -0.8727  1.7840
  153SAPE   H4S16961   5.835   4.831   6.911  0.1550  2.0589 -0.2647
  153SAPE   C2516962   5.679   4.726   7.034 -0.3431  0.0897  0.4413
  153SAPE   H5R16963   5.571   4.715   7.046 -0.0715 -1.5447  1.6095
  153SAPE   C2616964   5.756   4.646   7.109  0.8843  0.8911  0.0135
  153SAPE   H6R16965   5.708   4.583   7.186  2.0790 -0.3034 -0.1650
  153SAPE   C2716966   5.902   4.626   7.092  0.7468  1.3154  0.2406
  153SAPE   H7R16967   5.962   4.692   7.158  0.2401  1.2997  0.7213
  153SAPE   H7S16968   5.937   4.655   6.990 -0.0036  1.3890  0.0011
  153SAPE   C2816969   5.939   4.485   7.121  0.4901 -0.1797 -0.5117
  153SAPE   H8R16970   5.867   4.416   7.074 -0.2566 -0.2413  0.6783
  153SAPE   C2916971   6.054   4.446   7.183  0.0761 -0.8589  0.3502
  153SAPE   H9R16972   6.077   4.339   7.193 -0.8383 -1.0816  0.1750
  153SAPE  C21016973   6.164   4.538   7.230 -0.4966  0.7125 -0.2386
  153SAPE  H10R16974   6.179   4.625   7.163 -1.2713  0.8351 -0.2575
  153SAPE  H10S16975   6.256   4.476   7.223 -0.3941  0.9490 -1.1486
  153SAPE  C21116976   6.129   4.571   7.373  0.5511  0.0004 -0.7148
  153SAPE  H11R16977   6.023   4.582   7.400  0.5312  0.2035 -0.8738
  153SAPE  C21216978   6.221   4.565   7.475  0.2529 -0.0163  0.1853
  153SAPE  H12R16979   6.168   4.587   7.568  1.7504  1.3388  0.7592
  153SAPE  C21316980   6.371   4.538   7.477 -0.1487 -0.0316  0.0267
  153SAPE  H13R16981   6.406   4.571   7.376 -1.0018 -2.5133 -1.1567
  153SAPE  H13S16982   6.380   4.428   7.484 -2.7609 -0.2841  0.4454
  153SAPE  C21416983   6.455   4.609   7.584 -0.1030  0.0644  0.6048
  153SAPE  H14R16984   6.412   4.581   7.682 -4.5933  1.2121 -0.7793
  153SAPE  C21516985   6.555   4.697   7.571  0.6036 -0.3000  0.3204
  153SAPE  H15R16986   6.590   4.745   7.664  2.2987  1.2594 -1.0683
  153SAPE  C21616987   6.611   4.757   7.437 -0.3739  0.1824  0.3979
  153SAPE  H16R16988   6.619   4.868   7.444 -4.2402  0.6190  0.3740
  153SAPE  H16S16989   6.529   4.746   7.362 -0.9418  0.4335  0.9699
  153SAPE  C21716990   6.738   4.696   7.383 -0.0307 -0.1028  0.5085
  153SAPE  H17R16991   6.799   4.660   7.468  1.6929  1.4830  0.0166
  153SAPE  H17S16992   6.802   4.773   7.335 -2.1661  0.8116 -1.0758
  153SAPE  C21816993   6.707   4.578   7.296 -0.3377  0.1741 -0.1370
  153SAPE  H18R16994   6.643   4.593   7.207 -1.2992 -0.0903  0.4969
  153SAPE  H18S16995   6.642   4.513   7.359  0.4420  1.9073  2.6439
  153SAPE  C21916996   6.830   4.495   7.272  0.1705  0.2792 -0.4110
  153SAPE  H19R16997   6.790   4.395   7.245 -0.8450  0.4143  0.5190
  153SAPE  H19S16998   6.893   4.505   7.362 -1.6223 -0.6428  1.0068
  153SAPE  C22016999   6.918   4.557   7.160  0.9928  0.0614  0.2860
  153SAPE  H20R17000   6.867   4.567   7.062  2.6990  1.6585 -0.5183
  153SAPE  H20S17001   7.002   4.484   7.147  0.3300 -0.6509 -0.0687
  153SAPE  H20T17002   6.944   4.662   7.188 -2.1738  0.6843  1.2390
  153SAPE   C3317003   6.130   4.875   6.278  0.9329 -0.1612  0.1249
  153SAPE   H3X17004   6.089   4.880   6.175  1.0957 -0.6526  0.0331
  153SAPE   H3Y17005   6.239   4.876   6.255  0.5174  1.9190 -2.2960
  153SAPE   C3417006   6.095   5.012   6.346 -0.4764  0.9013  0.0617
  153SAPE   H4X17007   6.000   5.049   6.301  0.8927  0.9913 -3.0003
  153SAPE   H4Y17008   6.161   5.093   6.307 -2.4133  0.8024 -3.8483
  153SAPE   C3517009   6.101   5.014   6.503  0.7049  0.7293  0.3399
  153SAPE   H5X17010   6.200   4.984   6.543 -0.5069 -0.6795  2.5551
  153SAPE   H5Y17011   6.021   4.944   6.538  2.5071 -2.8837 -2.1529
  153SAPE   C3617012   6.076   5.152   6.559  0.0131 -0.5800 -0.2251
  153SAPE   H6X17013   5.981   5.196   6.522 -0.0768 -1.1018 -0.6225
  153SAPE   H6Y17014   6.153   5.226   6.527 -0.3026 -1.0547 -2.1748
  153SAPE   C3717015   6.061   5.145   6.710 -0.2921 -0.6392 -0.0465
  153SAPE   H7X17016   6.159   5.108   6.749  1.2462  1.4437 -1.6561
  153SAPE   H7Y17017   5.989   5.071   6.749  1.0450 -1.6371  0.6258
  153SAPE   C3817018   6.024   5.281   6.788 -0.3600 -0.5495  0.3258
  153SAPE   H8X17019   5.933   5.326   6.743 -1.1116 -0.5305  1.8283
  153SAPE   H8Y17020   6.112   5.347   6.769 -1.1701  0.5087  0.1420
  153SAPE   C3917021   6.020   5.266   6.938  0.3564 -0.6632 -1.0306
  153SAPE   H9X17022   6.031   5.366   6.986 -0.2332 -1.9296  1.9690
  153SAPE   H9Y17023   6.110   5.215   6.979  0.8190  0.2054 -0.9253
  153SAPE  C31017024   5.896   5.190   6.995 -1.0897 -0.6398  0.5284
  153SAPE  H10X17025   5.883   5.091   6.946  0.3694 -1.2199  1.2594
  153SAPE  H10Y17026   5.805   5.251   6.974 -0.7801 -0.5394 -0.5925
  153SAPE  C31117027   5.912   5.163   7.145  0.6008 -0.2518  0.2534
  153SAPE  H11X17028   5.932   5.260   7.194 -0.4253  1.1864 -1.9919
  153SAPE  H11Y17029   5.993   5.089   7.164  1.0623 -0.4227 -2.0719
  153SAPE  C31217030   5.796   5.092   7.219  0.0187  0.1013 -0.2028
  153SAPE  H12X17031   5.765   4.996   7.173  0.0736  0.3122 -0.6793
  153SAPE  H12Y17032   5.711   5.164   7.212 -0.8258 -0.5298  2.3996
  153SAPE  C31317033   5.811   5.059   7.363  0.3642 -0.0504 -0.6397
  153SAPE  H13X17034   5.829   5.145   7.430 -2.2227 -0.0409  0.1646
  153SAPE  H13Y17035   5.893   4.986   7.377 -0.7135 -1.0795  0.6797
  153SAPE  C31417036   5.681   4.994   7.405  0.8565  0.7319  0.3745
  153SAPE  H14X17037   5.668   4.910   7.334  1.2110  0.6578  0.3928
  153SAPE  H14Y17038   5.594   5.060   7.384 -2.2688 -2.8835  0.8244
  153SAPE  C31517039   5.681   4.936   7.548  0.2321  0.4077 -1.3982
  153SAPE  H15X17040   5.690   5.013   7.628 -1.0836  0.2394 -1.0641
  153SAPE  H15Y17041   5.755   4.857   7.570 -2.6187 -1.1781  4.5824
  153SAPE  C31617042   5.553   4.855   7.578  0.2821  0.0371  0.3391
  153SAPE  H16X17043   5.554   4.764   7.515 -0.3829  0.3615 -0.1533
  153SAPE  H16Y17044   5.465   4.918   7.552 -0.3311  0.0205  2.1779
  153SAPE  C31717045   5.537   4.816   7.731 -0.1820 -0.4990 -0.2929
  153SAPE  H17X17046   5.597   4.725   7.753  1.2864 -0.3148 -3.1068
  153SAPE  H17Y17047   5.431   4.783   7.736 -0.0217 -1.2843 -1.5933
  153SAPE  C31817048   5.571   4.925   7.839 -0.3733 -0.6754  0.0772
  153SAPE  H18X17049   5.680   4.943   7.840 -0.7075  1.7943 -0.5733
  153SAPE  H18Y17050   5.538   4.880   7.935 -1.8895  1.2720  0.5498
  153SAPE  H18Z17051   5.525   5.018   7.798  0.9180 -0.8873 -2.0084
  154SAPE     N17052   0.774   5.573   5.650  0.8791 -0.3871  0.0112
  154SAPE   HN117053   0.761   5.614   5.555 -1.6213 -2.1336 -0.4973
  154SAPE   HN217054   0.681   5.570   5.697  2.0035  3.1409  3.0043
  154SAPE   HN317055   0.835   5.645   5.695  0.8305 -0.4199  0.1289
  154SAPE   C1217056   0.827   5.436   5.622  0.1738 -1.0114 -0.0264
  154SAPE  H12A17057   0.937   5.446   5.621  0.1556 -0.5258  0.9515
  154SAPE  H12B17058   0.788   5.407   5.522 -2.4102 -0.3393  0.6965
  154SAPE   C1117059   0.803   5.322   5.722  0.3261  0.2187 -0.2583
  154SAPE  H11A17060   0.826   5.222   5.679 -1.5290 -0.2332 -0.2975
  154SAPE  H11B17061   0.693   5.304   5.725  0.4761 -0.9978 -1.1627
  154SAPE     P17062   0.852   5.242   5.967  0.2289 -0.4313 -0.2381
  154SAPE   O1317063   0.794   5.121   5.911 -0.0391 -0.1374 -0.3773
  154SAPE   O1417064   0.981   5.226   6.040  0.1973 -0.4570  0.0846
  154SAPE   O1217065   0.868   5.348   5.850  0.3442 -0.3472  0.3450
  154SAPE   O1117066   0.738   5.314   6.049  0.0945 -0.7519 -0.2376
  154SAPE    C117067   0.738   5.459   6.071  0.1835 -0.1661  0.2563
  154SAPE    HA17068   0.827   5.501   6.020  0.8719 -0.8853  0.8598
  154SAPE    HB17069   0.644   5.497   6.025  0.6006 -0.5574 -0.9578
  154SAPE    C217070   0.753   5.493   6.221 -0.2031 -0.3960  0.1390
  154SAPE    HS17071   0.770   5.602   6.231  0.0255 -0.5410  1.6089
  154SAPE   O2117072   0.847   5.414   6.299 -0.1096 -0.1602 -0.3327
  154SAPE   C2117073   0.978   5.436   6.269  0.2971 -0.8621 -0.0936
  154SAPE   O2217074   1.022   5.511   6.188 -0.1553 -0.8336  0.9270
  154SAPE   C2217075   1.055   5.370   6.376 -0.4533 -0.0100 -0.1403
  154SAPE   H2R17076   1.012   5.378   6.478  2.5628  0.9947  1.1584
  154SAPE   H2S17077   1.054   5.263   6.347 -1.9046 -0.2729  0.7510
  154SAPE    C317078   0.608   5.479   6.290  0.1548  0.0256 -0.1301
  154SAPE    HX17079   0.589   5.377   6.248 -0.1668 -0.1963  0.5525
  154SAPE    HY17080   0.534   5.540   6.235 -0.6245 -1.0853 -0.3449
  154SAPE   O3117081   0.599   5.479   6.435 -0.1317 -0.3502  0.2023
  154SAPE   C3117082   0.641   5.590   6.492  0.5495 -0.2683  0.1888
  154SAPE   O3217083   0.674   5.689   6.429  0.2277  0.3393  0.2206
  154SAPE   C3217084   0.632   5.580   6.646  0.3185  0.3969  0.6732
  154SAPE   H2X17085   0.529   5.551   6.675  0.4673  0.5606  1.3941
  154SAPE   H2Y17086   0.646   5.681   6.692  3.6219  0.1022  0.5876
  154SAPE   C2317087   1.209   5.414   6.391 -0.0193 -0.3393  0.1653
  154SAPE   H3R17088   1.220   5.525   6.390  0.1149 -0.3269 -1.9974
  154SAPE   H3S17089   1.256   5.383   6.295  0.0516  0.6173 -0.1175
  154SAPE   C2417090   1.266   5.335   6.510  0.1225  0.3906 -0.2447
  154SAPE   H4R17091   1.197   5.356   6.594 -0.2429  2.1691 -0.9401
  154SAPE   H4S17092   1.358   5.392   6.537  0.0167  0.5220 -0.1574
  154SAPE   C2517093   1.304   5.191   6.479  0.0912 -0.4142  0.4874
  154SAPE   H5R17094   1.346   5.183   6.377 -1.7166  0.2354 -0.3556
  154SAPE   C2617095   1.283   5.074   6.539 -0.1537 -0.0342  0.2228
  154SAPE   H6R17096   1.335   4.983   6.508  0.5661  0.2558  0.5654
  154SAPE   C2717097   1.224   5.054   6.678 -0.3627 -0.4392 -0.3188
  154SAPE   H7R17098   1.118   5.024   6.662 -0.5873  0.1935 -0.0410
  154SAPE   H7S17099   1.223   5.153   6.729 -3.3547  0.1964 -1.3532
  154SAPE   C2817100   1.282   4.944   6.760 -0.9397  0.1881 -0.4202
  154SAPE   H8R17101   1.277   4.840   6.725  0.6855 -1.0410  2.5874
  154SAPE   C2917102   1.337   4.946   6.884  0.5568 -0.8386 -0.0045
  154SAPE   H9R17103   1.383   4.856   6.929 -0.2093 -0.2179  2.1459
  154SAPE  C21017104   1.376   5.070   6.963  0.0777  0.0864 -0.2963
  154SAPE  H10R17105   1.362   5.168   6.912  3.3811  0.5917 -0.4054
  154SAPE  H10S17106   1.486   5.071   6.971  0.0085 -0.7204  1.1447
  154SAPE  C21117107   1.301   5.068   7.097  0.4178  0.3749  0.4772
  154SAPE  H11R17108   1.192   5.076   7.084  0.6906  0.2923 -2.5689
  154SAPE  C21217109   1.350   5.067   7.225 -0.5507  0.4663 -0.2287
  154SAPE  H12R17110   1.276   5.060   7.306 -0.2388 -0.4855 -0.0087
  154SAPE  C21317111   1.498   5.060   7.258 -0.0781  0.3823 -0.7430
  154SAPE  H13R17112   1.522   5.142   7.329 -0.1663 -0.5579  0.3904
  154SAPE  H13S17113   1.559   5.096   7.172  1.0991  0.2295  0.0167
  154SAPE  C21417114   1.542   4.925   7.304 -0.5306 -0.0591  0.5049
  154SAPE  H14R17115   1.480   4.844   7.264 -0.3751  0.2856 -0.4550
  154SAPE  C21517116   1.645   4.890   7.383 -0.0754 -0.0778  0.5836
  154SAPE  H15R17117   1.664   4.787   7.416  2.7053  0.1538 -0.0741
  154SAPE  C21617118   1.742   4.982   7.452  0.5450  0.2374  0.0376
  154SAPE  H16R17119   1.732   5.091   7.431 -1.2887  0.1631  0.4131
  154SAPE  H16S17120   1.847   4.949   7.437  0.8139  1.5395 -1.1840
  154SAPE  C21717121   1.741   4.971   7.600 -0.8157 -0.0671 -0.0804
  154SAPE  H17R17122   1.842   5.013   7.621 -1.4956  1.3460  0.4459
  154SAPE  H17S17123   1.751   4.865   7.633 -1.9777  0.0609  0.7200
  154SAPE  C21817124   1.628   5.041   7.679 -0.1176 -0.2238 -0.2823
  154SAPE  H18R17125   1.631   5.014   7.787 -1.7576  1.2800  0.1881
  154SAPE  H18S17126   1.534   4.993   7.645 -1.2628  0.5535  1.6625
  154SAPE  C21917127   1.612   5.192   7.653  0.4519  0.3042  0.0571
  154SAPE  H19R17128   1.616   5.196   7.542 -0.1705 -0.3439 -0.0021
  154SAPE  H19S17129   1.694   5.250   7.700  0.9006 -0.9186  0.8611
  154SAPE  C22017130   1.478   5.255   7.692 -0.5626  0.3903  0.4818
  154SAPE  H20R17131   1.488   5.365   7.696  1.3584  0.2652  0.0342
  154SAPE  H20S17132   1.451   5.216   7.793 -2.0846 -0.6927 -0.3071
  154SAPE  H20T17133   1.401   5.231   7.617 -0.7484  1.2226  0.3962
  154SAPE   C3317134   0.757   5.502   6.700  0.3220 -0.2270  0.0516
  154SAPE   H3X17135   0.856   5.548   6.678  1.3974 -1.0616  2.8012
  154SAPE   H3Y17136   0.757   5.398   6.659 -0.3682 -0.3320  0.2954
  154SAPE   C3417137   0.752   5.465   6.844  0.3807 -0.9126 -0.5981
  154SAPE   H4X17138   0.667   5.396   6.864  0.0457 -0.3770 -0.1289
  154SAPE   H4Y17139   0.735   5.552   6.912  1.6994  0.3837 -1.8733
  154SAPE   C3517140   0.882   5.392   6.897 -0.6686 -0.4258 -0.5419
  154SAPE   H5X17141   0.967   5.453   6.860 -0.9231 -1.2064 -2.5871
  154SAPE   H5Y17142   0.884   5.296   6.842 -0.7951 -0.5355 -0.3560
  154SAPE   C3617143   0.881   5.369   7.042  0.2090 -0.2225 -0.4109
  154SAPE   H6X17144   0.797   5.296   7.054  0.0802 -0.4675 -2.4337
  154SAPE   H6Y17145   0.840   5.453   7.101 -2.6347 -2.5002  1.1366
  154SAPE   C3717146   1.012   5.320   7.101 -0.4621 -0.9443  0.2925
  154SAPE   H7X17147   1.087   5.402   7.097 -0.3461 -0.8522  3.0845
  154SAPE   H7Y17148   1.055   5.244   7.032  1.1638 -1.4521  1.7997
  154SAPE   C3817149   1.014   5.258   7.239  0.3014 -0.0295  0.5844
  154SAPE   H8X17150   1.114   5.215   7.263  0.4008 -1.2649 -1.7554
  154SAPE   H8Y17151   0.939   5.177   7.240 -1.1181  1.2352  1.3321
  154SAPE   C3917152   0.980   5.363   7.349 -0.0304 -0.5069 -0.1412
  154SAPE   H9X17153   0.882   5.413   7.334  0.1430  0.8939  2.7493
  154SAPE   H9Y17154   1.066   5.431   7.362  0.5310 -1.2911  0.3163
  154SAPE  C31017155   0.957   5.284   7.483 -0.5844  0.3488 -0.1696
  154SAPE  H10X17156   0.898   5.193   7.460  1.1220 -0.8693  0.0481
  154SAPE  H10Y17157   0.898   5.345   7.554 -0.6095  2.1501 -1.6778
  154SAPE  C31117158   1.092   5.249   7.551  0.5376  0.9987 -0.1564
  154SAPE  H11X17159   1.146   5.341   7.581  2.0391 -0.2816  1.1705
  154SAPE  H11Y17160   1.156   5.201   7.475  0.6293  0.2603  0.3819
  154SAPE  C31217161   1.068   5.149   7.660  0.4947  0.3711 -0.6573
  154SAPE  H12X17162   0.985   5.186   7.723  0.5311 -0.0662 -0.3474
  154SAPE  H12Y17163   1.154   5.137   7.730 -0.3155  1.4268  0.5656
  154SAPE  C31317164   1.031   5.000   7.618  0.0798 -0.6928 -0.7482
  154SAPE  H13X17165   0.933   4.994   7.566 -0.0301  0.7740 -0.7408
  154SAPE  H13Y17166   1.032   4.941   7.713  2.6584  0.8689  0.2823
  154SAPE  C31417167   1.132   4.941   7.516  0.5150  0.7237  0.3089
  154SAPE  H14X17168   1.237   4.945   7.549  0.1768  0.2619  1.5035
  154SAPE  H14Y17169   1.129   4.994   7.418  1.3755 -0.9520 -0.6776
  154SAPE  C31517170   1.101   4.791   7.495  1.0157  0.0643 -0.2046
  154SAPE  H15X17171   1.145   4.761   7.398 -0.0493  1.0372 -1.0353
  154SAPE  H15Y17172   0.992   4.782   7.477  0.9337  0.4100  0.0924
  154SAPE  C31617173   1.146   4.704   7.610  0.2618 -1.0564 -0.1511
  154SAPE  H16X17174   1.145   4.755   7.709  2.0023  0.2446 -0.7721
  154SAPE  H16Y17175   1.253   4.680   7.591  0.7732  0.9656  0.0313
  154SAPE  C31717176   1.075   4.570   7.615 -0.5212  0.7403  0.1259
  154SAPE  H17X17177   1.068   4.537   7.509 -1.6009 -1.9781  0.9494
  154SAPE  H17Y17178   0.968   4.571   7.646 -0.5602 -2.2807  0.4023
  154SAPE  C31817179   1.153   4.472   7.699 -1.0897 -0.3609  0.4306
  154SAPE  H18X17180   1.262   4.484   7.680 -1.2192 -0.1508 -0.2380
  154SAPE  H18Y17181   1.120   4.367   7.688 -0.0575 -0.6222 -0.2840
  154SAPE  H18Z17182   1.132   4.499   7.805  2.4417 -1.6324  1.5672
  155SAPE     N17183   2.956   7.123   5.566 -1.0174  0.4918 -0.5831
  155SAPE   HN117184   3.036   7.075   5.614 -0.6011  0.3732 -1.3860
  155SAPE   HN217185   2.964   7.098   5.466 -2.1272 -1.7555 -0.1855
  155SAPE   HN317186   2.975   7.224   5.579 -3.0357  0.8003  0.3985
  155SAPE   C1217187   2.827   7.090   5.622  0.3881 -0.0600 -0.1882
  155SAPE  H12A17188   2.781   7.015   5.554 -1.2174  1.1789 -0.5394
  155SAPE  H12B17189   2.760   7.179   5.621  1.2532  0.6246  0.7858
  155SAPE   C1117190   2.846   7.028   5.762 -0.1504 -0.4636 -0.4405
  155SAPE  H11A17191   2.742   7.008   5.796 -0.8054  0.9537 -1.5270
  155SAPE  H11B17192   2.871   7.099   5.843  0.2242 -1.6626  0.5348
  155SAPE     P17193   2.904   6.788   5.848 -0.0751 -0.1926 -0.3702
  155SAPE   O1317194   2.784   6.734   5.785 -0.2229 -0.4298 -0.1810
  155SAPE   O1417195   3.026   6.713   5.865 -0.3565 -1.2005  0.5681
  155SAPE   O1217196   2.937   6.914   5.761 -0.0934  0.2981  0.0253
  155SAPE   O1117197   2.867   6.854   5.991 -0.1034 -0.4958  0.0470
  155SAPE    C117198   2.881   6.784   6.115 -0.0213 -0.5020 -0.1217
  155SAPE    HA17199   2.988   6.762   6.135  0.6119  0.2156 -2.4620
  155SAPE    HB17200   2.854   6.848   6.202  0.1771 -1.7948  0.9229
  155SAPE    C217201   2.792   6.664   6.134 -0.2192  0.4679  0.6030
  155SAPE    HS17202   2.825   6.594   6.055 -1.6789  0.6152 -0.1778
  155SAPE   O2117203   2.651   6.696   6.128 -0.0806  0.3516  0.2046
  155SAPE   C2117204   2.556   6.608   6.128 -0.4584  0.1113  0.2836
  155SAPE   O2217205   2.574   6.488   6.114 -0.3017 -0.6488 -0.4246
  155SAPE   C2217206   2.419   6.676   6.159 -0.6593  0.2152  0.1155
  155SAPE   H2R17207   2.448   6.781   6.180  0.9590  0.6897 -3.7552
  155SAPE   H2S17208   2.348   6.650   6.079  1.1901 -1.6683 -1.0208
  155SAPE    C317209   2.818   6.593   6.271  0.0959  0.3721  0.7291
  155SAPE    HX17210   2.920   6.550   6.269  0.1868  0.5471  1.4581
  155SAPE    HY17211   2.752   6.504   6.265  2.3392 -1.3093 -0.5844
  155SAPE   O3117212   2.792   6.675   6.392 -0.3435 -0.2531 -0.7156
  155SAPE   C3117213   2.897   6.732   6.440  0.6151  0.0934 -0.0261
  155SAPE   O3217214   3.010   6.719   6.394  0.3601 -0.3967  0.4798
  155SAPE   C3217215   2.850   6.829   6.551 -0.4359  0.0649 -0.2800
  155SAPE   H2X17216   2.765   6.886   6.507 -1.1815 -0.2678  0.7101
  155SAPE   H2Y17217   2.929   6.906   6.566  0.1487 -0.7931  1.3210
  155SAPE   C2317218   2.357   6.635   6.295 -0.0097 -0.1798 -0.1663
  155SAPE   H3R17219   2.353   6.524   6.295 -1.6553 -0.1587 -1.4511
  155SAPE   H3S17220   2.255   6.679   6.296 -0.8584 -2.0295  0.9002
  155SAPE   C2417221   2.440   6.657   6.428  0.0293 -0.7308  0.9757
  155SAPE   H4R17222   2.534   6.600   6.414 -0.0122 -1.1469  2.2674
  155SAPE   H4S17223   2.388   6.609   6.513  0.3368  1.0106  2.2079
  155SAPE   C2517224   2.458   6.803   6.457 -0.0300 -0.4259 -0.2829
  155SAPE   H5R17225   2.540   6.850   6.401 -0.1479  2.5946  1.8427
  155SAPE   C2617226   2.376   6.871   6.535  0.1804 -0.2661 -0.1581
  155SAPE   H6R17227   2.408   6.973   6.561 -1.0692  0.0962  0.0406
  155SAPE   C2717228   2.251   6.835   6.609  0.3813  0.4727 -0.1528
  155SAPE   H7R17229   2.238   6.724   6.608  2.1146  0.1854  1.8324
  155SAPE   H7S17230   2.167   6.887   6.559  0.7638  1.6022  0.3611
  155SAPE   C2817231   2.271   6.897   6.751 -0.1674  0.2005  0.2827
  155SAPE   H8R17232   2.240   7.002   6.762  1.1324  0.6437 -0.1876
  155SAPE   C2917233   2.307   6.831   6.863 -0.2317  0.2011  0.4430
  155SAPE   H9R17234   2.327   6.883   6.958 -1.8809 -1.4431  1.7766
  155SAPE  C21017235   2.353   6.690   6.874  0.1531  0.4649  0.8725
  155SAPE  H10R17236   2.462   6.681   6.858  0.1092 -0.6029  1.0814
  155SAPE  H10S17237   2.318   6.628   6.789  1.5681 -0.2295  0.7655
  155SAPE  C21117238   2.324   6.629   7.006  0.3035 -0.9957  0.1034
  155SAPE  H11R17239   2.216   6.637   7.027  0.4225  0.2575  0.2834
  155SAPE  C21217240   2.416   6.603   7.105 -0.3179 -0.1924 -0.4890
  155SAPE  H12R17241   2.386   6.546   7.194 -1.3948  1.2994  0.1341
  155SAPE  C21317242   2.569   6.615   7.086 -0.2745 -0.3918 -0.0346
  155SAPE  H13R17243   2.604   6.578   6.987  0.1888 -0.8305  0.2898
  155SAPE  H13S17244   2.625   6.549   7.155 -1.0534  0.0779  1.0679
  155SAPE  C21417245   2.625   6.753   7.098 -0.4168 -0.2290 -0.2943
  155SAPE  H14R17246   2.578   6.825   7.029 -0.6478 -0.4745 -0.3960
  155SAPE  C21517247   2.703   6.805   7.199 -0.1670 -0.1740  0.9267
  155SAPE  H15R17248   2.731   6.911   7.188  1.6668 -0.7142  0.0225
  155SAPE  C21617249   2.751   6.745   7.335 -0.0185  0.0656  0.5750
  155SAPE  H16R17250   2.856   6.779   7.349 -0.7528  3.0434 -0.4335
  155SAPE  H16S17251   2.745   6.634   7.339 -0.6543  0.0758  0.0930
  155SAPE  C21717252   2.657   6.797   7.444  0.3372  0.1605  0.6507
  155SAPE  H17R17253   2.642   6.907   7.447  1.0604  0.3413 -1.1929
  155SAPE  H17S17254   2.694   6.771   7.546 -1.4239  0.3979  1.3918
  155SAPE  C21817255   2.520   6.730   7.440  0.7218 -0.2446 -0.5585
  155SAPE  H18R17256   2.544   6.621   7.443  1.4084 -0.1998 -2.6341
  155SAPE  H18S17257   2.469   6.752   7.344 -2.1813  1.5067  1.2419
  155SAPE  C21917258   2.439   6.774   7.562  0.4813 -0.1157  0.1222
  155SAPE  H19R17259   2.351   6.707   7.572  0.9144 -0.8365 -0.6861
  155SAPE  H19S17260   2.384   6.869   7.551 -1.7876 -1.4130 -0.3707
  155SAPE  C22017261   2.506   6.754   7.696 -0.0455 -0.5322 -0.2705
  155SAPE  H20R17262   2.585   6.831   7.706  1.6992 -2.3308  0.4080
  155SAPE  H20S17263   2.566   6.663   7.716  1.7817  0.9815  1.7038
  155SAPE  H20T17264   2.435   6.772   7.779 -0.0135 -0.5597 -0.2369
  155SAPE   C3317265   2.813   6.743   6.678  0.5069  0.2059  1.0077
  155SAPE   H3X17266   2.741   6.660   6.662 -0.6689  0.5997  3.6376
  155SAPE   H3Y17267   2.743   6.806   6.738  0.5122  0.1342  1.0894
  155SAPE   C3417268   2.932   6.697   6.765  0.0144 -0.7053 -0.5022
  155SAPE   H4X17269   3.006   6.773   6.797 -1.1501 -0.5836  2.1719
  155SAPE   H4Y17270   2.991   6.620   6.709 -0.3537 -2.0385  0.8794
  155SAPE   C3517271   2.892   6.631   6.899 -0.4415  0.2901 -0.4885
  155SAPE   H5X17272   2.807   6.562   6.882 -0.4682  0.2849 -0.3295
  155SAPE   H5Y17273   2.843   6.710   6.959  0.5240 -0.6990  1.7266
  155SAPE   C3617274   3.012   6.559   6.970  0.1413  0.2234  0.3182
  155SAPE   H6X17275   3.072   6.644   7.009  1.6223 -0.6780  0.0543
  155SAPE   H6Y17276   3.068   6.483   6.912  0.4392  1.1983 -0.7154
  155SAPE   C3717277   2.963   6.486   7.097  0.0429  0.2332  0.3940
  155SAPE   H7X17278   2.892   6.406   7.065  1.0227 -1.3764  2.0506
  155SAPE   H7Y17279   2.901   6.548   7.165  1.4203  1.0684  0.9172
  155SAPE   C3817280   3.081   6.429   7.177  0.4562  0.2957  0.1614
  155SAPE   H8X17281   3.139   6.512   7.225  0.9689  1.0801 -1.7167
  155SAPE   H8Y17282   3.156   6.373   7.117 -0.1037 -1.3929  0.9844
  155SAPE   C3917283   3.033   6.337   7.286  0.3080 -0.3594  0.1414
  155SAPE   H9X17284   3.014   6.236   7.244  1.4261 -0.7677  0.5779
  155SAPE   H9Y17285   2.942   6.377   7.337 -1.7432 -1.0999 -2.6579
  155SAPE  C31017286   3.147   6.318   7.389  0.4200  0.1207  0.2515
  155SAPE  H10X17287   3.178   6.416   7.431  0.8260  0.6469 -1.2265
  155SAPE  H10Y17288   3.241   6.267   7.357  0.0062  0.7628 -2.1895
  155SAPE  C31117289   3.091   6.246   7.516  0.4393 -0.2370  0.3585
  155SAPE  H11X17290   3.080   6.138   7.491 -0.6658 -0.1850  0.5418
  155SAPE  H11Y17291   2.993   6.291   7.544  0.4099  0.1644 -0.3660
  155SAPE  C31217292   3.186   6.233   7.635  0.1466  0.4687 -0.0834
  155SAPE  H12X17293   3.225   6.333   7.663  1.7205  0.0762 -0.7721
  155SAPE  H12Y17294   3.271   6.167   7.608 -2.2186 -2.4569 -1.0860
  155SAPE  C31317295   3.122   6.158   7.753  0.7330 -0.3458 -0.1340
  155SAPE  H13X17296   3.082   6.062   7.713  0.0206  0.3927 -1.2507
  155SAPE  H13Y17297   3.036   6.213   7.795 -1.3313 -3.0857 -0.4921
  155SAPE  C31417298   3.219   6.139   7.866 -0.5384 -0.0579  0.3470
  155SAPE  H14X17299   3.168   6.112   7.961 -0.2812  1.7332  1.0356
  155SAPE  H14Y17300   3.270   6.236   7.887  0.6930 -0.1559 -1.9196
  155SAPE  C31517301   3.339   6.039   7.836  0.1419 -0.5774  0.0145
  155SAPE  H15X17302   3.415   6.067   7.911 -0.8929 -1.1169  1.2967
  155SAPE  H15Y17303   3.375   6.045   7.731  0.9662 -2.4240  0.1530
  155SAPE  C31617304   3.313   5.894   7.865  0.8493 -0.8932 -0.5309
  155SAPE  H16X17305   3.241   5.870   7.784  0.0563 -0.6654  0.0884
  155SAPE  H16Y17306   3.262   5.889   7.964  1.4241  1.0846 -0.0925
  155SAPE  C31717307   3.428   5.811   7.860 -0.3888  0.6727  0.1442
  155SAPE  H17X17308   3.503   5.835   7.938 -2.1512  0.5896  1.9337
  155SAPE  H17Y17309   3.478   5.843   7.766 -0.0229  2.6660  0.9739
  155SAPE  C31817310   3.402   5.658   7.861 -0.1453  0.3645 -0.1920
  155SAPE  H18X17311   3.503   5.612   7.850 -0.5844 -0.4332 -1.0790
  155SAPE  H18Y17312   3.332   5.640   7.776 -1.0035  2.3436  0.0433
  155SAPE  H18Z17313   3.361   5.633   7.961  0.3709 -0.3095 -0.1452
  156SAPE     N17314   1.166   5.354   5.891 -1.0811 -0.0691 -0.7622
  156SAPE   HN117315   1.086   5.319   5.947 -1.0624  1.1573  0.0843
  156SAPE   HN217316   1.141   5.334   5.793 -1.4733 -1.5265 -0.3886
  156SAPE   HN317317   1.259   5.311   5.910 -1.2070  0.0584  0.2023
  156SAPE   C1217318   1.180   5.506   5.897  0.2673  0.6078 -0.5157
  156SAPE  H12A17319   1.204   5.534   6.002 -0.6314 -0.6773  0.0649
  156SAPE  H12B17320   1.077   5.543   5.876 -0.9622 -1.1022  1.9940
  156SAPE   C1117321   1.280   5.563   5.793  0.6598  0.2914  0.0874
  156SAPE  H11A17322   1.253   5.521   5.693 -2.3611  1.0817  0.4658
  156SAPE  H11B17323   1.383   5.538   5.824  0.2655  0.3234  1.4734
  156SAPE     P17324   1.334   5.803   5.869 -0.5933  0.2004 -0.0480
  156SAPE   O1317325   1.472   5.758   5.897 -0.5089 -0.4537 -0.6519
  156SAPE   O1417326   1.317   5.941   5.815  0.3645 -0.6341  0.1798
  156SAPE   O1217327   1.261   5.700   5.766 -0.0751  0.0617 -0.3341
  156SAPE   O1117328   1.243   5.786   5.994  0.4841 -0.1989 -0.2332
  156SAPE    C117329   1.290   5.786   6.124  0.2994  0.2551 -0.6115
  156SAPE    HA17330   1.209   5.747   6.190  0.9887 -1.2417 -0.6282
  156SAPE    HB17331   1.376   5.718   6.139  0.1039 -0.0842 -1.0049
  156SAPE    C217332   1.333   5.919   6.174  0.0877 -0.0509 -0.3463
  156SAPE    HS17333   1.427   5.954   6.126 -0.0460 -0.4720 -0.9350
  156SAPE   O2117334   1.354   5.904   6.313  0.0840 -0.1773  0.1883
  156SAPE   C2117335   1.442   5.989   6.367 -0.2539 -0.1513  0.4192
  156SAPE   O2217336   1.497   6.079   6.305 -0.2667 -0.0048 -0.5968
  156SAPE   C2217337   1.462   5.969   6.512  0.5566 -0.2796 -0.1436
  156SAPE   H2R17338   1.441   5.862   6.531 -0.0793 -0.4741 -1.7659
  156SAPE   H2S17339   1.559   6.004   6.555  0.6553 -0.3525 -0.3076
  156SAPE    C317340   1.221   6.025   6.152  0.9516 -0.3776  0.1302
  156SAPE    HX17341   1.204   6.035   6.043  1.0473  0.7071  0.2030
  156SAPE    HY17342   1.257   6.124   6.187 -0.1453  0.2104 -0.3542
  156SAPE   O3117343   1.094   5.982   6.205 -0.2115  0.1495 -0.1311
  156SAPE   C3117344   1.059   6.049   6.320  0.2961  0.1252  0.3192
  156SAPE   O3217345   1.125   6.138   6.368  0.4105  0.0517  0.1757
  156SAPE   C3217346   0.920   6.005   6.356  0.6421  0.1534  0.0309
  156SAPE   H2X17347   0.883   5.935   6.279 -0.1103  0.9465 -0.3478
  156SAPE   H2Y17348   0.844   6.086   6.349 -3.3321 -3.3954 -1.6442
  156SAPE   C2317349   1.339   6.036   6.590  0.5576 -0.4893  0.0734
  156SAPE   H3R17350   1.240   5.995   6.564 -0.7191  0.9548  2.3147
  156SAPE   H3S17351   1.335   6.138   6.547 -0.4593 -1.7145 -2.9402
  156SAPE   C2417352   1.355   6.024   6.737  0.1028 -0.5813 -0.2009
  156SAPE   H4R17353   1.394   5.924   6.766 -1.0366 -1.1975 -0.7156
  156SAPE   H4S17354   1.249   6.035   6.768 -0.0684 -1.5144 -0.4318
  156SAPE   C2517355   1.440   6.127   6.804 -0.2062 -0.5179  0.3769
  156SAPE   H5R17356   1.483   6.202   6.737  1.2634  0.8187  2.6912
  156SAPE   C2617357   1.476   6.135   6.933 -0.6912  0.6804 -0.2623
  156SAPE   H6R17358   1.547   6.209   6.971  2.3582 -3.0162  2.0535
  156SAPE   C2717359   1.426   6.041   7.038 -0.3137  0.3065  0.2931
  156SAPE   H7R17360   1.344   5.970   7.013  0.5024 -0.6393  0.2417
  156SAPE   H7S17361   1.385   6.097   7.125  0.4135  1.6848 -0.2280
  156SAPE   C2817362   1.544   5.961   7.091 -0.8480 -0.6088  0.3981
  156SAPE   H8R17363   1.585   5.886   7.021 -0.5801 -2.7538  2.7019
  156SAPE   C2917364   1.607   5.976   7.208 -0.5618  0.0890 -0.8032
  156SAPE   H9R17365   1.683   5.899   7.231  0.9302  1.1589 -1.8798
  156SAPE  C21017366   1.574   6.067   7.327 -0.1575 -0.3599  0.8038
  156SAPE  H10R17367   1.523   6.155   7.283 -0.7041 -0.6012  0.9547
  156SAPE  H10S17368   1.663   6.106   7.382 -0.3302 -1.8527  2.2144
  156SAPE  C21117369   1.474   5.998   7.411 -0.8547 -0.4010  0.3284
  156SAPE  H11R17370   1.460   5.892   7.386  0.3960 -0.4348 -0.3019
  156SAPE  C21217371   1.407   6.059   7.507 -0.2997 -0.5167  0.4604
  156SAPE  H12R17372   1.342   6.000   7.575  0.2289  0.9750  2.3644
  156SAPE  C21317373   1.416   6.201   7.540 -0.6619 -0.3316  0.0074
  156SAPE  H13R17374   1.407   6.255   7.443 -0.3703  2.5173  1.4506
  156SAPE  H13S17375   1.515   6.226   7.583 -1.2546  1.0748  0.6515
  156SAPE  C21417376   1.316   6.250   7.645 -0.0610 -0.2097  0.7759
  156SAPE  H14R17377   1.268   6.178   7.713  0.1487 -0.3444  0.7826
  156SAPE  C21517378   1.275   6.378   7.663  0.1107 -0.4676  0.2078
  156SAPE  H15R17379   1.198   6.406   7.737  0.4529 -0.9360  0.7561
  156SAPE  C21617380   1.339   6.494   7.592 -0.3170 -0.1852  0.7439
  156SAPE  H16R17381   1.248   6.550   7.564 -1.3185 -2.4666 -0.8972
  156SAPE  H16S17382   1.398   6.459   7.504  0.8313  1.2343  0.9143
  156SAPE  C21717383   1.425   6.586   7.679  0.0837  0.3895 -0.0009
  156SAPE  H17R17384   1.502   6.527   7.733 -1.7153 -0.2083  2.0665
  156SAPE  H17S17385   1.357   6.627   7.756 -0.5632 -0.5226 -0.0608
  156SAPE  C21817386   1.476   6.694   7.589  0.1537  0.0003  0.6809
  156SAPE  H18R17387   1.401   6.738   7.519  2.2452  2.2120 -0.2968
  156SAPE  H18S17388   1.540   6.645   7.512 -0.0571 -1.6201  1.4856
  156SAPE  C21917389   1.548   6.807   7.672 -0.7676 -0.5229  0.1777
  156SAPE  H19R17390   1.624   6.754   7.734 -0.6072  0.9631  1.2942
  156SAPE  H19S17391   1.483   6.858   7.746 -0.2775 -1.5531  1.3563
  156SAPE  C22017392   1.615   6.921   7.588  0.7210  0.1888  0.1559
  156SAPE  H20R17393   1.531   6.980   7.544 -0.2580 -0.0771  1.5895
  156SAPE  H20S17394   1.667   6.881   7.499  1.4857  1.2645  0.1041
  156SAPE  H20T17395   1.687   6.971   7.655  0.4770 -1.0030  1.3476
  156SAPE   C3317396   0.928   5.936   6.496  0.9621 -0.3574 -0.2077
  156SAPE   H3X17397   0.826   5.903   6.525 -0.7676  3.4866 -1.2017
  156SAPE   H3Y17398   0.960   6.003   6.578 -1.6825 -0.1555  0.7604
  156SAPE   C3417399   1.026   5.820   6.507  0.1261  0.2065 -0.1064
  156SAPE   H4X17400   1.134   5.838   6.488 -0.0634  2.0032  0.3775
  156SAPE   H4Y17401   0.994   5.738   6.440 -1.0972 -0.0859  0.8054
  156SAPE   C3517402   1.028   5.778   6.663 -0.7620 -0.8501  0.3733
  156SAPE   H5X17403   0.934   5.732   6.701 -1.1020 -0.3617  0.1288
  156SAPE   H5Y17404   1.037   5.870   6.725 -0.1470 -1.2454  0.8871
  156SAPE   C3617405   1.133   5.674   6.691  0.7607  0.3187  0.1298
  156SAPE   H6X17406   1.224   5.685   6.628  1.2088 -0.3595  0.6522
  156SAPE   H6Y17407   1.079   5.586   6.652  0.7582  0.2768  0.2266
  156SAPE   C3717408   1.155   5.674   6.844  0.1673  0.4395 -1.0534
  156SAPE   H7X17409   1.065   5.657   6.906 -0.8567  0.1141 -2.5815
  156SAPE   H7Y17410   1.190   5.773   6.881  1.3480  0.0069 -0.9454
  156SAPE   C3817411   1.273   5.575   6.887  0.0639 -0.3481 -0.0427
  156SAPE   H8X17412   1.230   5.475   6.865 -0.1209  0.1555 -2.2404
  156SAPE   H8Y17413   1.294   5.573   6.996  1.1588 -1.9442 -0.2513
  156SAPE   C3917414   1.404   5.603   6.805  0.2049  0.1108  0.7125
  156SAPE   H9X17415   1.419   5.713   6.808  0.8275  0.0131  1.5152
  156SAPE   H9Y17416   1.393   5.580   6.697  1.2673  1.2202  0.3491
  156SAPE  C31017417   1.524   5.529   6.849  0.0855  0.4984 -0.2632
  156SAPE  H10X17418   1.601   5.556   6.774 -0.0776 -1.2527 -1.1017
  156SAPE  H10Y17419   1.508   5.421   6.831  1.2578  0.6334 -2.3955
  156SAPE  C31117420   1.580   5.551   6.993  0.6047  0.2855 -0.2725
  156SAPE  H11X17421   1.555   5.655   7.024 -0.3837  0.5674 -1.8855
  156SAPE  H11Y17422   1.690   5.547   6.974  0.4863 -1.2794 -0.7142
  156SAPE  C31217423   1.561   5.433   7.091  0.5464  0.1359 -0.5721
  156SAPE  H12X17424   1.592   5.338   7.043 -0.5299 -0.2660 -0.4977
  156SAPE  H12Y17425   1.452   5.423   7.112 -0.3460  2.0077 -3.5858
  156SAPE  C31317426   1.644   5.449   7.226  0.0077  0.3837 -0.3348
  156SAPE  H13X17427   1.745   5.404   7.215 -0.6116 -1.4423  1.0056
  156SAPE  H13Y17428   1.587   5.391   7.301 -0.1395 -0.0450 -0.7739
  156SAPE  C31417429   1.673   5.589   7.266 -0.2435 -0.0487 -0.4742
  156SAPE  H14X17430   1.578   5.645   7.280 -0.4242 -0.2495 -0.8619
  156SAPE  H14Y17431   1.751   5.637   7.204  0.3333 -2.4973 -1.7818
  156SAPE  C31517432   1.737   5.575   7.416  0.5046  0.2148 -0.5287
  156SAPE  H15X17433   1.830   5.514   7.418  0.6811  0.5079  0.3506
  156SAPE  H15Y17434   1.667   5.511   7.475  0.2854  2.2251  1.5411
  156SAPE  C31617435   1.739   5.709   7.482  0.5062 -0.2509  0.4691
  156SAPE  H16X17436   1.744   5.701   7.592  2.4485  3.6714  0.8496
  156SAPE  H16Y17437   1.641   5.755   7.457  0.5026 -0.6325 -0.2742
  156SAPE  C31717438   1.856   5.807   7.451  0.8100  0.2879 -0.8187
  156SAPE  H17X17439   1.832   5.859   7.355 -0.3256  0.8339 -0.2577
  156SAPE  H17Y17440   1.944   5.747   7.418  0.5313  0.0171 -1.0755
  156SAPE  C31817441   1.884   5.905   7.557  0.0017  0.1960 -0.1655
  156SAPE  H18X17442   1.799   5.972   7.583 -0.6806  0.3326 -2.4842
  156SAPE  H18Y17443   1.960   5.973   7.514 -1.3305  1.2133 -0.9591
  156SAPE  H18Z17444   1.925   5.867   7.653  1.3802  1.4096 -0.2384
  157SAPE     N17445   5.198   1.460   5.573 -0.3073 -0.9055 -0.5678
  157SAPE   HN117446   5.301   1.445   5.567  0.3008  1.8129  1.2433
  157SAPE   HN217447   5.176   1.550   5.527 -0.2886 -1.0033 -0.7712
  157SAPE   HN317448   5.173   1.453   5.674 -1.4268 -1.8789 -0.8772
  157SAPE   C1217449   5.120   1.347   5.513 -0.0170 -0.3687  0.6351
  157SAPE  H12A17450   5.129   1.345   5.403  0.7175  1.2659  0.6491
  157SAPE  H12B17451   5.017   1.375   5.545  0.3631  4.1441 -1.3752
  157SAPE   C1117452   5.171   1.215   5.574 -0.6496 -0.4727  0.4268
  157SAPE  H11A17453   5.124   1.135   5.513  1.3444 -0.5086 -1.1599
  157SAPE  H11B17454   5.124   1.217   5.675 -0.2309 -0.7287  0.6309
  157SAPE     P17455   5.394   1.080   5.599 -0.4547 -0.3860  0.0484
  157SAPE   O1317456   5.297   0.972   5.583  0.2091  0.1935  0.0931
  157SAPE   O1417457   5.520   1.072   5.517 -0.2527 -0.1627 -0.3626
  157SAPE   O1217458   5.316   1.211   5.577  0.4394 -0.3272  0.3243
  157SAPE   O1117459   5.429   1.097   5.746 -0.1892 -0.0918 -0.4737
  157SAPE    C117460   5.534   1.194   5.780  0.3007  0.6260  0.0067
  157SAPE    HA17461   5.633   1.143   5.769  1.0637  2.1552 -0.4438
  157SAPE    HB17462   5.544   1.288   5.723  1.2835  1.1416  0.9843
  157SAPE    C217463   5.520   1.244   5.926  0.0254  0.4432 -1.2070
  157SAPE    HS17464   5.608   1.307   5.952 -0.0963 -0.5863  2.1467
  157SAPE   O2117465   5.513   1.136   6.019  0.4047 -0.1647 -0.2988
  157SAPE   C2117466   5.625   1.077   6.050 -0.1492 -0.3452 -0.5974
  157SAPE   O2217467   5.733   1.115   6.013  0.6440  0.1419 -0.5806
  157SAPE   C2217468   5.589   0.959   6.133 -1.0906  0.4368 -0.2097
  157SAPE   H2R17469   5.541   0.891   6.059  1.1269  0.4996 -1.8033
  157SAPE   H2S17470   5.687   0.915   6.161 -0.5983  1.4950 -0.2220
  157SAPE    C317471   5.396   1.336   5.945  0.0159  0.0596 -0.1537
  157SAPE    HX17472   5.302   1.282   5.922 -0.9012  1.0188  1.2527
  157SAPE    HY17473   5.393   1.420   5.872 -1.7674  0.2334  0.0832
  157SAPE   O3117474   5.384   1.385   6.081 -0.8040  0.5009  0.5424
  157SAPE   C3117475   5.307   1.322   6.163  0.5577  0.0416  0.5879
  157SAPE   O3217476   5.243   1.216   6.140 -0.2987  0.6368 -0.0377
  157SAPE   C3217477   5.294   1.402   6.292 -0.1703 -0.0621  0.4964
  157SAPE   H2X17478   5.229   1.333   6.350  3.1748 -3.1283  0.9708
  157SAPE   H2Y17479   5.253   1.504   6.279 -0.8020 -0.2926  0.6274
  157SAPE   C2317480   5.504   1.000   6.257 -0.3801  0.0397  0.7892
  157SAPE   H3R17481   5.420   1.063   6.219 -0.3014  0.1569  0.8089
  157SAPE   H3S17482   5.561   1.073   6.319 -0.5667 -0.2553  1.3065
  157SAPE   C2417483   5.448   0.882   6.339 -1.1069  0.2799  0.7819
  157SAPE   H4R17484   5.525   0.838   6.406  0.0669 -0.5427 -1.0469
  157SAPE   H4S17485   5.412   0.810   6.262  0.5575 -0.5103  0.6808
  157SAPE   C2517486   5.343   0.937   6.429  0.1483  0.6690 -0.9134
  157SAPE   H5R17487   5.267   1.010   6.398 -2.0590  0.6541  3.6471
  157SAPE   C2617488   5.319   0.904   6.558  0.6675 -0.7895 -0.5046
  157SAPE   H6R17489   5.240   0.962   6.606  0.9749  0.2166 -1.1745
  157SAPE   C2717490   5.403   0.824   6.646  0.3392 -0.0176 -0.3228
  157SAPE   H7R17491   5.482   0.766   6.593  0.9310  1.3505 -0.9672
  157SAPE   H7S17492   5.337   0.754   6.701 -0.1033  1.1694  0.7080
  157SAPE   C2817493   5.471   0.905   6.747  0.0809 -0.1933  0.0433
  157SAPE   H8R17494   5.517   0.993   6.699  0.8657 -0.8470 -0.4295
  157SAPE   C2917495   5.483   0.892   6.878  0.0974 -0.1015 -0.7014
  157SAPE   H9R17496   5.542   0.963   6.937 -0.9699  0.2199  0.0143
  157SAPE  C21017497   5.427   0.787   6.975  0.2394  0.0059  0.3921
  157SAPE  H10R17498   5.350   0.722   6.928  2.8447 -2.9437 -0.0909
  157SAPE  H10S17499   5.368   0.824   7.062  2.0570 -1.0901  2.1944
  157SAPE  C21117500   5.547   0.717   7.027  0.3333 -0.0604  0.8277
  157SAPE  H11R17501   5.601   0.652   6.957  0.5998  0.5505  0.4598
  157SAPE  C21217502   5.603   0.727   7.149 -0.4486 -0.5699 -0.6932
  157SAPE  H12R17503   5.701   0.679   7.160  0.3649  0.8162 -1.6408
  157SAPE  C21317504   5.548   0.809   7.259 -0.0222  0.4366 -0.5799
  157SAPE  H13R17505   5.559   0.758   7.357 -1.9878  2.5684  0.8613
  157SAPE  H13S17506   5.438   0.820   7.252 -0.1523 -1.4802 -2.9519
  157SAPE  C21417507   5.605   0.955   7.267  0.3261 -0.8550  0.4261
  157SAPE  H14R17508   5.593   1.007   7.170  2.1960 -0.2481  0.4853
  157SAPE  C21517509   5.681   1.010   7.370 -0.0911  0.4877  0.2677
  157SAPE  H15R17510   5.714   1.114   7.365  1.7490  0.0250  1.7828
  157SAPE  C21617511   5.716   0.941   7.505 -0.7584  0.2232  0.3075
  157SAPE  H16R17512   5.826   0.949   7.514 -0.4159 -1.8850 -1.2121
  157SAPE  H16S17513   5.685   0.834   7.503 -0.8473  0.2623 -0.5831
  157SAPE  C21717514   5.637   1.020   7.607 -0.4490 -0.5495 -0.0694
  157SAPE  H17R17515   5.531   1.032   7.576 -0.5703  2.5171  1.1420
  157SAPE  H17S17516   5.689   1.118   7.608 -0.7683 -0.3194 -2.0861
  157SAPE  C21817517   5.659   0.950   7.749 -0.2019  0.0111 -0.4228
  157SAPE  H18R17518   5.600   1.010   7.821  1.1697  1.4125 -0.4010
  157SAPE  H18S17519   5.769   0.954   7.765 -0.0051 -0.4265 -1.5560
  157SAPE  C21917520   5.596   0.812   7.760 -1.0824 -0.1472 -0.5407
  157SAPE  H19R17521   5.644   0.754   7.679  0.6352  0.5322 -0.0501
  157SAPE  H19S17522   5.486   0.813   7.745 -1.3735 -0.1128  1.3004
  157SAPE  C22017523   5.614   0.752   7.898  0.3639  0.4723 -0.4387
  157SAPE  H20R17524   5.601   0.811   7.990 -1.5999 -1.5338  0.6678
  157SAPE  H20S17525   5.716   0.708   7.884 -0.4879 -1.3284 -1.3248
  157SAPE  H20T17526   5.544   0.669   7.919  0.6119  0.7662  1.7500
  157SAPE   C3317527   5.416   1.408   6.378 -0.4251 -0.0510  0.2685
  157SAPE   H3X17528   5.481   1.486   6.332 -2.8948  1.1295 -1.4539
  157SAPE   H3Y17529   5.476   1.316   6.366 -0.7206 -0.1353 -0.6623
  157SAPE   C3417530   5.391   1.439   6.521  0.1866 -0.1345 -0.1888
  157SAPE   H4X17531   5.334   1.534   6.526  1.0148  0.4979 -1.8799
  157SAPE   H4Y17532   5.489   1.469   6.566 -0.1033 -0.8994  1.0050
  157SAPE   C3517533   5.327   1.331   6.607  0.0098  0.2445 -0.5970
  157SAPE   H5X17534   5.360   1.227   6.585 -0.2378  0.1975 -0.7436
  157SAPE   H5Y17535   5.219   1.338   6.584  0.1276  0.6884 -1.0401
  157SAPE   C3617536   5.344   1.366   6.756 -0.2939  0.6690  0.2898
  157SAPE   H6X17537   5.262   1.314   6.811  1.2818 -0.1256  2.0186
  157SAPE   H6Y17538   5.337   1.474   6.780 -0.1489  0.1564  2.9315
  157SAPE   C3717539   5.474   1.309   6.819  0.1904  0.2570 -1.0533
  157SAPE   H7X17540   5.550   1.389   6.824 -0.0402  0.4277  2.6217
  157SAPE   H7Y17541   5.509   1.226   6.754  2.5788  0.9147 -0.7233
  157SAPE   C3817542   5.451   1.246   6.960 -0.1611 -0.3177 -0.6685
  157SAPE   H8X17543   5.543   1.191   6.989  2.0792  2.4296 -2.0623
  157SAPE   H8Y17544   5.369   1.171   6.964  0.1265 -0.6422 -0.8616
  157SAPE   C3917545   5.425   1.354   7.069  0.5215  0.5917 -0.5628
  157SAPE   H9X17546   5.316   1.373   7.083  0.0132 -0.5180 -2.6738
  157SAPE   H9Y17547   5.466   1.448   7.029 -1.8128  2.8690  1.9439
  157SAPE  C31017548   5.488   1.325   7.207  0.1329 -0.9053 -0.4510
  157SAPE  H10X17549   5.599   1.329   7.207  0.2859 -0.6616  3.7956
  157SAPE  H10Y17550   5.460   1.220   7.233  0.5370 -0.9305 -0.1050
  157SAPE  C31117551   5.448   1.433   7.309  0.8874 -0.2294 -0.5307
  157SAPE  H11X17552   5.338   1.418   7.320  0.9886 -0.4347  0.2788
  157SAPE  H11Y17553   5.458   1.527   7.252 -0.8702  0.1527 -0.2799
  157SAPE  C31217554   5.510   1.417   7.446 -0.6534  0.9387 -0.6253
  157SAPE  H12X17555   5.615   1.451   7.439 -0.1384 -0.8355 -2.5053
  157SAPE  H12Y17556   5.501   1.314   7.488 -1.4575  1.4564  0.5113
  157SAPE  C31317557   5.440   1.514   7.544 -0.5210 -0.1988  0.8911
  157SAPE  H13X17558   5.329   1.515   7.533 -0.6648 -1.1163  2.0908
  157SAPE  H13Y17559   5.469   1.617   7.513 -0.4398 -0.0897  1.3260
  157SAPE  C31417560   5.467   1.497   7.697  0.8378 -0.9532  0.6273
  157SAPE  H14X17561   5.564   1.444   7.705  0.4231 -2.0915 -1.2118
  157SAPE  H14Y17562   5.393   1.426   7.741 -0.1717  0.2362  0.8962
  157SAPE  C31517563   5.466   1.624   7.774  0.3395 -0.0136 -0.1886
  157SAPE  H15X17564   5.544   1.688   7.726  0.0485 -0.9612 -1.9943
  157SAPE  H15Y17565   5.508   1.606   7.876  1.5129 -3.7190 -1.1919
  157SAPE  C31617566   5.328   1.698   7.772 -0.1608  0.4740 -0.9020
  157SAPE  H16X17567   5.245   1.627   7.790  0.2994  0.3279  0.8334
  157SAPE  H16Y17568   5.318   1.728   7.666  0.3747 -1.2781 -1.4797
  157SAPE  C31717569   5.335   1.812   7.876  0.4222  0.5780 -0.1559
  157SAPE  H17X17570   5.422   1.879   7.858 -0.9029  2.4937  0.3440
  157SAPE  H17Y17571   5.340   1.771   7.979 -1.0326  0.7612 -0.0045
  157SAPE  C31817572   5.210   1.905   7.883  0.2924  0.2003 -0.2954
  157SAPE  H18X17573   5.226   1.994   7.948  0.1742  0.9299 -1.2267
  157SAPE  H18Y17574   5.127   1.843   7.923  0.9844 -1.5470 -1.4655
  157SAPE  H18Z17575   5.197   1.950   7.782  1.5956  0.5378 -0.3310
  158SAPE     N17576   0.665   5.977   5.922 -0.4242  0.5526 -0.2183
  158SAPE   HN117577   0.733   6.056   5.923 -2.6987  2.6944 -2.0170
  158SAPE   HN217578   0.652   5.938   6.018 -0.0638 -3.4037 -1.6109
  158SAPE   HN317579   0.702   5.911   5.851 -0.6069  0.9904 -0.7302
  158SAPE   C1217580   0.543   6.025   5.858 -0.4089 -0.4739  0.3078
  158SAPE  H12A17581   0.574   6.111   5.794 -1.6392 -1.1593 -1.2468
  158SAPE  H12B17582   0.478   6.076   5.932 -0.5085  0.8965 -0.6780
  158SAPE   C1117583   0.473   5.918   5.774  0.4285 -1.1217 -0.3297
  158SAPE  H11A17584   0.492   5.940   5.667  2.0766  0.7146  0.2835
  158SAPE  H11B17585   0.368   5.926   5.808  0.3270  0.4997 -0.9327
  158SAPE     P17586   0.445   5.653   5.743  0.0453  0.3732  0.2847
  158SAPE   O1317587   0.393   5.676   5.603 -0.6861  0.4769 -0.3082
  158SAPE   O1417588   0.532   5.538   5.762 -0.1916  0.3476  0.0491
  158SAPE   O1217589   0.524   5.782   5.797  0.4071 -0.1659  0.1906
  158SAPE   O1117590   0.323   5.646   5.842 -0.3111  0.1338 -0.3416
  158SAPE    C117591   0.334   5.618   5.984  0.7058 -0.4603 -0.6928
  158SAPE    HA17592   0.261   5.541   6.017 -1.5802  0.9933 -2.1258
  158SAPE    HB17593   0.436   5.582   6.012 -0.2272 -3.4460 -0.7277
  158SAPE    C217594   0.296   5.738   6.074  0.2540 -0.0900  0.0029
  158SAPE    HS17595   0.375   5.815   6.063  0.8847 -0.2620  2.6128
  158SAPE   O2117596   0.275   5.679   6.205  0.0516  0.4843  0.1615
  158SAPE   C2117597   0.322   5.753   6.306 -0.5735 -0.1861  0.6899
  158SAPE   O2217598   0.378   5.860   6.283 -0.2254  0.1399 -0.3847
  158SAPE   C2217599   0.296   5.709   6.445 -0.2767  0.9620  0.6603
  158SAPE   H2R17600   0.188   5.691   6.459 -0.0629 -1.8331 -0.6940
  158SAPE   H2S17601   0.352   5.616   6.467 -2.2253 -0.3149  0.4605
  158SAPE    C317602   0.167   5.800   6.022  0.3881  0.0259  0.1000
  158SAPE    HX17603   0.087   5.725   6.040 -0.2867  0.2528 -1.7321
  158SAPE    HY17604   0.170   5.825   5.914 -0.2327  0.2700  0.1379
  158SAPE   O3117605   0.135   5.907   6.108  0.4647 -0.9327 -0.2743
  158SAPE   C3117606   0.183   6.027   6.071  0.1532 -0.4470  0.3479
  158SAPE   O3217607   0.220   6.055   5.959  0.1766  0.3173 -0.0170
  158SAPE   C3217608   0.173   6.133   6.185 -0.6029 -0.3554 -0.3074
  158SAPE   H2X17609   0.140   6.079   6.276 -1.5097  1.8837  0.7865
  158SAPE   H2Y17610   0.093   6.208   6.165 -0.7202  1.2075  4.6648
  158SAPE   C2317611   0.333   5.807   6.552  0.2677  0.3449 -0.2985
  158SAPE   H3R17612   0.286   5.908   6.545 -1.2420 -0.1295  2.0443
  158SAPE   H3S17613   0.443   5.828   6.547  0.3134  1.9376  3.5787
  158SAPE   C2417614   0.299   5.766   6.697 -0.5554 -0.2607 -0.1734
  158SAPE   H4R17615   0.329   5.850   6.763 -0.6997  0.3710 -0.8982
  158SAPE   H4S17616   0.369   5.685   6.726  1.0830  1.8297  2.1380
  158SAPE   C2517617   0.155   5.735   6.725  0.3045  0.2263 -1.0038
  158SAPE   H5R17618   0.102   5.669   6.656 -1.9165  0.8895 -0.0157
  158SAPE   C2617619   0.099   5.778   6.837  0.5813  0.1155 -0.0619
  158SAPE   H6R17620  -0.008   5.756   6.848  1.1065 -3.2658 -0.4957
  158SAPE   C2717621   0.149   5.879   6.941  0.3309  0.6217  0.2074
  158SAPE   H7R17622   0.247   5.840   6.978 -0.5961 -0.3874  1.7199
  158SAPE   H7S17623   0.093   5.882   7.037  0.8399 -0.5494  0.5667
  158SAPE   C2817624   0.168   6.025   6.898  0.3607 -0.0056  0.4493
  158SAPE   H8R17625   0.120   6.032   6.799  2.3247 -0.8097 -0.6068
  158SAPE   C2917626   0.237   6.127   6.942  0.1828 -0.2227 -0.3573
  158SAPE   H9R17627   0.242   6.216   6.877  1.2183 -0.3522 -0.4714
  158SAPE  C21017628   0.330   6.136   7.063  1.3914  0.0091  0.3390
  158SAPE  H10R17629   0.433   6.148   7.025  1.8195 -0.8653  1.1892
  158SAPE  H10S17630   0.337   6.041   7.121 -0.6055  0.2765  1.1120
  158SAPE  C21117631   0.292   6.256   7.154  0.1562 -0.1376 -0.3769
  158SAPE  H11R17632   0.365   6.338   7.155  0.6996 -0.6065  1.5320
  158SAPE  C21217633   0.195   6.277   7.241  0.0290  0.4271 -0.0192
  158SAPE  H12R17634   0.199   6.372   7.296  2.0718  0.1707  0.3438
  158SAPE  C21317635   0.075   6.193   7.272  0.0635  0.2628  0.5735
  158SAPE  H13R17636   0.074   6.098   7.214  0.7118  0.4978  0.1547
  158SAPE  H13S17637  -0.008   6.248   7.223  0.3282  1.5385  1.4926
  158SAPE  C21417638   0.040   6.155   7.410 -0.6786  0.5873  0.4902
  158SAPE  H14R17639   0.080   6.062   7.452  1.2800  0.1539 -2.0208
  158SAPE  C21517640  -0.052   6.211   7.487  0.8655  0.1921 -0.5079
  158SAPE  H15R17641  -0.055   6.179   7.592  1.5073  0.8484 -0.2831
  158SAPE  C21617642  -0.135   6.336   7.460 -0.0273  0.0651 -0.0821
  158SAPE  H16R17643  -0.239   6.323   7.499 -0.2136  1.6329  0.0120
  158SAPE  H16S17644  -0.142   6.352   7.350  0.3824  1.8858  0.1131
  158SAPE  C21717645  -0.067   6.455   7.529  0.5502  0.6578 -0.3842
  158SAPE  H17R17646  -0.136   6.541   7.513  0.3442  0.4438 -0.6599
  158SAPE  H17S17647   0.037   6.474   7.493  1.6650 -0.8341  1.8158
  158SAPE  C21817648  -0.063   6.452   7.682  0.2279  0.5450 -0.5655
  158SAPE  H18R17649  -0.027   6.546   7.727 -0.9501  0.8527 -0.2260
  158SAPE  H18S17650  -0.014   6.363   7.727  0.1320  1.2673  1.0256
  158SAPE  C21917651  -0.215   6.453   7.734 -0.1968  0.1664 -0.1199
  158SAPE  H19R17652  -0.285   6.377   7.694 -0.2958 -0.0683  0.4920
  158SAPE  H19S17653  -0.249   6.544   7.679  4.5701  2.0666 -0.4510
  158SAPE  C22017654  -0.232   6.482   7.885 -0.2961 -0.2346  0.3331
  158SAPE  H20R17655  -0.220   6.380   7.929  0.7350 -0.4194 -0.3525
  158SAPE  H20S17656  -0.339   6.512   7.896 -0.2054 -0.1899  1.2311
  158SAPE  H20T17657  -0.156   6.553   7.922 -1.0441  0.9756 -0.3991
  158SAPE   C3317658   0.304   6.213   6.212  0.0613 -0.2495  0.5642
  158SAPE   H3X17659   0.316   6.266   6.115 -1.4699 -1.0827 -0.1155
  158SAPE   H3Y17660   0.394   6.150   6.227  1.2532 -0.0012 -4.0125
  158SAPE   C3417661   0.285   6.315   6.322  0.1855  0.5782  0.2863
  158SAPE   H4X17662   0.201   6.386   6.309 -0.1032 -0.0517 -1.6666
  158SAPE   H4Y17663   0.371   6.386   6.320  0.7870 -0.0834  1.4904
  158SAPE   C3517664   0.299   6.250   6.464  0.4444 -0.7126 -0.1256
  158SAPE   H5X17665   0.218   6.175   6.476  0.0504 -0.4174 -0.8762
  158SAPE   H5Y17666   0.284   6.330   6.540 -0.5966 -0.8813 -0.1365
  158SAPE   C3617667   0.433   6.188   6.490 -0.4763  0.8479  0.1266
  158SAPE   H6X17668   0.508   6.268   6.471 -0.1591  0.2176 -1.4413
  158SAPE   H6Y17669   0.457   6.103   6.423 -2.7532  0.4768 -0.2938
  158SAPE   C3717670   0.448   6.143   6.637 -0.6266  0.0856  0.0189
  158SAPE   H7X17671   0.424   6.228   6.704 -0.9157 -0.6080  0.8159
  158SAPE   H7Y17672   0.383   6.058   6.666  1.7638 -1.1749  2.0773
  158SAPE   C3817673   0.593   6.097   6.670  0.9243 -0.1935 -0.5844
  158SAPE   H8X17674   0.660   6.185   6.661  1.9748 -0.7886  1.0817
  158SAPE   H8Y17675   0.632   6.022   6.598  1.7247 -0.8958  0.5616
  158SAPE   C3917676   0.607   6.042   6.813 -1.0465 -0.3033 -0.4474
  158SAPE   H9X17677   0.524   5.972   6.835 -2.1750  0.8793 -0.7781
  158SAPE   H9Y17678   0.602   6.123   6.888 -2.1894  0.0441 -0.8703
  158SAPE  C31017679   0.741   5.974   6.824 -0.3695  0.0721  0.5718
  158SAPE  H10X17680   0.821   6.024   6.766 -0.8499 -1.0709 -1.1563
  158SAPE  H10Y17681   0.737   5.880   6.765  2.5111 -1.2048  2.1903
  158SAPE  C31117682   0.789   5.953   6.974  0.7150 -0.3807 -0.3140
  158SAPE  H11X17683   0.706   5.920   7.040 -0.5343 -2.4150 -2.6948
  158SAPE  H11Y17684   0.827   6.047   7.019 -0.4327 -0.3058  0.5342
  158SAPE  C31217685   0.893   5.845   6.995  0.2146 -0.6172 -0.1669
  158SAPE  H12X17686   0.992   5.877   6.955  0.5309 -1.2331  0.1063
  158SAPE  H12Y17687   0.867   5.752   6.941  0.0696 -0.6339 -0.0694
  158SAPE  C31317688   0.908   5.818   7.147 -0.3714 -0.5745  0.2831
  158SAPE  H13X17689   0.821   5.761   7.188  0.8243 -1.9533  0.9908
  158SAPE  H13Y17690   0.910   5.918   7.195 -0.8355 -0.2361 -0.3917
  158SAPE  C31417691   1.047   5.749   7.172 -0.3632 -0.6472 -0.6543
  158SAPE  H14X17692   1.132   5.814   7.139  0.1689 -0.9007  0.1821
  158SAPE  H14Y17693   1.045   5.647   7.127 -0.6059 -1.5832  1.3965
  158SAPE  C31517694   1.075   5.726   7.323  0.2696 -0.1861  0.1068
  158SAPE  H15X17695   1.008   5.643   7.354 -1.0173  1.0115  0.6325
  158SAPE  H15Y17696   1.058   5.816   7.386  2.3668 -0.2960  0.8970
  158SAPE  C31617697   1.225   5.688   7.345 -0.1023 -0.5544 -0.1404
  158SAPE  H16X17698   1.293   5.772   7.318 -0.2550  0.0356  1.2372
  158SAPE  H16Y17699   1.249   5.610   7.270 -1.6653  1.0808 -2.4857
  158SAPE  C31717700   1.255   5.646   7.493  0.2423 -0.2521  0.5319
  158SAPE  H17X17701   1.178   5.590   7.549  0.9592 -0.0221  1.7969
  158SAPE  H17Y17702   1.265   5.737   7.557  2.3655  1.7669 -2.4059
  158SAPE  C31817703   1.385   5.567   7.499  0.1681  0.5174  0.5331
  158SAPE  H18X17704   1.412   5.538   7.602 -0.6278 -1.4157  0.2324
  158SAPE  H18Y17705   1.471   5.623   7.456  0.0721 -0.4266 -0.9725
  158SAPE  H18Z17706   1.375   5.484   7.426  0.6570  1.6802 -0.9117
  159SAPE     N17707   0.926   2.108   5.997 -0.2944 -0.5486 -0.1212
  159SAPE   HN117708   0.843   2.116   6.059  0.3037  2.2011  0.4444
  159SAPE   HN217709   0.930   2.010   5.962  0.7433 -1.1356  1.4884
  159SAPE   HN317710   1.018   2.119   6.044 -1.3366  2.6427  1.4608
  159SAPE   C1217711   0.913   2.225   5.904 -0.1570 -0.6050  0.6943
  159SAPE  H12A17712   1.008   2.228   5.848 -0.1752  1.8817  0.6880
  159SAPE  H12B17713   0.904   2.320   5.960  0.0183 -0.9150  1.2588
  159SAPE   C1117714   0.795   2.199   5.804  0.5607  0.1133  0.3771
  159SAPE  H11A17715   0.818   2.106   5.749 -2.7777 -0.2293 -0.6855
  159SAPE  H11B17716   0.788   2.283   5.731  0.6095 -2.2943 -2.5469
  159SAPE     P17717   0.540   2.139   5.812 -0.3879 -0.0110 -0.0556
  159SAPE   O1317718   0.457   2.254   5.782  0.3639  0.0423  0.4391
  159SAPE   O1417719   0.570   2.048   5.700  0.4686  0.2358 -0.1129
  159SAPE   O1217720   0.674   2.192   5.883  0.2834 -0.3349  0.0092
  159SAPE   O1117721   0.470   2.065   5.923  0.1516 -0.0877 -0.5080
  159SAPE    C117722   0.540   1.967   6.011 -0.3229  0.2291 -0.0052
  159SAPE    HA17723   0.647   1.997   6.017 -0.4760  1.1317 -1.2696
  159SAPE    HB17724   0.499   1.983   6.113 -1.9730  1.0871 -0.7629
  159SAPE    C217725   0.515   1.817   5.965 -0.2898  0.2852  0.0638
  159SAPE    HS17726   0.552   1.795   5.862 -0.4255 -1.6879  0.3945
  159SAPE   O2117727   0.374   1.792   5.984  0.2737 -0.0770  0.1194
  159SAPE   C2117728   0.301   1.836   5.879  0.1237 -0.2245 -0.0206
  159SAPE   O2217729   0.332   1.848   5.761  0.4679  0.0203  0.0964
  159SAPE   C2217730   0.165   1.876   5.939 -0.4497  0.4680  0.3702
  159SAPE   H2R17731   0.145   1.823   6.035  0.5590 -0.3934  0.1242
  159SAPE   H2S17732   0.159   1.986   5.956 -0.9666  0.6470 -0.9047
  159SAPE    C317733   0.596   1.714   6.051 -0.8006  0.3531 -0.4361
  159SAPE    HX17734   0.699   1.754   6.054 -1.0126  0.8647  1.3997
  159SAPE    HY17735   0.588   1.618   5.996  3.6343 -0.9896  0.8927
  159SAPE   O3117736   0.559   1.716   6.189 -0.7571 -0.1281 -0.4596
  159SAPE   C3117737   0.476   1.619   6.223 -0.5959 -0.2490  0.1337
  159SAPE   O3217738   0.449   1.519   6.158 -0.7607  0.1953  0.0152
  159SAPE   C3217739   0.412   1.656   6.359  0.0556 -0.6814  0.9053
  159SAPE   H2X17740   0.373   1.760   6.357 -0.0191 -0.7176 -1.0466
  159SAPE   H2Y17741   0.499   1.647   6.428  2.2123  1.1373 -1.4133
  159SAPE   C2317742   0.041   1.839   5.847  0.3024 -0.2868  0.4209
  159SAPE   H3R17743   0.051   1.744   5.790  0.2471  1.2255 -2.2911
  159SAPE   H3S17744   0.002   1.924   5.787  1.2802  1.6219  2.3482
  159SAPE   C2417745  -0.087   1.827   5.936 -0.4406  0.1303 -0.6636
  159SAPE   H4R17746  -0.171   1.832   5.864 -0.2887  3.0783 -0.7732
  159SAPE   H4S17747  -0.108   1.914   6.003  1.5031 -1.4647  2.2430
  159SAPE   C2517748  -0.079   1.699   6.010 -0.4511  0.1152 -0.4662
  159SAPE   H5R17749  -0.034   1.621   5.946 -1.4727  2.0198 -3.7251
  159SAPE   C2617750  -0.092   1.672   6.142  0.7303 -0.2812 -0.1287
  159SAPE   H6R17751  -0.091   1.566   6.174 -1.1516 -0.8813 -1.8836
  159SAPE   C2717752  -0.132   1.755   6.257  0.0905 -0.6250  0.2376
  159SAPE   H7R17753  -0.126   1.863   6.232 -0.7181 -0.8748 -1.1009
  159SAPE   H7S17754  -0.055   1.735   6.335  1.5840  1.9126 -0.4649
  159SAPE   C2817755  -0.275   1.735   6.310  0.2467  0.6782 -0.3463
  159SAPE   H8R17756  -0.358   1.759   6.242 -0.1414 -0.5854 -0.3583
  159SAPE   C2917757  -0.318   1.727   6.437  0.1777 -0.6482  0.3317
  159SAPE   H9R17758  -0.426   1.714   6.451 -0.2519 -2.1134 -3.2125
  159SAPE  C21017759  -0.238   1.713   6.560 -0.0121  0.4161 -0.6990
  159SAPE  H10R17760  -0.155   1.645   6.534 -0.7288 -1.8198  2.3485
  159SAPE  H10S17761  -0.293   1.660   6.640  1.5824  1.7370  1.3655
  159SAPE  C21117762  -0.193   1.845   6.609  0.5279 -0.1224 -0.6982
  159SAPE  H11R17763  -0.158   1.916   6.532 -0.1039  1.1429  0.1422
  159SAPE  C21217764  -0.187   1.881   6.741  0.0197 -0.8765  0.3073
  159SAPE  H12R17765  -0.142   1.979   6.760  0.3391 -0.2124 -3.2234
  159SAPE  C21317766  -0.235   1.802   6.857  0.0322  0.5929  0.1490
  159SAPE  H13R17767  -0.334   1.752   6.851 -0.1368  0.9668 -0.2132
  159SAPE  H13S17768  -0.245   1.868   6.946 -2.1603 -0.8601  1.0587
  159SAPE  C21417769  -0.125   1.697   6.890  0.4606 -0.1204  0.1736
  159SAPE  H14R17770  -0.096   1.635   6.804 -0.0477  0.5059 -0.4600
  159SAPE  C21517771  -0.052   1.690   7.003  0.0149 -0.2462 -0.0748
  159SAPE  H15R17772   0.003   1.595   7.015  0.9168 -0.1390 -2.7607
  159SAPE  C21617773  -0.065   1.770   7.129 -0.3854 -0.1917 -0.8894
  159SAPE  H16R17774  -0.167   1.774   7.174  1.2490  2.0575  3.0890
  159SAPE  H16S17775  -0.038   1.876   7.115  3.3408 -0.3798  2.8487
  159SAPE  C21717776   0.033   1.712   7.241  0.8407 -0.3427 -0.2810
  159SAPE  H17R17777   0.136   1.752   7.238  0.9168 -0.5324 -0.1848
  159SAPE  H17S17778   0.042   1.601   7.234  0.3488 -0.3087 -1.5970
  159SAPE  C21817779  -0.021   1.746   7.386  0.2712 -0.2130 -0.4968
  159SAPE  H18R17780   0.044   1.689   7.456  0.6361  2.1130  1.1455
  159SAPE  H18S17781  -0.122   1.702   7.399  0.7195 -0.4614  3.0606
  159SAPE  C21917782  -0.009   1.890   7.422  0.0408  0.4321 -0.5450
  159SAPE  H19R17783  -0.080   1.950   7.361 -0.1960  1.2603  0.5173
  159SAPE  H19S17784   0.096   1.925   7.406  0.7368 -0.9620  0.7157
  159SAPE  C22017785  -0.052   1.919   7.571 -0.4561  0.3013  0.0105
  159SAPE  H20R17786   0.025   1.868   7.634 -1.0326 -0.8508 -0.2007
  159SAPE  H20S17787  -0.154   1.884   7.595 -0.5180 -0.7371 -1.6613
  159SAPE  H20T17788  -0.057   2.029   7.590  1.2111  0.3224  0.5347
  159SAPE   C3317789   0.300   1.562   6.393  0.3224 -0.5060  0.0040
  159SAPE   H3X17790   0.342   1.460   6.397 -0.7976 -0.9954 -0.3083
  159SAPE   H3Y17791   0.224   1.563   6.312  0.2679 -0.0939  0.0547
  159SAPE   C3417792   0.240   1.587   6.530 -0.7291  0.1614  0.0131
  159SAPE   H4X17793   0.149   1.523   6.538 -0.6331 -0.0764 -0.7790
  159SAPE   H4Y17794   0.204   1.692   6.529 -1.0998  0.0297 -0.8791
  159SAPE   C3517795   0.338   1.559   6.652 -0.2366 -0.0164  0.6779
  159SAPE   H5X17796   0.416   1.638   6.659 -1.9504  1.9021 -0.4352
  159SAPE   H5Y17797   0.392   1.462   6.650  0.0341  0.1292  0.8351
  159SAPE   C3617798   0.263   1.554   6.784  0.0508  0.0628  0.2844
  159SAPE   H6X17799   0.179   1.482   6.789 -1.6206  2.0060  2.6261
  159SAPE   H6Y17800   0.214   1.652   6.802 -1.9374 -0.5124 -1.6314
  159SAPE   C3717801   0.367   1.522   6.898 -0.1313  0.7847 -0.0666
  159SAPE   H7X17802   0.436   1.609   6.906  0.0050  0.4966  3.1037
  159SAPE   H7Y17803   0.425   1.427   6.890 -1.3727 -0.3244  2.6921
  159SAPE   C3817804   0.299   1.511   7.038  0.0452  0.4005  0.2904
  159SAPE   H8X17805   0.217   1.439   7.018  0.1058  1.0040 -2.5176
  159SAPE   H8Y17806   0.248   1.608   7.053 -1.8959 -0.5367  0.1549
  159SAPE   C3917807   0.397   1.472   7.155 -0.5826 -0.0715  0.7407
  159SAPE   H9X17808   0.488   1.536   7.153 -1.8746  2.2214  4.8805
  159SAPE   H9Y17809   0.433   1.370   7.128  1.6363  1.1996 -1.5106
  159SAPE  C31017810   0.340   1.471   7.290 -0.3662  0.2417  0.8708
  159SAPE  H10X17811   0.265   1.389   7.290  1.2000 -1.2450  1.5125
  159SAPE  H10Y17812   0.296   1.571   7.307  1.0160  0.8831  0.7873
  159SAPE  C31117813   0.432   1.440   7.407  0.7458  0.3970  0.5398
  159SAPE  H11X17814   0.509   1.520   7.413  1.2532 -0.1206  1.2367
  159SAPE  H11Y17815   0.495   1.351   7.385 -1.3917 -0.6356 -1.8520
  159SAPE  C31217816   0.370   1.424   7.548  0.4341 -0.0527  0.1884
  159SAPE  H12X17817   0.343   1.318   7.567 -0.1613  0.4567  2.4880
  159SAPE  H12Y17818   0.270   1.472   7.553 -0.3736 -1.7322  0.7358
  159SAPE  C31317819   0.450   1.460   7.673 -0.5012  0.0925 -0.1048
  159SAPE  H13X17820   0.395   1.427   7.763  2.4449 -2.8153  0.8418
  159SAPE  H13Y17821   0.468   1.569   7.664 -0.9517  0.2012  0.2816
  159SAPE  C31417822   0.590   1.386   7.683 -0.2174  0.4863  0.3203
  159SAPE  H14X17823   0.658   1.426   7.605  1.7358  0.0322  1.7029
  159SAPE  H14Y17824   0.566   1.278   7.672 -1.3164  0.6174  1.2109
  159SAPE  C31517825   0.648   1.416   7.824 -0.0720 -0.8491  0.4121
  159SAPE  H15X17826   0.595   1.356   7.901  0.4429  0.7153  2.0656
  159SAPE  H15Y17827   0.640   1.526   7.842  5.2285 -0.3802  1.6372
  159SAPE  C31617828   0.799   1.372   7.834 -0.0214 -0.7285 -0.7149
  159SAPE  H16X17829   0.851   1.407   7.926 -0.1370  1.3033 -1.3831
  159SAPE  H16Y17830   0.849   1.429   7.753 -0.2421 -0.6061 -0.7653
  159SAPE  C31717831   0.814   1.220   7.823 -0.6070  0.7143  0.1077
  159SAPE  H17X17832   0.922   1.195   7.833 -1.0608 -0.5576  2.7668
  159SAPE  H17Y17833   0.771   1.189   7.725  2.2672 -1.5765 -0.5759
  159SAPE  C31817834   0.762   1.133   7.941 -0.5033  0.2048  0.4596
  159SAPE  H18X17835   0.774   1.183   8.039  2.1452  0.5780  0.0200
  159SAPE  H18Y17836   0.835   1.048   7.938  1.3026  1.6877  0.4607
  159SAPE  H18Z17837   0.653   1.113   7.935 -1.1556  3.3950 -0.1604
  160SAPE     N17838   0.952   0.048   5.581  0.2106 -0.1304 -0.7033
  160SAPE   HN117839   1.011   0.049   5.496  0.1062 -3.2068 -0.8924
  160SAPE   HN217840   0.869  -0.012   5.564  0.4767 -0.8968  0.5618
  160SAPE   HN317841   0.911   0.140   5.608  1.0142 -0.5696  2.3677
  160SAPE   C1217842   1.032   0.001   5.702  1.0572 -0.5963 -0.4402
  160SAPE  H12A17843   1.119   0.069   5.693 -0.0351  0.7771 -0.9405
  160SAPE  H12B17844   1.055  -0.107   5.689  0.3714 -0.5617 -2.2390
  160SAPE   C1117845   0.956   0.029   5.831 -0.0136  0.2097 -0.1149
  160SAPE  H11A17846   0.915   0.131   5.848  1.4867  1.0338 -1.1838
  160SAPE  H11B17847   1.031   0.016   5.912 -0.9879 -0.5162  0.6913
  160SAPE     P17848   0.855  -0.169   5.973 -0.1473  0.4331  0.0154
  160SAPE   O1317849   0.738  -0.259   5.960  0.4102 -0.1746 -0.3966
  160SAPE   O1417850   0.992  -0.224   5.979  0.4427  0.9527 -0.0034
  160SAPE   O1217851   0.846  -0.057   5.854  0.4003  0.1463 -0.5123
  160SAPE   O1117852   0.834  -0.066   6.091 -0.0376  0.1058 -0.5125
  160SAPE    C117853   0.794  -0.125   6.217 -0.0617  1.0016  0.1572
  160SAPE    HA17854   0.692  -0.167   6.203  0.8254 -1.1488 -0.2316
  160SAPE    HB17855   0.857  -0.214   6.238 -1.8239 -0.4217 -0.3520
  160SAPE    C217856   0.793  -0.035   6.345  0.0300  0.4758  0.1276
  160SAPE    HS17857   0.782  -0.101   6.434 -3.0410 -1.1977 -1.3218
  160SAPE   O2117858   0.683   0.052   6.344  0.4903 -0.0681 -0.6758
  160SAPE   C2117859   0.573  -0.002   6.395  0.4498  0.3355 -0.0821
  160SAPE   O2217860   0.555  -0.114   6.436  0.0457  0.1570  0.9214
  160SAPE   C2217861   0.469   0.107   6.417 -0.0351 -0.4993 -0.5340
  160SAPE   H2R17862   0.514   0.208   6.426  2.7456 -1.7225  0.7127
  160SAPE   H2S17863   0.403   0.099   6.328 -0.8149 -2.3762  0.1705
  160SAPE    C317864   0.929   0.044   6.354  0.4141  0.8441  0.8125
  160SAPE    HX17865   0.943   0.095   6.257  0.6474  0.4507  0.6343
  160SAPE    HY17866   1.010  -0.032   6.354 -0.4028 -0.0881  2.9710
  160SAPE   O3117867   0.949   0.125   6.474 -0.7013  0.0670 -0.1665
  160SAPE   C3117868   0.991   0.244   6.453  0.4164  0.0405 -0.3695
  160SAPE   O3217869   1.006   0.295   6.346 -0.8851  0.2393  0.0793
  160SAPE   C3217870   1.032   0.318   6.578 -0.6765  0.2149  0.4300
  160SAPE   H2X17871   1.138   0.292   6.598 -0.7715  0.5498  1.4199
  160SAPE   H2Y17872   0.962   0.289   6.660  1.2207 -0.2596  1.9804
  160SAPE   C2317873   0.372   0.078   6.541 -0.7733  0.2420  0.1565
  160SAPE   H3R17874   0.333  -0.025   6.530  0.4601 -0.2458  0.1491
  160SAPE   H3S17875   0.290   0.150   6.521  0.8657  2.2861  0.4990
  160SAPE   C2417876   0.430   0.097   6.683  0.3025  0.1948 -0.2154
  160SAPE   H4R17877   0.538   0.076   6.697 -0.1140 -0.5160  2.6456
  160SAPE   H4S17878   0.378   0.024   6.750 -0.9644  0.8048 -0.4902
  160SAPE   C2517879   0.403   0.234   6.737 -0.2223  0.4539  0.2448
  160SAPE   H5R17880   0.296   0.259   6.729 -0.7681 -1.1817  1.8426
  160SAPE   C2617881   0.480   0.326   6.793  0.1917 -0.2518  0.6127
  160SAPE   H6R17882   0.441   0.425   6.823  0.6994 -0.3307  1.6024
  160SAPE   C2717883   0.627   0.304   6.817  0.4335 -0.0493 -0.0080
  160SAPE   H7R17884   0.672   0.306   6.716  2.5982 -1.1099  0.8758
  160SAPE   H7S17885   0.645   0.199   6.847 -2.0114 -0.5733 -0.1532
  160SAPE   C2817886   0.697   0.408   6.907  0.0035 -0.0479 -0.5984
  160SAPE   H8R17887   0.642   0.501   6.927 -0.3764 -0.6856  1.6926
  160SAPE   C2917888   0.819   0.408   6.965 -0.1746 -0.2112  0.1454
  160SAPE   H9R17889   0.837   0.486   7.040 -1.6321 -0.2202  0.5397
  160SAPE  C21017890   0.912   0.290   6.974  0.7787  0.4232  0.1143
  160SAPE  H10R17891   0.994   0.299   6.899  2.2096 -0.6467  1.4698
  160SAPE  H10S17892   0.864   0.197   6.935  2.0038 -0.5611  0.8854
  160SAPE  C21117893   0.974   0.273   7.110  0.2857 -0.3076 -0.0823
  160SAPE  H11R17894   0.910   0.294   7.197  1.2746 -1.8714  1.0728
  160SAPE  C21217895   1.090   0.209   7.139 -0.1412 -0.2523 -0.3948
  160SAPE  H12R17896   1.126   0.181   7.239 -0.8918  0.7185  0.1558
  160SAPE  C21317897   1.168   0.145   7.027  0.3764  0.4535 -0.2032
  160SAPE  H13R17898   1.273   0.120   7.055  0.7054  0.4788 -1.3605
  160SAPE  H13S17899   1.179   0.207   6.935  2.2401  0.8588  0.2603
  160SAPE  C21417900   1.104   0.007   7.002 -0.2335  0.3413  0.4182
  160SAPE  H14R17901   1.004  -0.008   7.044 -0.1327 -1.8753 -0.0085
  160SAPE  C21517902   1.151  -0.085   6.913 -0.0938 -0.4173 -0.3862
  160SAPE  H15R17903   1.102  -0.183   6.902  0.1840 -0.3256 -3.3434
  160SAPE  C21617904   1.270  -0.066   6.823 -0.7884 -0.2911  0.0755
  160SAPE  H16R17905   1.315   0.034   6.836 -0.4492 -0.4383  0.0407
  160SAPE  H16S17906   1.231  -0.061   6.719  0.6962 -2.1784 -0.6319
  160SAPE  C21717907   1.385  -0.168   6.845 -0.4893 -0.3275  0.1272
  160SAPE  H17R17908   1.345  -0.267   6.812 -0.3046  0.0025 -1.1003
  160SAPE  H17S17909   1.409  -0.181   6.953  1.6172 -1.7103 -0.4540
  160SAPE  C21817910   1.510  -0.132   6.764  0.6619  0.1564  0.2472
  160SAPE  H18R17911   1.590  -0.203   6.792  1.3453  1.5515  1.9985
  160SAPE  H18S17912   1.547  -0.030   6.787 -0.1124  0.9183 -1.6977
  160SAPE  C21917913   1.491  -0.129   6.608  0.0808 -0.0969  0.5341
  160SAPE  H19R17914   1.415  -0.052   6.585  0.1312  0.1300  1.0886
  160SAPE  H19S17915   1.443  -0.225   6.577 -2.2064  0.9661  0.6079
  160SAPE  C22017916   1.617  -0.094   6.521 -0.2883 -0.0825 -0.3384
  160SAPE  H20R17917   1.596  -0.030   6.432  1.1671  1.2464  0.2212
  160SAPE  H20S17918   1.671  -0.185   6.487  0.0810  0.0562 -0.1220
  160SAPE  H20T17919   1.687  -0.037   6.585  0.3626 -1.3220  0.0821
  160SAPE   C3317920   1.018   0.466   6.549 -0.1454 -0.7433 -0.1551
  160SAPE   H3X17921   0.923   0.492   6.497  0.0135 -0.6191 -0.3822
  160SAPE   H3Y17922   1.097   0.492   6.476  0.4112  2.1526  1.3361
  160SAPE   C3417923   1.024   0.547   6.679  0.3169 -0.5390  0.6808
  160SAPE   H4X17924   1.106   0.500   6.737  1.1748 -0.4330 -0.3990
  160SAPE   H4Y17925   0.926   0.522   6.726  0.1671  0.5044  0.9504
  160SAPE   C3517926   1.043   0.693   6.653 -0.7108  0.2533 -0.3064
  160SAPE   H5X17927   0.979   0.721   6.566  0.1879 -1.9602 -1.7735
  160SAPE   H5Y17928   1.148   0.700   6.616 -0.3472 -0.9133  0.4843
  160SAPE   C3617929   1.023   0.779   6.776  0.5953 -0.6043 -0.0224
  160SAPE   H6X17930   0.919   0.771   6.814  1.2519  1.9158  2.6575
  160SAPE   H6Y17931   1.046   0.885   6.751  0.4478 -0.5102  0.2381
  160SAPE   C3717932   1.116   0.734   6.891 -0.2866 -0.7637  0.4770
  160SAPE   H7X17933   1.220   0.717   6.855  0.0789  1.8441  0.1431
  160SAPE   H7Y17934   1.072   0.638   6.926 -1.2984 -0.9831 -1.2710
  160SAPE   C3817935   1.128   0.830   7.009 -0.4433  0.0998  0.0150
  160SAPE   H8X17936   1.028   0.866   7.039 -0.0321  3.4218 -2.1039
  160SAPE   H8Y17937   1.188   0.915   6.971 -2.2394  1.0527 -0.8092
  160SAPE   C3917938   1.208   0.781   7.126 -0.1874  1.0400  0.2683
  160SAPE   H9X17939   1.252   0.868   7.179  0.0540  0.5843  0.8309
  160SAPE   H9Y17940   1.287   0.708   7.097 -0.7612  0.8031 -0.7293
  160SAPE  C31017941   1.106   0.702   7.213  0.3440 -0.5510 -0.6780
  160SAPE  H10X17942   1.162   0.627   7.272 -1.2136 -2.7719 -1.8489
  160SAPE  H10Y17943   1.025   0.647   7.159 -1.1981  1.6507 -0.7142
  160SAPE  C31117944   1.051   0.809   7.307  0.0246  0.1716 -0.2453
  160SAPE  H11X17945   0.975   0.872   7.257  1.1473  3.1670  1.5136
  160SAPE  H11Y17946   1.121   0.894   7.323 -0.4141  0.8620 -1.7784
  160SAPE  C31217947   0.996   0.755   7.433  0.2571  0.3919 -0.2294
  160SAPE  H12X17948   0.985   0.839   7.505  1.3352 -0.5666  1.1230
  160SAPE  H12Y17949   1.076   0.695   7.481  1.6103 -0.7914 -3.6725
  160SAPE  C31317950   0.864   0.682   7.411  0.3663 -0.4767  0.0458
  160SAPE  H13X17951   0.868   0.603   7.489  0.7076 -2.2668 -1.6876
  160SAPE  H13Y17952   0.862   0.632   7.312 -2.1184 -1.7179  0.6259
  160SAPE  C31417953   0.734   0.772   7.435 -0.3019  0.2398  0.2508
  160SAPE  H14X17954   0.737   0.868   7.379 -1.5014  0.5942  0.7704
  160SAPE  H14Y17955   0.734   0.800   7.543  1.5507 -0.1243  0.3774
  160SAPE  C31517956   0.604   0.703   7.379 -0.1536 -0.7106 -0.2150
  160SAPE  H15X17957   0.520   0.764   7.418  0.7760  0.4507  0.0225
  160SAPE  H15Y17958   0.592   0.595   7.402 -1.8882 -0.1018  2.1207
  160SAPE  C31617959   0.599   0.727   7.224  0.4611 -0.5817 -0.1363
  160SAPE  H16X17960   0.699   0.713   7.180 -0.2171 -0.6200 -1.7369
  160SAPE  H16Y17961   0.581   0.831   7.189 -1.2766 -0.5919  0.6107
  160SAPE  C31717962   0.490   0.642   7.153  0.1708 -0.2633 -0.3970
  160SAPE  H17X17963   0.393   0.661   7.203  0.6517 -0.1373  0.5152
  160SAPE  H17Y17964   0.515   0.535   7.171 -0.1439 -0.3026 -0.1845
  160SAPE  C31817965   0.490   0.686   7.007 -0.0403  0.5516  0.5820
  160SAPE  H18X17966   0.592   0.690   6.964 -0.3018  2.0070  0.0199
  160SAPE  H18Y17967   0.452   0.791   7.007  1.5970  1.1671  0.3348
  160SAPE  H18Z17968   0.419   0.618   6.954  1.1286  0.7897 -1.3593
  161SOPE     N17969   3.119   2.339  10.102  0.1636 -0.2830  0.7058
  161SOPE   HN117970   3.166   2.254  10.067  0.8961  0.4636 -0.2017
  161SOPE   HN217971   3.087   2.332  10.201 -0.5878  1.1637  0.5991
  161SOPE   HN317972   3.034   2.369  10.050  1.9053 -0.2508 -2.3467
  161SOPE   C1217973   3.223   2.454  10.090  0.5338 -0.0351  0.4907
  161SOPE  H12A17974   3.292   2.442  10.177 -0.5995  1.2399  1.6271
  161SOPE  H12B17975   3.164   2.544  10.118 -2.0763 -2.0979  2.0661
  161SOPE   C1117976   3.290   2.469   9.954  0.3844  0.0273  0.1692
  161SOPE  H11A17977   3.325   2.575   9.955 -1.0650  0.5281  0.0252
  161SOPE  H11B17978   3.221   2.459   9.867 -0.2861 -1.2878  0.8307
  161SOPE     P17979   3.543   2.396   9.953  0.0721 -0.4041 -0.2281
  161SOPE   O1317980   3.616   2.268   9.952  0.4352  0.4739 -0.1934
  161SOPE   O1417981   3.574   2.475  10.076  0.2919  0.8445 -0.0011
  161SOPE   O1217982   3.391   2.371   9.928 -0.1102 -0.6633 -0.0897
  161SOPE   O1117983   3.591   2.476   9.826 -0.3210  0.0681 -0.5450
  161SOPE    C117984   3.515   2.560   9.747  0.5474  0.0375  0.5280
  161SOPE    HA17985   3.540   2.663   9.776  1.0654 -0.3981  1.6647
  161SOPE    HB17986   3.407   2.533   9.742  0.2616  1.3698 -1.7463
  161SOPE    C217987   3.550   2.545   9.592 -0.7156  0.4866  0.0816
  161SOPE    HS17988   3.497   2.461   9.543  1.2909 -0.5056 -0.5323
  161SOPE   O2117989   3.688   2.529   9.571 -0.0094 -0.3257 -0.4774
  161SOPE   C2117990   3.734   2.405   9.548  0.2891  0.0081 -1.0389
  161SOPE   O2217991   3.671   2.301   9.545 -0.2337  0.3289  1.0701
  161SOPE   C2217992   3.885   2.415   9.543  0.3368 -0.4943  0.0673
  161SOPE   H2R17993   3.917   2.397   9.648  0.1541 -0.0745  0.1948
  161SOPE   H2S17994   3.921   2.514   9.507  0.2082 -0.0181  1.2154
  161SOPE    C317995   3.498   2.675   9.522  0.1633 -0.9815 -0.6834
  161SOPE    HX17996   3.558   2.756   9.568  0.0809 -1.0780 -0.4034
  161SOPE    HY17997   3.389   2.683   9.542  0.1430  1.3236 -1.4709
  161SOPE   O3117998   3.514   2.659   9.381  0.4924 -0.1365 -0.0669
  161SOPE   C3117999   3.591   2.748   9.317  0.6876  0.4803 -0.1913
  161SOPE   O3218000   3.641   2.846   9.364 -0.1910  0.0732  0.4435
  161SOPE   C3218001   3.631   2.688   9.183 -0.1988 -0.3947 -0.2376
  161SOPE   H2X18002   3.559   2.610   9.151  1.2950 -1.2014 -1.8601
  161SOPE   H2Y18003   3.730   2.640   9.200  0.0407 -0.2260 -1.0919
  161SOPE   C2318004   3.954   2.312   9.449 -0.1163  0.1666  0.0810
  161SOPE   H3R18005   3.931   2.207   9.477 -0.6067  0.1914 -0.2234
  161SOPE   H3S18006   4.064   2.327   9.453 -0.3115  1.4647  1.2161
  161SOPE   C2418007   3.921   2.339   9.299  0.4988 -0.4552  0.1210
  161SOPE   H4R18008   3.941   2.444   9.270  3.9627 -0.7709  0.8759
  161SOPE   H4S18009   3.986   2.280   9.229  0.6614 -1.5858  1.1888
  161SOPE   C2518010   3.777   2.291   9.256  0.4705  0.4018  0.4490
  161SOPE   H5R18011   3.773   2.180   9.258 -0.3314  0.3830 -1.0393
  161SOPE   H5S18012   3.690   2.330   9.313  0.3261 -2.0602  2.0711
  161SOPE   C2618013   3.750   2.323   9.111  0.1200  0.1465 -0.3878
  161SOPE   H6R18014   3.641   2.334   9.095 -0.0701 -1.6645 -0.5219
  161SOPE   H6S18015   3.801   2.415   9.076  0.8698 -0.8871 -2.1635
  161SOPE   C2718016   3.794   2.214   9.016 -0.1983  0.2444  0.5381
  161SOPE   H7R18017   3.901   2.193   9.033 -0.0979  1.6113  1.7575
  161SOPE   H7S18018   3.740   2.118   9.032 -2.3957  1.1313 -1.0513
  161SOPE   C2818019   3.774   2.234   8.865 -0.6993  0.4352 -0.5362
  161SOPE   H8R18020   3.832   2.326   8.844 -1.7827  1.6699  1.5564
  161SOPE   H8S18021   3.813   2.149   8.805 -1.2992 -1.3611  1.4644
  161SOPE   C2918022   3.627   2.254   8.823 -0.3089  0.9946  0.4712
  161SOPE   H9118023   3.581   2.353   8.836 -5.1402 -1.0520  1.0950
  161SOPE  C21018024   3.536   2.153   8.816 -0.2958 -0.3739  0.5732
  161SOPE  H10118025   3.432   2.170   8.786 -0.3192 -2.6987 -0.9091
  161SOPE  C21118026   3.574   2.007   8.822 -0.2526  0.1645 -0.2545
  161SOPE  H11R18027   3.516   1.953   8.899  0.6073  1.4469  1.3898
  161SOPE  H11S18028   3.670   1.998   8.878 -0.6523  1.7440  0.7687
  161SOPE  C21218029   3.584   1.938   8.688 -0.2246  0.2140 -0.1222
  161SOPE  H12R18030   3.483   1.946   8.642 -0.0416  1.9987 -0.2972
  161SOPE  H12S18031   3.614   1.832   8.698  0.3296  0.4448  0.8107
  161SOPE  C21318032   3.688   2.001   8.595 -1.1209 -0.0392  0.6187
  161SOPE  H13R18033   3.793   2.002   8.634 -1.0825 -0.8011  0.5477
  161SOPE  H13S18034   3.664   2.105   8.562 -0.6466 -0.9929 -3.2035
  161SOPE  C21418035   3.704   1.928   8.467 -0.1658 -0.0177  0.7006
  161SOPE  H14R18036   3.744   1.826   8.489 -1.6904 -1.6663 -3.3136
  161SOPE  H14S18037   3.776   1.978   8.399 -0.7354 -0.8636 -0.5707
  161SOPE  C21518038   3.572   1.906   8.395 -0.8616  0.5720  0.3800
  161SOPE  H15R18039   3.523   2.004   8.378  1.1914  1.5861 -0.0329
  161SOPE  H15S18040   3.505   1.835   8.449 -2.2581 -0.1801 -2.1685
  161SOPE  C21618041   3.591   1.822   8.254 -0.3432 -0.0758 -0.2954
  161SOPE  H16R18042   3.625   1.723   8.292 -1.4805 -0.9564 -1.4853
  161SOPE  H16S18043   3.659   1.864   8.178 -1.1145 -2.0652 -2.2077
  161SOPE  C21718044   3.461   1.792   8.186 -0.4993  0.7933  0.1845
  161SOPE  H17R18045   3.392   1.759   8.267  0.9391  2.4535  2.2083
  161SOPE  H17S18046   3.468   1.708   8.114 -0.0101  2.2615 -1.5415
  161SOPE  C21818047   3.399   1.910   8.106 -0.1464  0.9150  0.0931
  161SOPE  H18R18048   3.464   1.936   8.020 -1.9521 -1.8293 -2.2807
  161SOPE  H18S18049   3.414   2.000   8.170 -0.9738  1.2261 -0.1379
  161SOPE  H18T18050   3.293   1.889   8.080  0.5365 -2.1191 -0.6498
  161SOPE   C3318051   3.646   2.791   9.074 -0.1227 -0.1249  0.2910
  161SOPE   H3X18052   3.700   2.884   9.101  0.6192 -0.3994 -0.2118
  161SOPE   H3Y18053   3.546   2.813   9.030 -0.8238 -1.3415  1.2098
  161SOPE   C3418054   3.729   2.713   8.960 -0.0287 -0.4030 -0.4084
  161SOPE   H4X18055   3.682   2.614   8.941  0.7182 -0.4911 -1.9544
  161SOPE   H4Y18056   3.834   2.695   8.991 -0.2753 -1.2705 -0.0276
  161SOPE   C3518057   3.715   2.784   8.826  0.4103  0.2621  0.2951
  161SOPE   H5X18058   3.752   2.888   8.843  0.8337 -0.3444  3.7730
  161SOPE   H5Y18059   3.609   2.801   8.799  0.9298  0.9394 -1.5032
  161SOPE   C3618060   3.795   2.705   8.724 -1.1023  0.0260  0.2918
  161SOPE   H6X18061   3.761   2.741   8.624 -0.7651  1.4294  0.6493
  161SOPE   H6Y18062   3.792   2.595   8.736 -0.3757  0.1351  1.6518
  161SOPE   C3718063   3.947   2.739   8.730 -0.6627  0.2516  0.1615
  161SOPE   H7X18064   3.988   2.711   8.830  2.4955  1.7367 -0.6203
  161SOPE   H7Y18065   3.962   2.849   8.735 -1.6155  0.4676 -1.2508
  161SOPE   C3818066   4.029   2.686   8.609  0.4471  0.3145  0.0513
  161SOPE   H8X18067   4.016   2.575   8.611 -2.3658  0.5712  1.1337
  161SOPE   H8Y18068   4.138   2.704   8.619  0.5098 -0.8674  1.8098
  161SOPE   C3918069   3.974   2.732   8.474  0.1125 -0.0867 -0.1984
  161SOPE   H9X18070   3.876   2.688   8.446 -0.6991  1.4528  0.0671
  161SOPE   H9Y18071   4.053   2.703   8.401  0.2752 -1.5673  0.5514
  161SOPE  C31018072   3.956   2.886   8.449 -0.1318  0.7354 -0.2677
  161SOPE  H10X18073   3.888   2.925   8.528  0.1779  4.1220 -1.4987
  161SOPE  H10Y18074   3.908   2.904   8.350 -0.0502  1.0153 -0.2557
  161SOPE  C31118075   4.085   2.966   8.458 -0.4079 -0.5912 -0.7158
  161SOPE  H11X18076   4.118   2.973   8.564 -0.3856  0.2290 -0.7725
  161SOPE  H11Y18077   4.063   3.069   8.421 -3.4684 -0.4503  1.1162
  161SOPE  C31218078   4.202   2.918   8.375  0.6523  0.0583 -0.8162
  161SOPE  H12X18079   4.160   2.879   8.281 -1.3089 -0.4437  0.2205
  161SOPE  H12Y18080   4.252   2.830   8.423  0.9566  1.2539  1.1966
  161SOPE  C31318081   4.320   3.020   8.360  0.9081 -0.0689  1.2870
  161SOPE  H13X18082   4.274   3.106   8.308  4.2379  0.5894 -0.8733
  161SOPE  H13Y18083   4.400   2.977   8.297  0.1781 -0.4616  0.6159
  161SOPE  C31418084   4.376   3.060   8.503 -0.2605 -0.6367  0.5701
  161SOPE  H14X18085   4.405   2.962   8.547  2.2042  0.6635  2.0876
  161SOPE  H14Y18086   4.299   3.105   8.570  0.1972  0.5333  0.3414
  161SOPE  C31518087   4.503   3.148   8.510  0.3789 -0.1782 -0.1079
  161SOPE  H15X18088   4.484   3.243   8.457  4.0179 -0.0540 -1.4682
  161SOPE  H15Y18089   4.587   3.101   8.453  0.3582 -0.3546  0.0039
  161SOPE  C31618090   4.567   3.178   8.650 -0.4056  0.8106 -0.4734
  161SOPE  H16X18091   4.498   3.223   8.725  1.5499 -0.7994  2.4752
  161SOPE  H16Y18092   4.647   3.254   8.646  0.5828 -0.1464  0.3955
  161SOPE  C31718093   4.614   3.050   8.730  0.3312 -0.2943  0.1958
  161SOPE  H17X18094   4.718   3.030   8.696 -0.6787 -1.3758 -2.4746
  161SOPE  H17Y18095   4.558   2.960   8.696 -0.6489  0.3862 -0.0209
  161SOPE  C31818096   4.600   3.079   8.877  0.1391  0.0915  0.0433
  161SOPE  H18X18097   4.494   3.098   8.904 -0.6015 -2.2770 -0.9284
  161SOPE  H18Y18098   4.661   3.171   8.891  0.3019  0.0442 -0.3609
  161SOPE  H18Z18099   4.625   2.993   8.942  1.5501  0.9230  0.6412
  162SOPE     N18100   3.565   1.722  10.160  0.1237  0.0136 -0.5872
  162SOPE   HN118101   3.520   1.812  10.184  1.2138  0.0780  1.4804
  162SOPE   HN218102   3.494   1.650  10.183 -0.9011  0.3749 -2.4574
  162SOPE   HN318103   3.644   1.708  10.226 -1.3420  0.3373  1.3076
  162SOPE   C1218104   3.613   1.711  10.016 -0.5640  0.0247 -0.1554
  162SOPE  H12A18105   3.681   1.799  10.014 -2.9075  2.2403  3.9506
  162SOPE  H12B18106   3.524   1.731   9.953 -1.0111  0.5196  0.6039
  162SOPE   C1118107   3.681   1.579   9.988 -0.5397  0.6732  0.6501
  162SOPE  H11A18108   3.764   1.556  10.057 -0.7089 -0.0874  0.6105
  162SOPE  H11B18109   3.721   1.590   9.885 -1.5495  0.9922  0.2751
  162SOPE     P18110   3.549   1.376   9.881 -0.2582 -0.1877 -0.1310
  162SOPE   O1318111   3.423   1.318   9.910  0.2051  0.0813  0.2893
  162SOPE   O1418112   3.668   1.285   9.880  0.4450 -0.4301  0.3642
  162SOPE   O1218113   3.578   1.478   9.993 -0.2186 -0.1798 -0.6186
  162SOPE   O1118114   3.547   1.455   9.747 -0.1624  0.4450  0.1752
  162SOPE    C118115   3.432   1.530   9.705  0.3372 -0.0046 -0.7156
  162SOPE    HA18116   3.465   1.626   9.659  0.9444  1.4085  2.4200
  162SOPE    HB18117   3.367   1.559   9.790  1.2004  1.4814 -0.5303
  162SOPE    C218118   3.359   1.462   9.587  0.3482  0.1930 -0.2297
  162SOPE    HS18119   3.330   1.364   9.631  1.1967 -1.2165 -2.5864
  162SOPE   O2118120   3.451   1.448   9.484  0.3800  0.2708  0.1359
  162SOPE   C2118121   3.495   1.327   9.461 -0.0758 -0.1116 -0.0024
  162SOPE   O2218122   3.470   1.227   9.521 -0.1476  0.0236  0.5158
  162SOPE   C2218123   3.597   1.323   9.345  0.3064  0.5093  0.3073
  162SOPE   H2R18124   3.660   1.234   9.368 -0.4063 -0.3523 -0.9652
  162SOPE   H2S18125   3.662   1.410   9.369  0.0126  0.4700  1.3088
  162SOPE    C318126   3.246   1.552   9.539 -0.4059 -0.2465  0.1482
  162SOPE    HX18127   3.277   1.657   9.524  0.9413 -0.8451 -1.4977
  162SOPE    HY18128   3.171   1.568   9.619  0.5496 -0.3789  1.0909
  162SOPE   O3118129   3.202   1.502   9.408 -0.2248 -0.2075  0.1966
  162SOPE   C3118130   3.116   1.403   9.411 -0.2814  0.7216  0.3147
  162SOPE   O3218131   3.050   1.369   9.506  0.1045  0.1911  0.2429
  162SOPE   C3218132   3.109   1.340   9.275 -0.0539  0.8465 -0.4510
  162SOPE   H2X18133   3.189   1.263   9.268 -0.5770 -0.0640  2.4549
  162SOPE   H2Y18134   3.126   1.426   9.207  0.9598  2.0175  1.1998
  162SOPE   C2318135   3.532   1.332   9.205  0.1179 -0.7373  0.1976
  162SOPE   H3R18136   3.605   1.369   9.130 -0.4356  1.8447  0.8245
  162SOPE   H3S18137   3.440   1.395   9.202  0.1557 -0.6944 -0.0413
  162SOPE   C2418138   3.484   1.194   9.166  0.1199 -0.1851  0.4017
  162SOPE   H4R18139   3.576   1.137   9.143 -0.6145 -0.3565 -2.6043
  162SOPE   H4S18140   3.436   1.138   9.249  0.2232 -0.0129  0.5790
  162SOPE   C2518141   3.396   1.200   9.041 -0.2269 -0.2559  0.5896
  162SOPE   H5R18142   3.391   1.096   9.001 -0.4521 -0.3961  0.9761
  162SOPE   H5S18143   3.292   1.224   9.072 -0.7916 -2.0446  0.1854
  162SOPE   C2618144   3.440   1.303   8.930  0.8702  0.0897 -0.3491
  162SOPE   H6R18145   3.424   1.399   8.983  3.6173 -0.5548  1.9382
  162SOPE   H6S18146   3.545   1.279   8.900  0.3893 -2.3392 -0.3067
  162SOPE   C2718147   3.349   1.318   8.810 -0.2656 -0.1636 -0.2170
  162SOPE   H7R18148   3.246   1.347   8.840 -0.4301 -0.6200 -0.3429
  162SOPE   H7S18149   3.385   1.403   8.749  1.3450 -0.4156  0.3412
  162SOPE   C2818150   3.333   1.190   8.721 -0.4244 -0.4909 -0.3407
  162SOPE   H8R18151   3.431   1.172   8.672 -0.5322 -2.9483  0.2243
  162SOPE   H8S18152   3.310   1.097   8.778 -3.9034  0.7111  0.4933
  162SOPE   C2918153   3.224   1.220   8.623  0.0315  0.9121 -0.3503
  162SOPE   H9118154   3.129   1.193   8.671  0.3370  3.3341  1.8622
  162SOPE  C21018155   3.227   1.267   8.498 -1.0913 -0.1666 -0.4361
  162SOPE  H10118156   3.137   1.301   8.444 -0.4393  0.9986 -0.8429
  162SOPE  C21118157   3.355   1.303   8.434  0.1247  0.1336 -0.3054
  162SOPE  H11R18158   3.419   1.348   8.513 -3.3281  2.0960  1.6078
  162SOPE  H11S18159   3.339   1.396   8.375  0.7243  0.1449 -0.4548
  162SOPE  C21218160   3.422   1.193   8.348  0.5291  0.0429 -0.2437
  162SOPE  H12R18161   3.432   1.107   8.418 -2.3823  1.2376  1.8323
  162SOPE  H12S18162   3.527   1.227   8.332  0.8363 -0.6856  0.1627
  162SOPE  C21318163   3.357   1.163   8.218  0.3860  0.1607  0.2184
  162SOPE  H13R18164   3.337   1.255   8.159  2.3221  1.5077  1.5290
  162SOPE  H13S18165   3.262   1.110   8.239 -0.6932  2.5973  1.9841
  162SOPE  C21418166   3.444   1.067   8.136 -0.1046 -0.5298 -0.0931
  162SOPE  H14R18167   3.460   0.977   8.199 -1.5849 -1.2487 -0.6751
  162SOPE  H14S18168   3.547   1.103   8.120 -0.5012  1.4075  1.3636
  162SOPE  C21518169   3.387   1.010   8.006  0.3911 -0.8615 -0.5242
  162SOPE  H15R18170   3.414   1.094   7.938  0.0450  1.4890  2.0449
  162SOPE  H15S18171   3.276   1.007   8.008  0.3016  1.0416  0.2100
  162SOPE  C21618172   3.452   0.882   7.953  0.2259  0.1317 -0.7999
  162SOPE  H16R18173   3.483   0.812   8.033  1.4903 -1.1821 -2.3522
  162SOPE  H16S18174   3.552   0.900   7.907  1.1868  0.1051  1.1780
  162SOPE  C21718175   3.367   0.806   7.851 -0.8149  0.2657 -0.3731
  162SOPE  H17R18176   3.281   0.754   7.900 -1.1870 -0.5077 -1.8012
  162SOPE  H17S18177   3.420   0.720   7.804  1.8234  1.9169 -0.5970
  162SOPE  C21818178   3.325   0.901   7.737  0.0341  0.1465  0.0755
  162SOPE  H18R18179   3.277   0.991   7.781  3.9531  1.7580  1.4562
  162SOPE  H18S18180   3.261   0.843   7.667 -0.3916 -0.5168  0.9925
  162SOPE  H18T18181   3.420   0.935   7.691  0.6100  0.4214  1.4256
  162SOPE   C3318182   2.973   1.279   9.236 -0.4963  0.7961  0.5091
  162SOPE   H3X18183   2.891   1.353   9.248 -1.2291 -0.0224  0.5835
  162SOPE   H3Y18184   2.953   1.197   9.308  0.4342  1.7208  1.8640
  162SOPE   C3418185   2.984   1.202   9.101 -0.0324  0.2106 -0.0062
  162SOPE   H4X18186   2.899   1.131   9.108  0.5187 -0.7340 -2.1405
  162SOPE   H4Y18187   3.084   1.154   9.094  0.5892  1.3666  0.5352
  162SOPE   C3518188   2.974   1.293   8.980 -0.3993 -0.3215 -0.2634
  162SOPE   H5X18189   3.069   1.346   8.959  0.2613 -1.4431 -0.1813
  162SOPE   H5Y18190   2.894   1.369   8.992 -2.0391 -1.5641 -2.4425
  162SOPE   C3618191   2.915   1.222   8.850  0.2034  0.1263  0.1826
  162SOPE   H6X18192   2.819   1.169   8.864 -0.3961  1.3988  1.0554
  162SOPE   H6Y18193   2.993   1.149   8.819  1.3040  1.3842 -0.1118
  162SOPE   C3718194   2.891   1.329   8.735 -0.6943 -0.0644 -0.4754
  162SOPE   H7X18195   2.996   1.358   8.712  0.3473 -1.1326  2.3628
  162SOPE   H7Y18196   2.840   1.421   8.771  0.6589 -0.3186  2.3985
  162SOPE   C3818197   2.801   1.286   8.626  0.2236  0.3115  0.5617
  162SOPE   H8X18198   2.701   1.334   8.635 -0.4130 -1.1846  1.7797
  162SOPE   H8Y18199   2.778   1.179   8.641  0.6534 -0.1399 -1.5995
  162SOPE   C3918200   2.865   1.289   8.493  0.6399  0.0421  0.4480
  162SOPE   H9X18201   2.962   1.236   8.502  2.1386  2.1372 -2.1942
  162SOPE   H9Y18202   2.894   1.389   8.455 -0.3319 -0.7056 -2.4624
  162SOPE  C31018203   2.781   1.209   8.390  0.0430  0.0818 -0.0875
  162SOPE  H10X18204   2.686   1.266   8.395  0.9084  1.5227  0.8083
  162SOPE  H10Y18205   2.763   1.108   8.433 -0.7833 -0.4805 -1.6910
  162SOPE  C31118206   2.839   1.198   8.248  0.5276 -0.0734 -0.5462
  162SOPE  H11X18207   2.945   1.164   8.250  1.0315  1.4758  0.7050
  162SOPE  H11Y18208   2.842   1.297   8.197  1.5610 -0.6410 -1.6499
  162SOPE  C31218209   2.749   1.105   8.162  0.4652  0.0512 -0.1332
  162SOPE  H12X18210   2.649   1.147   8.136  0.0595 -0.6461  0.2611
  162SOPE  H12Y18211   2.744   1.008   8.216  1.0780  0.0536 -0.0726
  162SOPE  C31318212   2.804   1.099   8.014 -0.3424  0.9290 -1.2948
  162SOPE  H13X18213   2.902   1.048   8.028 -1.0353  0.5234  3.8233
  162SOPE  H13Y18214   2.823   1.201   7.974  0.3140  0.7589 -1.4334
  162SOPE  C31418215   2.726   1.014   7.919  0.3791  0.1918 -0.0466
  162SOPE  H14X18216   2.624   1.058   7.910  0.8785  1.0853 -1.9387
  162SOPE  H14Y18217   2.724   0.908   7.951  1.6075 -0.0720 -0.7946
  162SOPE  C31518218   2.798   1.031   7.783  0.1323  0.0442 -0.8305
  162SOPE  H15X18219   2.902   0.991   7.789  0.3752  0.7876  0.4810
  162SOPE  H15Y18220   2.795   1.137   7.752 -0.5906  0.4508  0.5213
  162SOPE  C31618221   2.714   0.953   7.679 -0.0717  0.4376  0.4135
  162SOPE  H16X18222   2.681   0.861   7.731 -1.3404  0.6332 -0.0049
  162SOPE  H16Y18223   2.786   0.950   7.595 -1.2536  1.9459 -0.7232
  162SOPE  C31718224   2.587   1.031   7.636 -0.6496 -0.0630  0.0782
  162SOPE  H17X18225   2.620   1.108   7.564 -1.8151  0.0217 -0.3981
  162SOPE  H17Y18226   2.556   1.095   7.721 -0.0119  0.1595  0.1431
  162SOPE  C31818227   2.479   0.939   7.581  0.3239 -0.4912 -0.3752
  162SOPE  H18X18228   2.407   0.895   7.653 -1.6722  1.3101 -1.1465
  162SOPE  H18Y18229   2.525   0.855   7.524  1.4871 -0.7246  0.8550
  162SOPE  H18Z18230   2.412   1.002   7.518 -0.4572 -0.3958  0.5330
  163SOPE     N18231   4.452   1.175   9.836  0.0918  0.4828 -0.5066
  163SOPE   HN118232   4.539   1.125   9.861 -1.0391 -1.0643  0.5202
  163SOPE   HN218233   4.463   1.276   9.861 -2.2989  0.9118 -0.8986
  163SOPE   HN318234   4.365   1.142   9.882  0.7102 -1.3632 -0.5966
  163SOPE   C1218235   4.436   1.176   9.687 -0.1386  0.0143 -0.4029
  163SOPE  H12A18236   4.339   1.229   9.670  0.5462  1.9516  1.3448
  163SOPE  H12B18237   4.447   1.069   9.659  2.5742  0.2234 -0.4131
  163SOPE   C1118238   4.549   1.248   9.616 -0.3185  0.4002  1.2515
  163SOPE  H11A18239   4.590   1.338   9.668  1.0398 -0.5916  1.9557
  163SOPE  H11B18240   4.508   1.283   9.519 -0.0086  0.4683  1.1433
  163SOPE     P18241   4.787   1.229   9.498 -0.0759 -0.2411 -0.5221
  163SOPE   O1318242   4.885   1.117   9.478  0.5351 -0.2098  0.0523
  163SOPE   O1418243   4.835   1.339   9.584 -0.7648  0.0029  0.1829
  163SOPE   O1218244   4.662   1.170   9.586 -0.1450  0.1851 -0.0519
  163SOPE   O1118245   4.719   1.279   9.361 -0.5100  0.0828 -0.1017
  163SOPE    C118246   4.759   1.404   9.302 -0.3814 -0.1362 -0.4020
  163SOPE    HA18247   4.847   1.445   9.356 -1.0746  0.7140  0.1143
  163SOPE    HB18248   4.672   1.473   9.307  0.1337  0.5353 -0.5878
  163SOPE    C218249   4.813   1.387   9.157 -0.2063 -0.3836  0.5320
  163SOPE    HS18250   4.845   1.488   9.123  0.6954 -0.6014  0.6980
  163SOPE   O2118251   4.713   1.343   9.062 -0.5708  0.0021 -0.4299
  163SOPE   C2118252   4.624   1.421   9.037  0.0637 -0.3330  0.3667
  163SOPE   O2218253   4.620   1.539   9.077  0.1675 -0.4427  0.5654
  163SOPE   C2218254   4.520   1.359   8.946 -0.5758  0.1050 -0.2817
  163SOPE   H2R18255   4.460   1.280   8.997  1.7732 -0.5636  1.6467
  163SOPE   H2S18256   4.571   1.305   8.864  1.0181  0.5558  0.3753
  163SOPE    C318257   4.944   1.293   9.158 -0.5411 -0.0617  0.3428
  163SOPE    HX18258   4.906   1.199   9.204 -1.1906  0.5788  1.1302
  163SOPE    HY18259   5.012   1.341   9.232 -0.6233 -1.1578  1.1648
  163SOPE   O3118260   5.003   1.279   9.031  0.0670  0.0927 -0.4938
  163SOPE   C3118261   4.999   1.158   8.979  0.4249 -0.8348 -0.2598
  163SOPE   O3218262   4.951   1.061   9.036  0.0066 -0.0599  0.2948
  163SOPE   C3218263   5.042   1.176   8.831  0.3817  0.5527 -0.0076
  163SOPE   H2X18264   5.041   1.075   8.785  0.9843  0.1509  0.8377
  163SOPE   H2Y18265   5.152   1.195   8.832  0.6962 -0.9904  1.9695
  163SOPE   C2318266   4.426   1.463   8.880  0.2027 -0.2818 -0.2080
  163SOPE   H3R18267   4.487   1.536   8.822  0.7163 -0.1771  0.4590
  163SOPE   H3S18268   4.368   1.525   8.951  0.9331  0.8951 -0.6019
  163SOPE   C2418269   4.332   1.399   8.778  0.4458  0.0912  0.0267
  163SOPE   H4R18270   4.264   1.327   8.828 -1.4362 -0.2503 -2.7863
  163SOPE   H4S18271   4.257   1.474   8.746  1.7718  1.5772  0.2226
  163SOPE   C2518272   4.393   1.325   8.663 -0.7827 -1.1533  0.1442
  163SOPE   H5R18273   4.475   1.385   8.619 -0.8428 -1.5402 -0.5167
  163SOPE   H5S18274   4.439   1.241   8.719 -2.2766 -0.7970  2.0364
  163SOPE   C2618275   4.298   1.278   8.552  0.2245 -0.1222  0.3246
  163SOPE   H6R18276   4.215   1.221   8.599  0.3233 -2.0864 -1.7348
  163SOPE   H6S18277   4.258   1.369   8.503 -1.7976 -0.1539  1.7748
  163SOPE   C2718278   4.369   1.184   8.452 -0.1013  0.1115  0.3860
  163SOPE   H7R18279   4.447   1.235   8.392 -0.1188  0.6833  0.8373
  163SOPE   H7S18280   4.422   1.106   8.511 -3.6037 -0.6379  2.8849
  163SOPE   C2818281   4.265   1.127   8.351 -0.4574  0.0670 -0.2171
  163SOPE   H8R18282   4.189   1.078   8.416 -0.6047  0.5695 -0.0129
  163SOPE   H8S18283   4.225   1.220   8.306 -1.0914  0.6395  1.4539
  163SOPE   C2918284   4.332   1.039   8.241 -0.4714 -0.1367 -1.3221
  163SOPE   H9118285   4.356   0.936   8.270  1.9585  0.8551  0.5351
  163SOPE  C21018286   4.336   1.060   8.111  0.2738 -0.3576  0.5374
  163SOPE  H10118287   4.398   0.990   8.053  1.9426  1.1981  0.3582
  163SOPE  C21118288   4.275   1.175   8.041 -0.0240  0.0131 -0.0153
  163SOPE  H11R18289   4.226   1.243   8.113 -0.5495  1.7887 -1.9315
  163SOPE  H11S18290   4.197   1.136   7.971 -0.4598  0.7630  0.0394
  163SOPE  C21218291   4.382   1.260   7.974 -0.5696  0.4127  0.6890
  163SOPE  H12R18292   4.419   1.192   7.894  0.4553  1.0636  0.5982
  163SOPE  H12S18293   4.461   1.285   8.049 -0.8737 -1.7463  1.8130
  163SOPE  C21318294   4.320   1.377   7.900  0.7114  0.3032  0.4489
  163SOPE  H13R18295   4.299   1.450   7.982  0.8160  0.1989  0.5688
  163SOPE  H13S18296   4.229   1.347   7.844  1.4612  0.2465 -0.7597
  163SOPE  C21418297   4.405   1.420   7.777 -0.2612  0.4316 -0.2903
  163SOPE  H14R18298   4.421   1.331   7.713 -0.4661  0.3411 -0.2163
  163SOPE  H14S18299   4.496   1.465   7.825  0.1991 -0.3134 -0.4552
  163SOPE  C21518300   4.348   1.522   7.685  0.0040  0.2380 -0.0029
  163SOPE  H15R18301   4.260   1.478   7.633 -1.0668 -0.0573  1.9760
  163SOPE  H15S18302   4.428   1.558   7.616  0.3810 -0.9062 -0.1846
  163SOPE  C21618303   4.297   1.652   7.757  0.1518  0.3580 -0.1622
  163SOPE  H16R18304   4.360   1.695   7.838 -1.1839 -1.1202  1.7653
  163SOPE  H16S18305   4.209   1.610   7.811 -0.2365 -0.7952 -1.6337
  163SOPE  C21718306   4.251   1.764   7.657  0.0705  0.3510 -0.7024
  163SOPE  H17R18307   4.345   1.794   7.605  0.1646 -1.0218 -1.3832
  163SOPE  H17S18308   4.212   1.847   7.719 -1.1483  0.0764 -1.0742
  163SOPE  C21818309   4.157   1.715   7.545 -0.2945 -0.0909  0.3056
  163SOPE  H18R18310   4.189   1.625   7.488  3.0266  1.0253  0.1740
  163SOPE  H18S18311   4.136   1.797   7.472 -4.5828 -1.1679  0.0550
  163SOPE  H18T18312   4.054   1.697   7.582  0.6228 -1.7304  2.1922
  163SOPE   C3318313   4.947   1.256   8.738  0.4986 -0.7193  0.3316
  163SOPE   H3X18314   4.955   1.364   8.763  0.3714 -0.2529 -1.4780
  163SOPE   H3Y18315   4.842   1.222   8.751 -0.5589  2.2612  0.4381
  163SOPE   C3418316   4.978   1.245   8.585  0.8190 -0.6008  0.0701
  163SOPE   H4X18317   5.005   1.138   8.571  0.7817 -0.7760  1.2380
  163SOPE   H4Y18318   5.079   1.287   8.567 -0.0934  0.8757 -1.9952
  163SOPE   C3518319   4.880   1.311   8.492  0.8978  0.0432  0.6860
  163SOPE   H5X18320   4.924   1.354   8.399 -1.2054 -2.6361 -1.7269
  163SOPE   H5Y18321   4.830   1.392   8.550 -0.0826  1.1685 -1.5887
  163SOPE   C3618322   4.763   1.216   8.453  0.1508  0.6185 -0.0460
  163SOPE   H6X18323   4.675   1.279   8.430  0.8712  1.9227  0.6316
  163SOPE   H6Y18324   4.747   1.147   8.539  1.6266  0.3097  0.0162
  163SOPE   C3718325   4.793   1.126   8.332 -0.2588 -0.2163 -0.8943
  163SOPE   H7X18326   4.732   1.033   8.333 -1.4642  0.4716 -3.0011
  163SOPE   H7Y18327   4.900   1.101   8.344 -0.2025  0.5379  0.4139
  163SOPE   C3818328   4.763   1.194   8.196  0.6494  0.3705 -0.3936
  163SOPE   H8X18329   4.827   1.284   8.185 -0.2026  0.9067 -1.0686
  163SOPE   H8Y18330   4.656   1.223   8.192  0.6937  0.6681  0.4741
  163SOPE   C3918331   4.784   1.104   8.071  0.1477 -0.4449  0.3466
  163SOPE   H9X18332   4.725   1.011   8.067  0.2300 -0.6441  2.4733
  163SOPE   H9Y18333   4.886   1.062   8.058 -0.5702 -1.4641 -2.9336
  163SOPE  C31018334   4.763   1.182   7.937 -0.0705 -0.7930  0.6203
  163SOPE  H10X18335   4.833   1.267   7.921 -0.8515 -0.0140  1.2640
  163SOPE  H10Y18336   4.669   1.240   7.950  0.1574 -0.1448 -0.4813
  163SOPE  C31118337   4.749   1.096   7.813 -0.3719 -0.6045 -0.0801
  163SOPE  H11X18338   4.673   1.017   7.828  0.0302 -1.0612 -0.4372
  163SOPE  H11Y18339   4.847   1.044   7.812 -0.1592 -0.2087 -0.4669
  163SOPE  C31218340   4.718   1.181   7.688 -1.0694  0.7978 -0.4660
  163SOPE  H12X18341   4.777   1.275   7.698  1.6576 -0.9131  0.5163
  163SOPE  H12Y18342   4.609   1.200   7.690 -1.0324  1.4704 -2.2639
  163SOPE  C31318343   4.750   1.110   7.560 -0.5174 -0.1055  0.6026
  163SOPE  H13X18344   4.853   1.070   7.564 -0.0648  0.2651 -3.0978
  163SOPE  H13Y18345   4.750   1.187   7.480 -0.6826 -1.4740 -0.7700
  163SOPE  C31418346   4.658   0.998   7.499  0.3469 -0.1537 -0.5294
  163SOPE  H14X18347   4.561   1.046   7.473 -0.3446 -1.5824 -0.7109
  163SOPE  H14Y18348   4.647   0.911   7.568 -0.3410 -0.0897 -0.5437
  163SOPE  C31518349   4.713   0.940   7.370  0.5137 -0.3424 -0.1623
  163SOPE  H15X18350   4.810   0.894   7.397  0.3157 -2.3108 -2.4928
  163SOPE  H15Y18351   4.731   1.015   7.290  1.9708 -1.7196 -1.1747
  163SOPE  C31618352   4.624   0.825   7.321  0.2961  0.1335 -0.0601
  163SOPE  H16X18353   4.527   0.872   7.293  1.4094  0.3848 -3.9939
  163SOPE  H16Y18354   4.614   0.744   7.397  1.0915  1.4603  1.5089
  163SOPE  C31718355   4.653   0.769   7.183 -0.3194 -0.1138 -0.7838
  163SOPE  H17X18356   4.742   0.702   7.183  0.6976  1.1910 -0.5206
  163SOPE  H17Y18357   4.688   0.861   7.132  3.3900  0.4931  2.3683
  163SOPE  C31818358   4.543   0.692   7.104 -0.4971 -0.3410 -0.4564
  163SOPE  H18X18359   4.590   0.653   7.011  1.3376 -1.1129  0.7423
  163SOPE  H18Y18360   4.462   0.767   7.094  1.3721  2.1517  1.6120
  163SOPE  H18Z18361   4.502   0.605   7.159  1.4165 -1.1571 -0.2220
  164SOPE     N18362   5.901   4.709   9.767  0.1434  0.0340  0.3455
  164SOPE   HN118363   5.999   4.707   9.732  0.7610  0.6009  1.9514
  164SOPE   HN218364   5.840   4.699   9.683  1.0756 -0.6080 -0.2699
  164SOPE   HN318365   5.871   4.798   9.811 -2.4786 -0.7565  0.3433
  164SOPE   C1218366   5.874   4.583   9.848 -0.2108  0.1216  0.4408
  164SOPE  H12A18367   5.773   4.588   9.895 -1.4654 -2.0732 -1.7481
  164SOPE  H12B18368   5.954   4.580   9.925  1.3380  1.1778 -1.0784
  164SOPE   C1118369   5.885   4.466   9.752 -0.5325 -0.1869  0.5731
  164SOPE  H11A18370   5.872   4.372   9.809 -0.3920 -0.1840  0.6105
  164SOPE  H11B18371   5.988   4.470   9.710  0.0884 -0.7574  1.9596
  164SOPE     P18372   5.638   4.414   9.665  0.0177  0.1332 -0.3475
  164SOPE   O1318373   5.564   4.493   9.769 -0.1663 -0.4202  0.6970
  164SOPE   O1418374   5.652   4.275   9.708  0.2077  0.1284 -0.1102
  164SOPE   O1218375   5.785   4.482   9.650  0.2010  0.7240 -0.0780
  164SOPE   O1118376   5.558   4.428   9.524  0.0423  0.2674  0.3354
  164SOPE    C118377   5.594   4.352   9.410 -0.1839  0.3175  0.0580
  164SOPE    HA18378   5.506   4.305   9.362  0.3607 -2.2492  1.4279
  164SOPE    HB18379   5.659   4.264   9.422 -0.9537 -0.8938 -3.4314
  164SOPE    C218380   5.654   4.433   9.296  0.0464 -0.7577  0.6869
  164SOPE    HS18381   5.670   4.354   9.219 -1.3365 -1.2547  0.8842
  164SOPE   O2118382   5.781   4.486   9.335 -0.2233 -0.9494 -0.1424
  164SOPE   C2118383   5.889   4.405   9.343  0.0163  0.9177  0.2047
  164SOPE   O2218384   5.891   4.281   9.328  0.0582  0.2103 -0.2012
  164SOPE   C2218385   6.016   4.490   9.371 -0.3930 -0.4382  0.5668
  164SOPE   H2R18386   5.996   4.521   9.476  0.7519 -2.0566  1.3055
  164SOPE   H2S18387   6.015   4.580   9.307  0.9837  0.1782  1.3587
  164SOPE    C318388   5.557   4.549   9.245 -0.1034 -0.1598  0.9317
  164SOPE    HX18389   5.546   4.618   9.332  3.2492  0.2667  1.1533
  164SOPE    HY18390   5.464   4.502   9.208 -0.3781  0.4167  0.8799
  164SOPE   O3118391   5.615   4.618   9.129  0.7022  0.2699  0.0314
  164SOPE   C3118392   5.672   4.737   9.156  0.2538  0.5193 -0.0315
  164SOPE   O3218393   5.673   4.791   9.265  0.5215  0.2377 -0.2531
  164SOPE   C3218394   5.745   4.792   9.033  0.2543  0.2354  0.4768
  164SOPE   H2X18395   5.807   4.880   9.059 -0.6998  0.2371  3.0392
  164SOPE   H2Y18396   5.673   4.831   8.957 -0.8831  3.2725  2.9234
  164SOPE   C2318397   6.146   4.416   9.365  0.1720 -0.8336  0.0438
  164SOPE   H3R18398   6.143   4.316   9.412  0.3832 -1.2720 -0.8430
  164SOPE   H3S18399   6.221   4.483   9.411 -1.5428  1.1691  0.1158
  164SOPE   C2418400   6.203   4.416   9.223 -0.2276  0.5210  0.5446
  164SOPE   H4R18401   6.205   4.518   9.179 -0.9676 -0.3454 -1.6314
  164SOPE   H4S18402   6.311   4.390   9.226 -0.8027 -2.5183 -0.7860
  164SOPE   C2518403   6.144   4.309   9.124  0.3365  0.2367  0.3675
  164SOPE   H5R18404   6.136   4.213   9.180 -1.9364  0.4010  0.4380
  164SOPE   H5S18405   6.043   4.350   9.101  0.4797  2.3511  2.9735
  164SOPE   C2618406   6.233   4.286   9.002  0.7234  0.2070  0.0088
  164SOPE   H6R18407   6.255   4.385   8.958 -1.0648  0.7495  0.2504
  164SOPE   H6S18408   6.320   4.228   9.039 -1.6661 -2.4323  1.9615
  164SOPE   C2718409   6.174   4.192   8.896 -0.2215 -0.6511  0.1972
  164SOPE   H7R18410   6.156   4.090   8.935 -1.4128 -0.9601 -1.0827
  164SOPE   H7S18411   6.079   4.230   8.852  1.5460  2.9378 -0.8962
  164SOPE   C2818412   6.274   4.168   8.774  0.3090 -0.2529 -0.2981
  164SOPE   H8R18413   6.372   4.153   8.823 -0.0010  1.0000  0.7551
  164SOPE   H8S18414   6.252   4.073   8.720  0.1093 -0.3167 -0.1040
  164SOPE   C2918415   6.284   4.287   8.683  0.3119 -0.7080  0.1074
  164SOPE   H9118416   6.254   4.379   8.736 -1.3644 -1.3474  0.3162
  164SOPE  C21018417   6.351   4.300   8.575  0.0502  0.4231  0.3409
  164SOPE  H10118418   6.373   4.401   8.537  1.9511 -0.7911 -2.0625
  164SOPE  C21118419   6.416   4.184   8.497  0.1980  0.1429 -0.4652
  164SOPE  H11R18420   6.423   4.088   8.553  2.6927 -0.3856 -1.5369
  164SOPE  H11S18421   6.520   4.208   8.467 -0.0557 -0.7410 -2.1476
  164SOPE  C21218422   6.336   4.166   8.358 -0.4705  0.3602 -0.3488
  164SOPE  H12R18423   6.359   4.255   8.297  0.4263 -0.4671 -1.2643
  164SOPE  H12S18424   6.226   4.167   8.376 -0.2814  2.5795  1.0894
  164SOPE  C21318425   6.390   4.044   8.279  0.7757  0.1084  0.1453
  164SOPE  H13R18426   6.336   4.040   8.182  0.4680 -1.1262  0.3413
  164SOPE  H13S18427   6.351   3.954   8.332  1.9267  0.4196  1.5783
  164SOPE  C21418428   6.540   4.046   8.254  0.4588  0.3144  0.4456
  164SOPE  H14R18429   6.601   4.049   8.347  1.3527  0.2903 -0.1276
  164SOPE  H14S18430   6.568   4.144   8.209  1.2172  0.3903  1.0546
  164SOPE  C21518431   6.587   3.928   8.171  0.2231  0.0463 -1.1030
  164SOPE  H15R18432   6.538   3.838   8.215  0.9913  0.7508  1.3516
  164SOPE  H15S18433   6.695   3.910   8.187 -0.2603 -2.3023 -0.0464
  164SOPE  C21618434   6.572   3.948   8.019 -1.0116  0.2745  0.3009
  164SOPE  H16R18435   6.601   4.054   8.000 -1.1114  0.3099  0.3443
  164SOPE  H16S18436   6.464   3.941   7.996 -1.1272  0.7053  0.6727
  164SOPE  C21718437   6.642   3.842   7.929 -0.2596 -0.3983  0.6291
  164SOPE  H17R18438   6.591   3.746   7.951  1.0456 -1.6789 -1.5363
  164SOPE  H17S18439   6.743   3.842   7.976 -0.0552  1.3984  0.2721
  164SOPE  C21818440   6.645   3.886   7.778  0.0628  0.0405 -0.3972
  164SOPE  H18R18441   6.712   3.822   7.717 -0.0664 -0.9115  0.4266
  164SOPE  H18S18442   6.676   3.992   7.775  0.1670  0.0348  0.2424
  164SOPE  H18T18443   6.548   3.869   7.726 -0.3666 -3.4457  1.2055
  164SOPE   C3318444   5.832   4.682   8.957 -0.1213 -0.0083 -1.2610
  164SOPE   H3X18445   5.765   4.595   8.942  0.5276 -1.0883  1.4477
  164SOPE   H3Y18446   5.916   4.649   9.022 -0.4740  2.4555  0.5811
  164SOPE   C3418447   5.878   4.738   8.825 -0.7171  0.3188  0.7886
  164SOPE   H4X18448   5.949   4.822   8.841  1.0424 -0.6045 -1.4979
  164SOPE   H4Y18449   5.790   4.766   8.764 -0.5239  2.0005  1.2316
  164SOPE   C3518450   5.963   4.633   8.740  0.8851  0.3377  0.0120
  164SOPE   H5X18451   6.054   4.594   8.790  0.1741 -1.0725  0.2454
  164SOPE   H5Y18452   5.987   4.684   8.644 -2.3269  0.0031 -1.0664
  164SOPE   C3618453   5.880   4.512   8.693  0.0766 -0.0997  0.6272
  164SOPE   H6X18454   5.774   4.538   8.671  0.5667  0.4608 -1.3016
  164SOPE   H6Y18455   5.877   4.464   8.793 -2.5398 -1.3361  0.0518
  164SOPE   C3718456   5.930   4.418   8.589  0.4524 -0.0648 -0.7346
  164SOPE   H7X18457   6.027   4.367   8.606 -0.3810 -1.5543 -0.2971
  164SOPE   H7Y18458   5.943   4.473   8.493  0.8570 -0.9961 -1.2357
  164SOPE   C3818459   5.821   4.317   8.570  0.6852 -0.3254  0.7692
  164SOPE   H8X18460   5.739   4.384   8.535  2.1828  0.6332 -1.1248
  164SOPE   H8Y18461   5.787   4.275   8.667  1.1028  0.9096  1.4783
  164SOPE   C3918462   5.842   4.198   8.474  0.2239 -0.3668 -0.4588
  164SOPE   H9X18463   5.941   4.159   8.507  0.5918  2.0836  1.7152
  164SOPE   H9Y18464   5.863   4.243   8.375 -3.0432  0.2210 -0.9964
  164SOPE  C31018465   5.726   4.104   8.483  0.1970 -0.5362 -0.4740
  164SOPE  H10X18466   5.684   4.091   8.586 -0.7329  1.2943 -0.5871
  164SOPE  H10Y18467   5.768   4.008   8.445  0.6028 -0.7581  0.5010
  164SOPE  C31118468   5.608   4.141   8.394 -0.2817 -0.2217 -0.8696
  164SOPE  H11X18469   5.655   4.175   8.299 -3.5922  1.2766 -2.1302
  164SOPE  H11Y18470   5.560   4.228   8.444  0.3898  0.5231 -1.4986
  164SOPE  C31218471   5.509   4.026   8.353  0.5788  0.6558 -0.3140
  164SOPE  H12X18472   5.560   3.938   8.309 -0.9316 -1.4493  1.8081
  164SOPE  H12Y18473   5.443   4.064   8.273  1.5184  0.6975 -1.0798
  164SOPE  C31318474   5.428   3.976   8.478  0.2218 -0.5926  0.2626
  164SOPE  H13X18475   5.319   3.985   8.460  0.2228 -2.0928 -0.6150
  164SOPE  H13Y18476   5.451   4.037   8.569 -1.2936  0.2146  0.1365
  164SOPE  C31418477   5.458   3.827   8.513 -0.3642  0.0389  0.4058
  164SOPE  H14X18478   5.564   3.804   8.488 -0.5830  0.2338 -0.7531
  164SOPE  H14Y18479   5.398   3.763   8.444  1.5114 -0.9963 -0.3595
  164SOPE  C31518480   5.437   3.798   8.662 -0.5100  0.0660 -0.9290
  164SOPE  H15X18481   5.331   3.805   8.692  0.1574 -0.5843  1.9123
  164SOPE  H15Y18482   5.492   3.878   8.717  1.4749 -2.7878  1.6045
  164SOPE  C31618483   5.498   3.668   8.707  0.4704  0.5010 -0.2896
  164SOPE  H16X18484   5.602   3.662   8.670  0.5336  2.5893 -0.5551
  164SOPE  H16Y18485   5.440   3.582   8.665  0.7759 -0.0633  0.4263
  164SOPE  C31718486   5.496   3.645   8.863 -0.0795  0.0357 -0.0388
  164SOPE  H17X18487   5.570   3.713   8.911  0.2813 -1.6744  2.0025
  164SOPE  H17Y18488   5.535   3.542   8.881  1.0183  0.5758  0.8256
  164SOPE  C31818489   5.367   3.653   8.931  0.0884 -0.0907  0.2414
  164SOPE  H18X18490   5.354   3.761   8.955  0.7849 -0.1194  0.7726
  164SOPE  H18Y18491   5.369   3.593   9.025  0.9811 -0.3031  0.0917
  164SOPE  H18Z18492   5.285   3.609   8.870 -0.3273 -0.0554  0.7617
  165SOPE     N18493   4.680   5.795  10.050 -0.3634 -0.3033 -0.0316
  165SOPE   HN118494   4.757   5.773   9.984 -0.7068 -0.3226 -0.4278
  165SOPE   HN218495   4.669   5.698  10.088  0.6009 -1.0949 -1.6954
  165SOPE   HN318496   4.597   5.836  10.003 -0.0757  1.0869  0.6226
  165SOPE   C1218497   4.738   5.885  10.150  0.0263 -0.0320 -1.2574
  165SOPE  H12A18498   4.812   5.837  10.217 -0.0680  0.2334 -0.9618
  165SOPE  H12B18499   4.658   5.929  10.214  0.1680 -0.2434 -0.9291
  165SOPE   C1118500   4.811   5.996  10.076 -0.3212 -0.2744 -0.3439
  165SOPE  H11A18501   4.853   6.063  10.154  0.6821  2.0041 -2.6948
  165SOPE  H11B18502   4.738   6.041  10.006  0.5607  2.0721  0.1470
  165SOPE     P18503   5.012   6.051   9.925  0.2678 -0.0223  0.4271
  165SOPE   O1318504   5.147   5.996   9.925  0.4095 -0.0573  0.3177
  165SOPE   O1418505   5.005   6.176  10.005 -0.2578 -0.6641  0.1077
  165SOPE   O1218506   4.917   5.947  10.002  0.0253  0.3245 -0.5226
  165SOPE   O1118507   4.961   6.059   9.783 -0.3116  0.3816  0.0807
  165SOPE    C118508   4.856   5.976   9.736 -0.4596  0.5025 -0.8080
  165SOPE    HA18509   4.758   6.017   9.768  0.7088  2.6140  0.2012
  165SOPE    HB18510   4.867   5.874   9.780  2.5011  1.2194  0.3694
  165SOPE    C218511   4.866   5.968   9.584  0.7233 -0.4407 -0.2605
  165SOPE    HS18512   4.778   5.902   9.565  0.0701  0.6904 -1.3737
  165SOPE   O2118513   4.993   5.920   9.533  0.5727  0.1244  0.4594
  165SOPE   C2118514   5.008   5.790   9.548 -0.7038 -0.9379  0.1290
  165SOPE   O2218515   4.936   5.718   9.611 -0.1816  1.1606 -0.1434
  165SOPE   C2218516   5.136   5.747   9.472  0.0130 -0.7250 -0.5554
  165SOPE   H2R18517   5.154   5.638   9.480  1.0359 -0.4970  0.8187
  165SOPE   H2S18518   5.224   5.801   9.515 -0.5725  0.2171 -0.5146
  165SOPE    C318519   4.848   6.114   9.527 -0.3276  0.1027  0.5354
  165SOPE    HX18520   4.942   6.171   9.547  0.3079 -0.2610 -1.2755
  165SOPE    HY18521   4.772   6.173   9.583  0.1232  1.2155 -0.0078
  165SOPE   O3118522   4.826   6.117   9.383 -0.0426 -0.9437  1.0944
  165SOPE   C3118523   4.713   6.065   9.334 -0.1956  0.7271 -0.5780
  165SOPE   O3218524   4.623   6.024   9.405 -0.2223 -0.0428 -0.6123
  165SOPE   C3218525   4.717   6.069   9.185 -0.0412  0.1504 -0.6064
  165SOPE   H2X18526   4.815   6.027   9.153  0.4638  0.2929  0.6985
  165SOPE   H2Y18527   4.709   6.177   9.160  0.9514 -0.1436 -2.3855
  165SOPE   C2318528   5.137   5.778   9.321  0.0674 -1.1635  0.0372
  165SOPE   H3R18529   5.232   5.735   9.282  0.2465  0.0491 -0.9426
  165SOPE   H3S18530   5.142   5.889   9.317  2.2645 -1.2215 -0.6237
  165SOPE   C2418531   5.015   5.728   9.248 -0.1704 -0.5359  0.1819
  165SOPE   H4R18532   5.004   5.618   9.253 -1.8956 -0.3463  3.3652
  165SOPE   H4S18533   4.924   5.776   9.292 -0.4223 -0.0610 -0.8252
  165SOPE   C2518534   5.028   5.783   9.103  0.2860 -0.6495 -0.1827
  165SOPE   H5R18535   5.006   5.892   9.103 -0.6131 -0.8257  0.2786
  165SOPE   H5S18536   5.128   5.766   9.058  1.3176  1.7392  1.0160
  165SOPE   C2618537   4.912   5.727   9.021 -0.7025 -0.0483 -0.7134
  165SOPE   H6R18538   4.947   5.627   8.988  2.6619  1.1924 -1.2736
  165SOPE   H6S18539   4.817   5.717   9.077 -2.8754  0.8081 -3.9215
  165SOPE   C2718540   4.884   5.816   8.895 -0.1446 -0.4755  0.1961
  165SOPE   H7R18541   4.795   5.777   8.841 -1.2601  2.9091 -0.6233
  165SOPE   H7S18542   4.877   5.920   8.932  0.8411 -0.3870  0.1612
  165SOPE   C2818543   5.000   5.823   8.801 -0.2661 -0.0587  0.6315
  165SOPE   H8R18544   4.971   5.906   8.733 -1.6290  2.0087  3.5725
  165SOPE   H8S18545   5.085   5.881   8.842  0.5212 -0.9999  0.3834
  165SOPE   C2918546   5.051   5.693   8.734  1.1962  0.2121  0.9443
  165SOPE   H9118547   5.106   5.623   8.799  1.0967 -0.0339  0.7636
  165SOPE  C21018548   5.010   5.661   8.608  0.2148 -0.1014  0.1445
  165SOPE  H10118549   5.041   5.565   8.565 -0.2380  0.2181 -0.9192
  165SOPE  C21118550   4.937   5.758   8.521 -0.1246  0.4031 -0.2115
  165SOPE  H11R18551   4.998   5.849   8.500 -0.0052  0.3489 -0.1098
  165SOPE  H11S18552   4.849   5.800   8.573 -0.4805 -1.2193  0.5542
  165SOPE  C21218553   4.890   5.697   8.395  0.3870 -0.6704 -0.0170
  165SOPE  H12R18554   4.834   5.607   8.426 -1.8384  0.8847  0.7394
  165SOPE  H12S18555   4.976   5.676   8.328  0.7459  1.8301 -0.4594
  165SOPE  C21318556   4.817   5.797   8.305 -0.3088  0.5480  0.2229
  165SOPE  H13R18557   4.872   5.891   8.281 -2.3141  1.5221 -0.8255
  165SOPE  H13S18558   4.718   5.822   8.348 -0.5008  0.4682 -0.1698
  165SOPE  C21418559   4.782   5.750   8.163 -0.3934  0.4035  0.1447
  165SOPE  H14R18560   4.725   5.656   8.183 -0.5226  0.1222 -1.3759
  165SOPE  H14S18561   4.868   5.724   8.098  0.9576  0.4427  1.8545
  165SOPE  C21518562   4.695   5.854   8.086  0.6924 -0.0390  0.1084
  165SOPE  H15R18563   4.753   5.949   8.090  2.5774 -1.0027 -1.8499
  165SOPE  H15S18564   4.600   5.870   8.140  1.1101  0.4419  0.7159
  165SOPE  C21618565   4.686   5.831   7.937  0.5952 -0.4961  0.8434
  165SOPE  H16R18566   4.625   5.742   7.911 -2.5504  1.6445  0.4447
  165SOPE  H16S18567   4.788   5.816   7.894 -0.1870  0.4193 -1.4559
  165SOPE  C21718568   4.604   5.929   7.850  0.4918  0.3624  0.0025
  165SOPE  H17R18569   4.503   5.938   7.896  0.3759 -0.3171 -0.1198
  165SOPE  H17S18570   4.589   5.881   7.751  3.1498  1.9825 -1.3049
  165SOPE  C21818571   4.681   6.054   7.832 -0.4498  0.5286 -0.5268
  165SOPE  H18R18572   4.675   6.121   7.920 -0.1530 -0.0723 -0.0437
  165SOPE  H18S18573   4.635   6.118   7.753  1.2775  0.6295 -1.5055
  165SOPE  H18T18574   4.792   6.048   7.820 -0.4704 -1.5681 -0.0439
  165SOPE   C3318575   4.594   6.006   9.120 -0.0124 -0.3940  0.7799
  165SOPE   H3X18576   4.509   6.044   9.180  1.8076  2.8470  1.5877
  165SOPE   H3Y18577   4.599   5.895   9.124  2.9158 -0.4364 -0.9814
  165SOPE   C3418578   4.574   6.053   8.977  0.6768  0.0932  0.3580
  165SOPE   H4X18579   4.669   6.055   8.921  1.7068  2.1294  2.0031
  165SOPE   H4Y18580   4.547   6.161   8.989  0.9225  0.2693 -0.5826
  165SOPE   C3518581   4.471   5.975   8.887 -0.6137 -1.1386 -0.9355
  165SOPE   H5X18582   4.366   5.966   8.923 -1.1466 -1.5583 -2.5405
  165SOPE   H5Y18583   4.512   5.872   8.893  1.1771 -0.6940 -3.8006
  165SOPE   C3618584   4.476   6.030   8.745  0.3804  0.5193  1.0866
  165SOPE   H6X18585   4.576   6.032   8.697 -0.9945  1.3703 -2.0307
  165SOPE   H6Y18586   4.432   6.132   8.749 -2.3848 -0.5577  0.4995
  165SOPE   C3718587   4.389   5.948   8.650 -0.3001 -0.2254 -0.1644
  165SOPE   H7X18588   4.283   5.959   8.680  0.6755  0.2219  3.6311
  165SOPE   H7Y18589   4.406   5.841   8.676 -0.5345 -0.6486 -1.6284
  165SOPE   C3818590   4.414   5.970   8.499 -0.0369  0.0667 -0.5392
  165SOPE   H8X18591   4.343   5.901   8.447  2.3517 -2.7959 -0.3227
  165SOPE   H8Y18592   4.516   5.941   8.466 -0.0969  1.4362 -2.0465
  165SOPE   C3918593   4.389   6.116   8.467  0.7302  0.0249 -0.0528
  165SOPE   H9X18594   4.449   6.170   8.542 -0.3541  0.7736  0.2909
  165SOPE   H9Y18595   4.283   6.139   8.490  1.0086  0.2401  1.0617
  165SOPE  C31018596   4.399   6.144   8.316  0.2348 -0.3108  0.5973
  165SOPE  H10X18597   4.322   6.079   8.268  0.2198 -0.2414  0.5277
  165SOPE  H10Y18598   4.498   6.109   8.282  0.3335 -0.7502  1.3149
  165SOPE  C31118599   4.369   6.288   8.273  0.0972  0.2353 -0.3890
  165SOPE  H11X18600   4.411   6.359   8.348 -0.5078 -0.4604  0.6406
  165SOPE  H11Y18601   4.263   6.315   8.288  0.0964 -0.5430  1.2338
  165SOPE  C31218602   4.410   6.335   8.134  0.3681 -0.1731  0.5424
  165SOPE  H12X18603   4.374   6.277   8.046 -0.2999  1.3574 -0.2258
  165SOPE  H12Y18604   4.521   6.331   8.127  0.3393 -0.1501  0.0476
  165SOPE  C31318605   4.380   6.479   8.091  0.0699 -0.0930  0.8292
  165SOPE  H13X18606   4.424   6.559   8.153 -1.7107  1.1007  0.6544
  165SOPE  H13Y18607   4.270   6.484   8.107 -0.4705 -1.7069 -1.7523
  165SOPE  C31418608   4.415   6.511   7.945  0.9013 -0.6141  0.1395
  165SOPE  H14X18609   4.382   6.615   7.925 -0.7864 -1.3901 -1.4152
  165SOPE  H14Y18610   4.346   6.450   7.883 -0.4035  1.7577 -0.8659
  165SOPE  C31518611   4.555   6.483   7.889 -0.0274 -0.2740 -0.4689
  165SOPE  H15X18612   4.579   6.374   7.895  0.0782 -0.1766  2.9209
  165SOPE  H15Y18613   4.624   6.547   7.948 -1.0792  2.4609 -2.0175
  165SOPE  C31618614   4.561   6.525   7.743 -0.9170  0.6080  0.4482
  165SOPE  H16X18615   4.560   6.636   7.734  3.3321  0.6518 -2.2722
  165SOPE  H16Y18616   4.481   6.470   7.690  0.8980  1.0711 -3.0633
  165SOPE  C31718617   4.690   6.473   7.672  0.0523  0.2218 -0.2723
  165SOPE  H17X18618   4.727   6.382   7.722 -1.6491  0.4969  1.6070
  165SOPE  H17Y18619   4.769   6.550   7.687  0.9534 -0.6012 -0.6837
  165SOPE  C31818620   4.671   6.440   7.526  0.5376 -0.6603  0.3101
  165SOPE  H18X18621   4.765   6.407   7.477 -0.1646 -1.9753 -0.2169
  165SOPE  H18Y18622   4.646   6.537   7.479  4.4012 -0.2391 -1.2427
  165SOPE  H18Z18623   4.596   6.361   7.507 -2.5419  1.8684  1.1680
  166SOPE     N18624   6.760   5.918   9.839 -0.0475 -0.8383  0.6891
  166SOPE   HN118625   6.821   5.983   9.786 -1.1266  0.4936  1.0394
  166SOPE   HN218626   6.728   5.840   9.777 -0.7323  0.8011 -1.1164
  166SOPE   HN318627   6.671   5.969   9.857  0.6313  1.0654 -0.9987
  166SOPE   C1218628   6.829   5.861   9.961 -0.4643 -0.6321 -0.1553
  166SOPE  H12A18629   6.901   5.786   9.921  0.7474  1.2698 -1.7166
  166SOPE  H12B18630   6.740   5.817  10.010  0.8149 -2.7171  0.4044
  166SOPE   C1118631   6.893   5.974  10.040 -0.5249 -0.7512 -0.5924
  166SOPE  H11A18632   6.939   5.928  10.130 -1.4968 -0.3532  0.1255
  166SOPE  H11B18633   6.823   6.039  10.095  1.9245  0.3386  1.4478
  166SOPE     P18634   7.072   6.151  10.030 -0.0821 -0.3836 -0.1778
  166SOPE   O1318635   7.099   6.105  10.168 -1.2269  0.2498  0.7622
  166SOPE   O1418636   7.008   6.286  10.015  0.7022 -0.0700 -0.1509
  166SOPE   O1218637   6.982   6.048   9.954  0.3122  0.0352  0.0709
  166SOPE   O1118638   7.198   6.148   9.938 -0.5668  0.2820 -0.1163
  166SOPE    C118639   7.218   6.223   9.819 -0.0016  0.8140  0.5266
  166SOPE    HA18640   7.320   6.195   9.784 -1.0731  0.0333 -2.2111
  166SOPE    HB18641   7.206   6.333   9.831  1.1000  1.2111 -1.6271
  166SOPE    C218642   7.119   6.179   9.703  0.2294  0.1883 -0.0489
  166SOPE    HS18643   7.015   6.190   9.740  0.3086 -1.7516  0.8926
  166SOPE   O2118644   7.162   6.044   9.655  0.4230 -0.3156 -0.1275
  166SOPE   C2118645   7.060   5.964   9.625  0.4320 -0.2100 -0.0109
  166SOPE   O2218646   6.942   5.988   9.652 -0.5630  0.3417 -0.2158
  166SOPE   C2218647   7.122   5.847   9.556  0.7009  0.1826  0.2037
  166SOPE   H2R18648   7.119   5.761   9.627 -0.5555 -0.4092 -0.5310
  166SOPE   H2S18649   7.223   5.867   9.514  0.7201  1.3489  0.7853
  166SOPE    C318650   7.132   6.281   9.587  0.4086 -0.1885  0.4333
  166SOPE    HX18651   7.238   6.290   9.555  0.2530 -1.8002 -0.6273
  166SOPE    HY18652   7.118   6.378   9.640  1.7948  0.0506  0.4187
  166SOPE   O3118653   7.040   6.260   9.475 -0.3704 -0.1770  0.5094
  166SOPE   C3118654   7.044   6.362   9.391 -0.3766 -0.5250 -0.1808
  166SOPE   O3218655   7.120   6.458   9.394  0.2344  0.4142 -0.1317
  166SOPE   C3218656   6.925   6.346   9.295 -0.4069  0.2120 -0.0536
  166SOPE   H2X18657   6.896   6.450   9.270  0.4485 -0.1774 -3.0726
  166SOPE   H2Y18658   6.844   6.290   9.346  0.7568 -1.1662  0.3489
  166SOPE   C2318659   7.024   5.794   9.443  0.6068 -0.8559  0.0232
  166SOPE   H3R18660   6.935   5.736   9.477  0.1654  0.4905  1.3047
  166SOPE   H3S18661   7.086   5.718   9.392 -0.8559 -1.3127 -1.1591
  166SOPE   C2418662   7.012   5.901   9.337  0.9366  0.0696  0.9999
  166SOPE   H4R18663   6.937   5.979   9.361  1.5779  1.0044  0.0451
  166SOPE   H4S18664   7.106   5.957   9.319  1.2230 -0.3635  1.1467
  166SOPE   C2518665   6.954   5.839   9.208  0.0836  0.1104  0.7622
  166SOPE   H5R18666   7.029   5.766   9.170 -2.3768 -1.7930 -0.7950
  166SOPE   H5S18667   6.863   5.782   9.236 -0.0908  0.0955  0.1787
  166SOPE   C2618668   6.910   5.937   9.093  0.2383 -0.6060 -0.3513
  166SOPE   H6R18669   6.825   6.004   9.119  2.5654  1.0849  3.8702
  166SOPE   H6S18670   6.992   6.010   9.075 -2.1807  2.1856 -0.7891
  166SOPE   C2718671   6.877   5.865   8.961  0.1977  0.5322 -0.1288
  166SOPE   H7R18672   6.968   5.815   8.921  0.0982 -1.9757  2.4080
  166SOPE   H7S18673   6.805   5.786   8.991  0.1300  0.1041 -1.3890
  166SOPE   C2818674   6.799   5.954   8.864 -1.0116  0.1423 -0.5032
  166SOPE   H8R18675   6.694   5.971   8.897 -0.2558  0.4255  1.9782
  166SOPE   H8S18676   6.849   6.053   8.860  2.2914 -1.3621  0.6154
  166SOPE   C2918677   6.815   5.890   8.724 -0.0922  0.6720 -0.7898
  166SOPE   H9118678   6.750   5.801   8.718 -1.2368  1.4049  0.3078
  166SOPE  C21018679   6.859   5.942   8.607 -0.9480  0.1655 -0.0191
  166SOPE  H10118680   6.850   5.870   8.524  0.8732  0.2179 -0.2908
  166SOPE  C21118681   6.914   6.086   8.571  0.3982 -0.0112 -0.2119
  166SOPE  H11R18682   6.999   6.109   8.639 -0.8847  2.0807  0.7867
  166SOPE  H11S18683   6.837   6.161   8.598 -1.2002 -1.3918 -0.7334
  166SOPE  C21218684   6.952   6.104   8.426 -0.0517 -0.4946 -0.5622
  166SOPE  H12R18685   7.033   6.037   8.393 -0.0042 -1.0801  0.6948
  166SOPE  H12S18686   6.982   6.211   8.423 -1.9158  0.1492  0.9757
  166SOPE  C21318687   6.830   6.094   8.330  0.6798  0.4612  0.0203
  166SOPE  H13R18688   6.756   6.156   8.384  0.0014 -1.4465  1.4079
  166SOPE  H13S18689   6.790   5.990   8.333 -0.2038  0.7853 -0.1882
  166SOPE  C21418690   6.865   6.128   8.185 -0.3534 -0.4218 -0.2552
  166SOPE  H14R18691   6.845   6.234   8.160  0.3279 -0.5598 -1.4533
  166SOPE  H14S18692   6.790   6.070   8.128 -0.0738 -0.8014 -0.2413
  166SOPE  C21518693   7.005   6.099   8.129  0.3433  0.4333  1.2184
  166SOPE  H15R18694   7.044   6.004   8.172  1.6499  1.1203  1.5874
  166SOPE  H15S18695   7.079   6.175   8.160  1.3213 -0.8510  2.1749
  166SOPE  C21618696   7.000   6.082   7.972  0.1994 -0.5318 -0.0098
  166SOPE  H16R18697   6.965   6.179   7.931  1.6792  0.1134  0.1710
  166SOPE  H16S18698   6.913   6.016   7.953  1.5353 -2.0298 -1.2606
  166SOPE  C21718699   7.124   6.024   7.900 -0.1259  0.1588 -0.1971
  166SOPE  H17R18700   7.108   6.036   7.791  0.3342  0.1228 -0.2680
  166SOPE  H17S18701   7.144   5.916   7.914  1.3609  0.3027 -0.9657
  166SOPE  C21818702   7.256   6.097   7.929 -0.1290 -0.7467  0.2163
  166SOPE  H18R18703   7.267   6.199   7.888 -0.7592 -0.4361  0.7993
  166SOPE  H18S18704   7.338   6.037   7.886 -0.1628 -0.6441  0.0077
  166SOPE  H18T18705   7.266   6.108   8.039 -1.1174  1.5705  0.1364
  166SOPE   C3318706   6.960   6.280   9.161  0.2169  0.1006 -0.4135
  166SOPE   H3X18707   6.868   6.273   9.099  0.2325  2.3598 -0.7811
  166SOPE   H3Y18708   6.990   6.176   9.186 -0.0326  0.3100  0.8014
  166SOPE   C3418709   7.066   6.353   9.084 -0.1921  0.3504 -0.0414
  166SOPE   H4X18710   7.154   6.375   9.147  1.9515 -1.1570 -2.2908
  166SOPE   H4Y18711   7.037   6.455   9.051  1.7992  1.0732  0.3459
  166SOPE   C3518712   7.106   6.276   8.954 -0.3200 -0.3819  0.1330
  166SOPE   H5X18713   7.023   6.218   8.908 -0.6766 -0.2453  0.5938
  166SOPE   H5Y18714   7.183   6.209   8.997 -1.7837 -1.0496  1.8695
  166SOPE   C3618715   7.168   6.378   8.852  0.1117  0.5827  0.4411
  166SOPE   H6X18716   7.234   6.450   8.905  0.3080  0.5825  0.1995
  166SOPE   H6Y18717   7.086   6.437   8.805 -0.7446 -1.8057 -1.2646
  166SOPE   C3718718   7.264   6.311   8.755  0.2465  0.4374  0.2470
  166SOPE   H7X18719   7.209   6.258   8.675 -1.1822 -1.3709  2.2941
  166SOPE   H7Y18720   7.330   6.247   8.818  0.4413  0.5555  0.1620
  166SOPE   C3818721   7.362   6.413   8.685  0.0286  0.2523 -0.3188
  166SOPE   H8X18722   7.428   6.343   8.630 -0.9132  1.9366 -3.9165
  166SOPE   H8Y18723   7.409   6.471   8.768 -1.8429 -1.2222  1.9053
  166SOPE   C3918724   7.285   6.503   8.584  0.2175  0.2616 -1.0777
  166SOPE   H9X18725   7.203   6.549   8.644  1.6290  0.9231  0.4013
  166SOPE   H9Y18726   7.250   6.438   8.501  0.9907 -1.1649 -0.3443
  166SOPE  C31018727   7.363   6.616   8.527  0.1212  0.5664 -0.3925
  166SOPE  H10X18728   7.406   6.660   8.620 -0.8320 -0.3304  0.5116
  166SOPE  H10Y18729   7.293   6.687   8.478 -0.3350 -0.7376 -1.7221
  166SOPE  C31118730   7.478   6.574   8.430  0.2555 -0.4582  0.1149
  166SOPE  H11X18731   7.436   6.538   8.334  0.7871 -1.2040  0.1571
  166SOPE  H11Y18732   7.533   6.488   8.474  1.2048  0.4379  0.7174
  166SOPE  C31218733   7.570   6.696   8.401  0.0215 -0.1670 -0.6507
  166SOPE  H12X18734   7.631   6.699   8.494 -0.2488 -2.5505 -0.3579
  166SOPE  H12Y18735   7.498   6.778   8.381 -0.1780 -0.6817 -2.1718
  166SOPE  C31318736   7.667   6.691   8.283 -0.0189 -0.1745 -0.9277
  166SOPE  H13X18737   7.621   6.710   8.183  0.3731 -2.0867 -1.5110
  166SOPE  H13Y18738   7.707   6.587   8.284  0.1600 -0.1819 -3.1483
  166SOPE  C31418739   7.782   6.790   8.307 -0.8070  0.6818 -0.2190
  166SOPE  H14X18740   7.857   6.766   8.229  0.5616 -1.0375  1.5221
  166SOPE  H14Y18741   7.837   6.758   8.399 -0.0382 -0.6327 -1.1014
  166SOPE  C31518742   7.749   6.939   8.298  0.0752 -0.5301  0.7204
  166SOPE  H15X18743   7.840   7.002   8.313 -0.4358  0.3545  0.1926
  166SOPE  H15Y18744   7.676   6.953   8.380  0.3727 -2.1390  1.3002
  166SOPE  C31618745   7.675   6.973   8.163 -0.4972 -0.0100 -0.1854
  166SOPE  H16X18746   7.589   6.903   8.155  2.1596 -3.2714 -2.5616
  166SOPE  H16Y18747   7.735   6.953   8.072  0.8349  3.1761 -0.1445
  166SOPE  C31718748   7.616   7.116   8.153  0.2711  0.8029 -0.5177
  166SOPE  H17X18749   7.689   7.197   8.134  0.6395  0.1988 -1.8595
  166SOPE  H17Y18750   7.576   7.136   8.254 -1.6927  1.1368 -1.3115
  166SOPE  C31818751   7.487   7.126   8.063 -0.5259  0.2406  0.6218
  166SOPE  H18X18752   7.450   7.227   8.092 -0.7489  0.2374  0.3566
  166SOPE  H18Y18753   7.413   7.045   8.083  0.9576 -1.6328 -1.0637
  166SOPE  H18Z18754   7.521   7.132   7.958  0.2661  2.2170  0.9501
  167SOPE     N18755   4.995   3.234   5.563 -0.7530 -0.2711 -0.4684
  167SOPE   HN118756   4.947   3.145   5.542 -3.9739  0.2058  3.5844
  167SOPE   HN218757   5.092   3.220   5.599 -0.0882 -0.2364 -2.1449
  167SOPE   HN318758   4.934   3.264   5.642 -1.3171 -2.0841 -0.1631
  167SOPE   C1218759   5.001   3.347   5.459  0.1240 -0.6114  0.4380
  167SOPE  H12A18760   4.898   3.373   5.426  0.2322  0.0988  0.6430
  167SOPE  H12B18761   5.066   3.315   5.375  0.7215  2.0158 -0.1897
  167SOPE   C1118762   5.068   3.477   5.509  0.3497  0.4606 -0.3180
  167SOPE  H11A18763   5.101   3.536   5.421 -0.2061  1.9116  0.4144
  167SOPE  H11B18764   5.157   3.447   5.569 -0.1321 -0.7227 -0.1755
  167SOPE     P18765   5.003   3.688   5.637 -0.3102 -0.2661 -0.5228
  167SOPE   O1318766   4.910   3.777   5.566 -0.2912 -0.9640 -0.9529
  167SOPE   O1418767   5.148   3.720   5.616 -0.3349  0.5150 -0.1902
  167SOPE   O1218768   4.968   3.544   5.587  0.0138 -0.0799 -0.0658
  167SOPE   O1118769   4.967   3.693   5.786  0.1468  0.1570 -0.0995
  167SOPE    C118770   5.001   3.580   5.872  1.2047  0.1054 -1.0163
  167SOPE    HA18771   5.093   3.528   5.838  1.9817  1.5882 -1.3102
  167SOPE    HB18772   4.924   3.501   5.877  1.6960 -0.3295 -0.0059
  167SOPE    C218773   5.033   3.629   6.021 -0.2792 -0.3762 -0.5135
  167SOPE    HS18774   5.096   3.552   6.071  0.9625  0.4550 -0.7367
  167SOPE   O2118775   4.912   3.649   6.085  0.1073  0.6239  0.2152
  167SOPE   C2118776   4.916   3.631   6.214 -0.1000 -0.1869 -0.0583
  167SOPE   O2218777   5.011   3.591   6.281  0.0247 -0.2134  0.2381
  167SOPE   C2218778   4.789   3.699   6.277 -0.0945  0.4301  0.3866
  167SOPE   H2R18779   4.705   3.656   6.218  1.2733  0.3819 -1.6354
  167SOPE   H2S18780   4.793   3.808   6.260 -1.6037  0.3243 -0.8963
  167SOPE    C318781   5.123   3.765   6.023 -0.6432  0.1729  0.4674
  167SOPE    HX18782   5.074   3.839   5.956  2.4461  1.5012 -0.5029
  167SOPE    HY18783   5.209   3.727   5.964 -1.9571 -4.0557  0.9128
  167SOPE   O3118784   5.136   3.815   6.151 -0.2713 -0.7134 -0.2264
  167SOPE   C3118785   5.245   3.776   6.226  0.3846  0.0992 -0.0770
  167SOPE   O3218786   5.344   3.723   6.187 -0.4773  0.1143  0.4235
  167SOPE   C3218787   5.211   3.803   6.374  0.0663  0.6312 -0.2799
  167SOPE   H2X18788   5.170   3.714   6.425  0.4811  1.1027  0.9007
  167SOPE   H2Y18789   5.123   3.870   6.377 -0.2719  0.1697  2.9638
  167SOPE   C2318790   4.772   3.664   6.424  0.0077 -0.2166  0.5560
  167SOPE   H3R18791   4.811   3.562   6.444  1.5474  0.0769 -0.7061
  167SOPE   H3S18792   4.664   3.666   6.448  0.2828 -1.1921  2.0366
  167SOPE   C2418793   4.837   3.765   6.521 -0.7004 -0.4095  0.4387
  167SOPE   H4R18794   4.945   3.769   6.496 -0.8671 -0.0844 -0.2608
  167SOPE   H4S18795   4.794   3.867   6.509  0.4136  0.0181 -0.0293
  167SOPE   C2518796   4.818   3.728   6.673 -0.4139 -0.2562 -0.5206
  167SOPE   H5R18797   4.838   3.622   6.699  0.2654 -0.0133 -0.0062
  167SOPE   H5S18798   4.905   3.780   6.720 -0.1174  0.1832 -1.5392
  167SOPE   C2618799   4.682   3.773   6.730  0.3579 -0.1172 -0.6460
  167SOPE   H6R18800   4.682   3.884   6.716  3.4789  0.1931  0.8631
  167SOPE   H6S18801   4.599   3.727   6.672 -0.5611  2.2352 -1.3418
  167SOPE   C2718802   4.662   3.748   6.888 -0.4742  0.3881 -0.2362
  167SOPE   H7R18803   4.749   3.786   6.945 -0.8157 -0.3879  0.8425
  167SOPE   H7S18804   4.579   3.812   6.923 -0.4822  0.1830  0.1315
  167SOPE   C2818805   4.640   3.600   6.921  0.4409  0.6616 -0.4788
  167SOPE   H8R18806   4.537   3.575   6.887  0.6788 -0.9930 -0.0598
  167SOPE   H8S18807   4.713   3.541   6.861 -1.8946 -0.3244 -2.5340
  167SOPE   C2918808   4.656   3.574   7.068 -0.6306  0.4568 -0.0562
  167SOPE   H9118809   4.757   3.607   7.097 -0.1642  0.2402 -1.3772
  167SOPE  C21018810   4.567   3.522   7.159  0.2210  0.0859 -0.2743
  167SOPE  H10118811   4.601   3.506   7.262  1.3930 -0.3858 -0.7199
  167SOPE  C21118812   4.429   3.473   7.138 -0.8132  0.2478  0.4404
  167SOPE  H11R18813   4.428   3.424   7.038  1.2610  0.8142  0.0949
  167SOPE  H11S18814   4.354   3.554   7.132 -0.2742  0.7289  0.1492
  167SOPE  C21218815   4.388   3.383   7.255  0.0145 -0.3412 -0.0292
  167SOPE  H12R18816   4.289   3.341   7.226 -0.3493 -0.6112  1.5619
  167SOPE  H12S18817   4.369   3.441   7.347 -0.1278  1.6437 -1.2558
  167SOPE  C21318818   4.475   3.252   7.270  0.5877 -0.2973 -1.1927
  167SOPE  H13R18819   4.581   3.276   7.292  0.3929 -1.5807  1.4551
  167SOPE  H13S18820   4.469   3.191   7.178 -0.8157  0.9284 -1.9703
  167SOPE  C21418821   4.415   3.171   7.392  0.1662 -0.7779 -0.6825
  167SOPE  H14R18822   4.308   3.174   7.363  0.7516  0.0279 -3.0186
  167SOPE  H14S18823   4.428   3.223   7.489 -0.6441  0.3439 -1.1551
  167SOPE  C21518824   4.460   3.025   7.397  0.2061  0.2584  0.2581
  167SOPE  H15R18825   4.570   3.025   7.409  0.0420 -1.0513  2.1356
  167SOPE  H15S18826   4.440   2.967   7.303 -0.6571  0.4862  0.2859
  167SOPE  C21618827   4.392   2.950   7.512  0.3930  0.2003 -0.3224
  167SOPE  H16R18828   4.434   2.991   7.606  0.1727  1.5608 -0.7873
  167SOPE  H16S18829   4.428   2.846   7.501  0.5207  0.2437 -0.3140
  167SOPE  C21718830   4.240   2.970   7.519  0.2327  0.6716  0.1029
  167SOPE  H17R18831   4.203   2.935   7.420 -0.4691 -1.3388  1.0279
  167SOPE  H17S18832   4.210   3.076   7.530  0.7764  0.9942 -1.3728
  167SOPE  C21818833   4.168   2.893   7.623 -0.2462  0.5071 -0.8606
  167SOPE  H18R18834   4.220   2.796   7.639  0.2509  1.0544  1.1336
  167SOPE  H18S18835   4.060   2.874   7.602 -0.2108 -0.2791 -0.3917
  167SOPE  H18T18836   4.177   2.944   7.721 -0.4598  0.2757 -0.7199
  167SOPE   C3318837   5.326   3.853   6.456 -0.2430 -1.2622 -0.2846
  167SOPE   H3X18838   5.397   3.914   6.396 -1.8125  1.1611  0.1742
  167SOPE   H3Y18839   5.383   3.763   6.486 -1.7503 -2.1945 -0.0849
  167SOPE   C3418840   5.305   3.929   6.591  0.3689  0.0572 -0.5867
  167SOPE   H4X18841   5.250   4.024   6.578 -0.0392 -0.2922 -1.4912
  167SOPE   H4Y18842   5.401   3.946   6.643 -0.3282 -0.8167  1.0921
  167SOPE   C3518843   5.215   3.858   6.694  0.4225  0.1285  0.9795
  167SOPE   H5X18844   5.232   3.748   6.691 -0.6295 -0.0625 -2.7459
  167SOPE   H5Y18845   5.113   3.871   6.652  0.9048  0.7557 -0.0294
  167SOPE   C3618846   5.219   3.906   6.834 -1.1382  0.2968  0.2795
  167SOPE   H6X18847   5.321   3.933   6.870 -0.8055 -0.5703 -0.0034
  167SOPE   H6Y18848   5.170   3.831   6.899 -0.5688  0.4465  0.8918
  167SOPE   C3718849   5.132   4.036   6.848  0.6032 -0.2970 -0.3319
  167SOPE   H7X18850   5.028   4.001   6.830  0.2135  0.9592 -0.6172
  167SOPE   H7Y18851   5.159   4.108   6.768  0.0858  1.2058  0.8045
  167SOPE   C3818852   5.144   4.103   6.984  0.1679  0.0815 -0.3089
  167SOPE   H8X18853   5.071   4.187   6.992  0.6407  0.3466  2.5209
  167SOPE   H8Y18854   5.247   4.146   6.987  0.1873  0.0309 -0.2691
  167SOPE   C3918855   5.111   4.003   7.094  0.1932 -0.3443  0.5960
  167SOPE   H9X18856   5.185   3.921   7.101  0.5404 -0.0230  0.7133
  167SOPE   H9Y18857   5.013   3.952   7.083  0.8281 -1.7599  1.2138
  167SOPE  C31018858   5.127   4.073   7.226  1.0272  0.6177 -1.0506
  167SOPE  H10X18859   5.055   4.156   7.240 -2.1633 -2.3001  1.4860
  167SOPE  H10Y18860   5.232   4.110   7.231  0.9898  0.5717  1.2077
  167SOPE  C31118861   5.104   3.983   7.351  0.1403  1.1158  0.4898
  167SOPE  H11X18862   5.184   3.906   7.352  0.6500  1.6220 -0.2943
  167SOPE  H11Y18863   5.001   3.940   7.346 -0.3339  2.3152 -3.2548
  167SOPE  C31218864   5.135   4.053   7.489  0.0685  0.2973 -0.6330
  167SOPE  H12X18865   5.061   4.133   7.511  0.2514  0.4353 -0.5265
  167SOPE  H12Y18866   5.243   4.079   7.492  1.9587 -5.8425  0.4557
  167SOPE  C31318867   5.124   3.940   7.597  0.2447 -0.1183 -0.5476
  167SOPE  H13X18868   5.183   3.855   7.559 -1.7877 -2.3567  1.0323
  167SOPE  H13Y18869   5.015   3.919   7.605 -0.0119  1.5402  1.4944
  167SOPE  C31418870   5.190   3.980   7.731 -0.3846 -0.4428 -0.0663
  167SOPE  H14X18871   5.118   4.057   7.765  1.4267  1.5265 -0.4528
  167SOPE  H14Y18872   5.286   4.031   7.711 -0.1885 -0.7093  0.1878
  167SOPE  C31518873   5.214   3.868   7.832  0.3968 -0.2921  0.4399
  167SOPE  H15X18874   5.275   3.796   7.772  0.3316 -0.3760  0.4747
  167SOPE  H15Y18875   5.112   3.835   7.861  0.2968  0.0803  0.5049
  167SOPE  C31618876   5.300   3.910   7.950  0.0153 -0.0341 -0.6704
  167SOPE  H16X18877   5.277   4.015   7.979 -0.1186 -0.0335 -0.7778
  167SOPE  H16Y18878   5.403   3.913   7.908 -0.2337 -0.5206 -1.3243
  167SOPE  C31718879   5.296   3.821   8.076 -0.2705  0.9442  0.2264
  167SOPE  H17X18880   5.389   3.842   8.133 -0.0836  0.0432  0.2741
  167SOPE  H17Y18881   5.314   3.717   8.039  1.6482  1.0053  0.8877
  167SOPE  C31818882   5.170   3.845   8.158  0.1620  0.1832 -0.3691
  167SOPE  H18X18883   5.170   3.806   8.262  1.2129  2.6636  0.6366
  167SOPE  H18Y18884   5.090   3.813   8.089  3.2431  0.0554 -4.2154
  167SOPE  H18Z18885   5.160   3.955   8.170 -3.4751 -0.0720 -0.1572
  168SOPE     N18886   4.107   0.604   5.671  0.4080  0.5233  0.7349
  168SOPE   HN118887   4.078   0.678   5.604 -1.9233  0.0311  1.1116
  168SOPE   HN218888   4.194   0.560   5.635  0.7817  1.9789 -0.2358
  168SOPE   HN318889   4.038   0.529   5.654  0.8655  0.2935 -0.1459
  168SOPE   C1218890   4.101   0.659   5.811 -0.5350  0.3837 -0.1056
  168SOPE  H12A18891   4.139   0.582   5.880  1.1495  0.2670 -1.1251
  168SOPE  H12B18892   3.994   0.686   5.827 -1.0158 -0.7489 -1.2069
  168SOPE   C1118893   4.174   0.794   5.812 -0.5650 -0.2432  0.7988
  168SOPE  H11A18894   4.279   0.775   5.780 -0.9832  1.3145 -1.7843
  168SOPE  H11B18895   4.183   0.838   5.914  0.7469  0.6780  0.3126
  168SOPE     P18896   4.202   0.939   5.600 -0.1461 -0.0941 -0.4139
  168SOPE   O1318897   4.126   1.052   5.540  0.4024  0.4263 -0.1145
  168SOPE   O1418898   4.242   0.825   5.520  0.2119 -0.6408 -0.1823
  168SOPE   O1218899   4.117   0.883   5.724  0.0046  0.3028 -0.5050
  168SOPE   O1118900   4.330   1.004   5.672  0.2341  0.2344 -0.6303
  168SOPE    C118901   4.312   1.099   5.774  0.3391  0.1623  0.0637
  168SOPE    HA18902   4.233   1.075   5.848  1.2041  0.3363  1.0603
  168SOPE    HB18903   4.271   1.195   5.736  0.7423  0.1550 -0.3994
  168SOPE    C218904   4.444   1.124   5.857  0.4927 -0.4030  0.1477
  168SOPE    HS18905   4.515   1.157   5.779  2.2959  1.3675  2.4079
  168SOPE   O2118906   4.490   1.006   5.915 -0.7713  0.2892 -0.7160
  168SOPE   C2118907   4.616   1.009   5.964  0.4024  0.2324  0.8350
  168SOPE   O2218908   4.692   1.103   5.952 -0.0640  0.0647 -0.2806
  168SOPE   C2218909   4.644   0.880   6.043 -0.4748  0.2188  0.2633
  168SOPE   H2R18910   4.736   0.835   6.000 -0.6895 -3.3940  3.1699
  168SOPE   H2S18911   4.570   0.803   6.014 -1.8670  1.4356  0.4952
  168SOPE    C318912   4.417   1.225   5.971 -0.1726 -0.3605 -0.2038
  168SOPE    HX18913   4.357   1.312   5.938  0.2588  0.0927  0.1939
  168SOPE    HY18914   4.515   1.267   6.003 -0.6071  0.4844  0.0313
  168SOPE   O3118915   4.356   1.168   6.089 -0.2592 -0.1434 -0.2329
  168SOPE   C3118916   4.226   1.187   6.102 -0.2410 -0.3842 -0.5187
  168SOPE   O3218917   4.155   1.269   6.043  0.0899  0.5436  0.0204
  168SOPE   C3218918   4.180   1.105   6.222  0.1813  0.7371 -0.1033
  168SOPE   H2X18919   4.080   1.142   6.253  0.8234  1.4361  1.2119
  168SOPE   H2Y18920   4.254   1.111   6.305 -2.2641  0.5879  2.2207
  168SOPE   C2318921   4.663   0.903   6.196 -0.2793  0.0984  1.0286
  168SOPE   H3R18922   4.727   0.991   6.216  0.3841  0.3641 -1.8213
  168SOPE   H3S18923   4.731   0.819   6.221  1.2407  0.8834 -0.2388
  168SOPE   C2418924   4.528   0.907   6.266  1.3339 -0.6481  0.0644
  168SOPE   H4R18925   4.462   0.989   6.229  1.7091 -0.2778  0.2004
  168SOPE   H4S18926   4.465   0.818   6.247 -1.3132  1.0889  0.1766
  168SOPE   C2518927   4.540   0.908   6.417 -0.1965 -0.2185  0.0020
  168SOPE   H5R18928   4.622   0.837   6.443  0.2970  0.7565  1.1938
  168SOPE   H5S18929   4.584   1.006   6.445  1.2328  0.1633 -3.1363
  168SOPE   C2618930   4.413   0.881   6.490  0.5626  0.1151  0.8544
  168SOPE   H6R18931   4.337   0.960   6.474 -0.1339 -0.6988  0.0152
  168SOPE   H6S18932   4.363   0.785   6.463  0.7343 -0.6545  3.0441
  168SOPE   C2718933   4.435   0.860   6.643  0.0818  1.1693 -0.2177
  168SOPE   H7R18934   4.340   0.833   6.694  0.8955 -1.0175  0.2482
  168SOPE   H7S18935   4.508   0.776   6.645 -0.4200  0.6630 -1.7781
  168SOPE   C2818936   4.496   0.979   6.721 -0.1566  0.2960 -0.4062
  168SOPE   H8R18937   4.598   1.009   6.688 -0.3970  0.7115 -0.7831
  168SOPE   H8S18938   4.433   1.065   6.690 -0.1583  0.8533  1.0940
  168SOPE   C2918939   4.506   0.961   6.865 -0.3725  0.7086 -0.1638
  168SOPE   H9118940   4.595   0.901   6.893  0.3529  0.7666 -2.1925
  168SOPE  C21018941   4.448   1.036   6.964 -0.1227  0.0355  0.1479
  168SOPE  H10118942   4.459   1.001   7.068  2.2742  0.3021  0.0381
  168SOPE  C21118943   4.346   1.141   6.937 -0.3995 -1.2326 -0.8997
  168SOPE  H11R18944   4.242   1.101   6.939 -0.0147 -2.2452 -0.2283
  168SOPE  H11S18945   4.346   1.184   6.834  4.4630  1.1024 -0.2026
  168SOPE  C21218946   4.337   1.255   7.038 -0.4303 -0.2177  0.0462
  168SOPE  H12R18947   4.341   1.208   7.138 -0.2149 -0.7052 -0.1878
  168SOPE  H12S18948   4.235   1.298   7.028 -0.7267 -0.5578  1.4363
  168SOPE  C21318949   4.443   1.361   7.029 -0.5990 -0.0288  0.6713
  168SOPE  H13R18950   4.538   1.307   7.009 -0.3314  0.9387 -0.8303
  168SOPE  H13S18951   4.446   1.409   7.129 -1.6133 -0.2724  0.8260
  168SOPE  C21418952   4.428   1.463   6.918  0.9082 -0.5553 -0.2333
  168SOPE  H14R18953   4.394   1.406   6.829  0.6694  0.3704 -0.7463
  168SOPE  H14S18954   4.525   1.510   6.893 -0.1884  2.4949  0.7994
  168SOPE  C21518955   4.347   1.590   6.963 -0.4112 -0.0188  0.5945
  168SOPE  H15R18956   4.349   1.667   6.882  1.1429 -0.1219  0.5086
  168SOPE  H15S18957   4.393   1.637   7.052  1.2407  0.5316 -0.4958
  168SOPE  C21618958   4.203   1.560   6.996  0.4971  0.5569 -0.3235
  168SOPE  H16R18959   4.205   1.500   7.089  2.8427  0.0334 -0.6437
  168SOPE  H16S18960   4.160   1.492   6.919  1.2979 -0.0705 -0.2306
  168SOPE  C21718961   4.103   1.675   7.017  1.0458 -0.1926  0.5068
  168SOPE  H17R18962   4.104   1.737   6.925 -0.2515 -0.5032  0.2761
  168SOPE  H17S18963   4.144   1.737   7.100  0.4382 -0.6869  1.1916
  168SOPE  C21818964   3.958   1.640   7.050 -0.0890  0.8443  0.5609
  168SOPE  H18R18965   3.925   1.569   6.971 -0.2251  2.0431 -0.4955
  168SOPE  H18S18966   3.899   1.734   7.052  0.0136  0.9384 -0.3749
  168SOPE  H18T18967   3.953   1.585   7.147  1.4288 -0.2994  0.0288
  168SOPE   C3318968   4.172   0.953   6.180  0.1765 -0.2024 -0.0963
  168SOPE   H3X18969   4.272   0.917   6.147  1.4916  0.8748  2.4700
  168SOPE   H3Y18970   4.106   0.935   6.092 -2.3268  0.7920  1.4770
  168SOPE   C3418971   4.128   0.863   6.299  0.8492  0.2859  0.2320
  168SOPE   H4X18972   4.149   0.911   6.397  1.2976  0.5059  0.0315
  168SOPE   H4Y18973   4.194   0.774   6.295  0.1396 -0.2734  0.6988
  168SOPE   C3518974   3.974   0.825   6.308  0.1080 -0.0278  0.1176
  168SOPE   H5X18975   3.933   0.771   6.220  0.8687 -0.6510  0.1399
  168SOPE   H5Y18976   3.924   0.924   6.318 -0.0700 -0.1419  0.3636
  168SOPE   C3618977   3.960   0.749   6.438  0.5655 -0.1415 -0.6830
  168SOPE   H6X18978   4.003   0.793   6.530  2.7952 -0.6251 -1.4427
  168SOPE   H6Y18979   4.013   0.652   6.431  0.8902 -0.3710  2.9193
  168SOPE   C3718980   3.812   0.726   6.454  0.7196 -0.4655 -0.1506
  168SOPE   H7X18981   3.780   0.672   6.362 -2.4100 -0.5483  0.8643
  168SOPE   H7Y18982   3.755   0.822   6.457  1.7035  0.1093  0.4184
  168SOPE   C3818983   3.784   0.631   6.575 -0.1665 -0.0341 -0.2113
  168SOPE   H8X18984   3.858   0.548   6.574  0.8986  0.8578  1.0349
  168SOPE   H8Y18985   3.682   0.589   6.560  0.2705 -1.0554 -0.4054
  168SOPE   C3918986   3.797   0.706   6.711  0.3992  0.3487  0.0307
  168SOPE   H9X18987   3.723   0.789   6.713 -0.6397 -0.5584  0.8384
  168SOPE   H9Y18988   3.894   0.759   6.709  0.5524  0.0651 -2.0543
  168SOPE  C31018989   3.764   0.612   6.832  0.6869 -0.2605 -0.9846
  168SOPE  H10X18990   3.862   0.567   6.858  0.2049 -0.4771  0.5215
  168SOPE  H10Y18991   3.683   0.542   6.801  0.4506  0.2309 -1.5002
  168SOPE  C31118992   3.713   0.691   6.958 -0.1116 -0.6067  0.2117
  168SOPE  H11X18993   3.632   0.766   6.944  0.9953  0.6581  0.3937
  168SOPE  H11Y18994   3.798   0.743   7.007  0.1535 -0.5448 -0.3070
  168SOPE  C31218995   3.652   0.598   7.068  0.0421  0.3022  0.4550
  168SOPE  H12X18996   3.734   0.524   7.080 -0.1465 -0.2797 -1.5451
  168SOPE  H12Y18997   3.569   0.541   7.022  1.7862  0.0117 -2.5583
  168SOPE  C31318998   3.610   0.650   7.204 -0.7670 -0.5604 -0.0042
  168SOPE  H13X18999   3.573   0.564   7.264  3.3932 -0.7338  2.7340
  168SOPE  H13Y19000   3.526   0.720   7.185 -1.0389 -0.5737  1.0908
  168SOPE  C31419001   3.724   0.717   7.284 -0.4875  0.1316  0.1411
  168SOPE  H14X19002   3.700   0.764   7.381 -1.1591 -1.2490  0.6711
  168SOPE  H14Y19003   3.734   0.806   7.218 -2.3162 -0.3605 -0.8591
  168SOPE  C31519004   3.864   0.654   7.274 -0.0884  0.0070 -0.1153
  168SOPE  H15X19005   3.893   0.627   7.171 -1.1149 -1.3786 -0.0695
  168SOPE  H15Y19006   3.853   0.550   7.311  0.4901 -0.3699 -0.9787
  168SOPE  C31619007   3.981   0.730   7.333  0.5962 -0.0056 -0.3899
  168SOPE  H16X19008   3.953   0.737   7.441  1.0208  1.3546 -0.3487
  168SOPE  H16Y19009   3.981   0.829   7.282  0.5519 -0.2782 -0.9208
  168SOPE  C31719010   4.118   0.671   7.312  0.9931 -0.1448 -0.1375
  168SOPE  H17X19011   4.134   0.674   7.202 -0.9597 -1.5261 -0.4980
  168SOPE  H17Y19012   4.116   0.564   7.344 -1.8054  0.2858  1.4418
  168SOPE  C31819013   4.237   0.747   7.365  0.3918  0.0132 -0.9960
  168SOPE  H18X19014   4.322   0.675   7.361  0.1988 -0.2371 -0.7068
  168SOPE  H18Y19015   4.212   0.774   7.470  2.5739  0.3761 -0.5266
  168SOPE  H18Z19016   4.256   0.841   7.309  0.9485  1.5298  1.5624
  169SOPE     N19017   0.063   2.933   5.341  0.0232  0.5457  0.3905
  169SOPE   HN119018   0.062   2.851   5.405  0.2548 -0.4192 -0.8023
  169SOPE   HN219019  -0.032   2.951   5.302  0.0227 -2.2087 -1.1392
  169SOPE   HN319020   0.119   2.905   5.258  0.9857 -1.5789  1.6839
  169SOPE   C1219021   0.123   3.052   5.408 -0.0040  0.5894  0.2190
  169SOPE  H12A19022   0.044   3.084   5.479  1.2891  0.5484  1.7455
  169SOPE  H12B19023   0.141   3.131   5.332 -1.9317  1.5682  0.7154
  169SOPE   C1119024   0.251   3.002   5.491 -0.3704 -0.0267  0.8870
  169SOPE  H11A19025   0.222   2.916   5.555  1.1314  0.6496  2.5420
  169SOPE  H11B19026   0.274   3.089   5.556 -1.4779  2.0530 -1.3613
  169SOPE     P19027   0.434   2.845   5.390 -0.0778  0.0138 -0.0151
  169SOPE   O1319028   0.508   2.852   5.265 -0.2631  0.0616  0.2376
  169SOPE   O1419029   0.328   2.743   5.410 -0.2202  0.1605 -0.5246
  169SOPE   O1219030   0.363   2.983   5.404 -0.2964  0.1148 -0.0238
  169SOPE   O1119031   0.520   2.850   5.519  0.2247  0.1431  0.1715
  169SOPE    C119032   0.615   2.950   5.558  0.0176  0.3121 -0.0336
  169SOPE    HA19033   0.576   3.048   5.523 -1.3645 -0.1486  0.1787
  169SOPE    HB19034   0.715   2.920   5.518  0.1769  0.1813  0.4571
  169SOPE    C219035   0.625   2.973   5.711  0.3400  0.2380 -0.1180
  169SOPE    HS19036   0.719   3.029   5.728  1.2206 -0.7235 -1.6451
  169SOPE   O2119037   0.625   2.845   5.777  0.2057  0.2632 -0.5527
  169SOPE   C2119038   0.745   2.780   5.767 -0.1981 -0.0299 -0.0403
  169SOPE   O2219039   0.843   2.821   5.717 -0.4353 -0.1110  0.2378
  169SOPE   C2219040   0.730   2.642   5.822 -0.0019  0.5486 -0.0250
  169SOPE   H2R19041   0.779   2.563   5.760 -2.1568 -0.4040 -0.6122
  169SOPE   H2S19042   0.622   2.618   5.832  0.7984 -4.4528 -0.5592
  169SOPE    C319043   0.503   3.055   5.767 -0.7496 -0.1311  0.4684
  169SOPE    HX19044   0.410   3.020   5.716 -2.8875  0.2976  3.8016
  169SOPE    HY19045   0.521   3.159   5.732 -1.5549  0.0142  0.4631
  169SOPE   O3119046   0.476   3.053   5.910  0.4705  0.1951  0.5179
  169SOPE   C3119047   0.561   3.109   5.982  1.2217 -0.7710 -0.1850
  169SOPE   O3219048   0.655   3.183   5.948 -0.3988  0.7883  0.2325
  169SOPE   C3219049   0.531   3.078   6.126 -0.2144 -0.3769 -0.3029
  169SOPE   H2X19050   0.515   2.971   6.150  4.1983 -0.8454  1.4058
  169SOPE   H2Y19051   0.446   3.144   6.153  0.4870  2.6019 -4.2733
  169SOPE   C2319052   0.793   2.623   5.964 -0.3626  0.7193 -0.4698
  169SOPE   H3R19053   0.901   2.648   5.965  0.3251 -1.7059  2.7019
  169SOPE   H3S19054   0.794   2.519   6.002  1.1113  1.0871  0.5864
  169SOPE   C2419055   0.707   2.694   6.069 -0.1401 -0.8897 -0.1123
  169SOPE   H4R19056   0.734   2.801   6.074 -2.1751 -0.2714 -1.3667
  169SOPE   H4S19057   0.602   2.683   6.033 -0.3980  0.6550  0.1015
  169SOPE   C2519058   0.723   2.625   6.207  0.0171  0.4815  0.2170
  169SOPE   H5R19059   0.687   2.521   6.192 -1.7024  0.7970  1.7806
  169SOPE   H5S19060   0.828   2.630   6.243 -0.1928  1.1070  0.7821
  169SOPE   C2619061   0.637   2.692   6.305 -1.2084 -0.2780  0.6858
  169SOPE   H6R19062   0.680   2.791   6.330  2.1644 -1.2422 -0.7866
  169SOPE   H6S19063   0.542   2.724   6.255 -1.2425  0.1397  1.0116
  169SOPE   C2719064   0.604   2.613   6.427  0.3739  0.7909 -0.1651
  169SOPE   H7R19065   0.537   2.679   6.485 -1.2404 -1.3194  0.4658
  169SOPE   H7S19066   0.558   2.520   6.389  0.4797  0.3500  0.7783
  169SOPE   C2819067   0.732   2.576   6.510 -0.5856  0.1800  0.2929
  169SOPE   H8R19068   0.696   2.499   6.582 -1.6275 -1.3739 -1.7807
  169SOPE   H8S19069   0.808   2.523   6.447 -2.6359 -2.9860  0.2488
  169SOPE   C2919070   0.780   2.704   6.576 -0.0166  0.1461  0.4282
  169SOPE   H9119071   0.820   2.774   6.501  1.2768  0.3734  1.2971
  169SOPE  C21019072   0.795   2.738   6.705  0.0381  0.2493 -0.3958
  169SOPE  H10119073   0.829   2.841   6.725 -2.3740  0.8399  1.1128
  169SOPE  C21119074   0.746   2.657   6.821  0.2812 -0.1262  0.1108
  169SOPE  H11R19075   0.811   2.658   6.911  1.3144 -2.5331 -0.5468
  169SOPE  H11S19076   0.739   2.551   6.789  0.7135  0.3124 -1.5438
  169SOPE  C21219077   0.602   2.689   6.857  0.0613  0.2768  0.8808
  169SOPE  H12R19078   0.538   2.664   6.770 -0.4654 -2.7227  2.0514
  169SOPE  H12S19079   0.590   2.799   6.872 -1.6927  0.2070  0.1757
  169SOPE  C21319080   0.545   2.610   6.981  0.3327 -0.2806  0.6237
  169SOPE  H13R19081   0.539   2.503   6.953  1.5421 -0.5564  1.3135
  169SOPE  H13S19082   0.444   2.642   7.015 -0.0341  0.2405 -0.8902
  169SOPE  C21419083   0.639   2.616   7.101  0.3899  0.3384  0.8946
  169SOPE  H14R19084   0.664   2.724   7.112 -0.7122  0.8550 -1.0874
  169SOPE  H14S19085   0.733   2.562   7.076  0.9158  1.5337  0.1679
  169SOPE  C21519086   0.568   2.576   7.232  0.4736  0.3464 -0.3083
  169SOPE  H15R19087   0.527   2.474   7.212 -0.0143  0.4064  0.3575
  169SOPE  H15S19088   0.489   2.652   7.250  1.8399  1.5444  0.8722
  169SOPE  C21619089   0.653   2.575   7.360  0.2543  0.7801  0.3596
  169SOPE  H16R19090   0.699   2.671   7.392  2.7114 -0.3155  0.3392
  169SOPE  H16S19091   0.740   2.508   7.347  0.9080  1.0099  3.0330
  169SOPE  C21719092   0.569   2.511   7.475 -0.1606 -0.3257  0.3007
  169SOPE  H17R19093   0.637   2.487   7.560  0.8494 -1.2240 -0.7294
  169SOPE  H17S19094   0.493   2.433   7.454 -2.8955  1.7853  1.6742
  169SOPE  C21819095   0.485   2.625   7.540  0.0590 -0.0565  0.1586
  169SOPE  H18R19096   0.415   2.664   7.463 -0.4396 -1.1147  0.0628
  169SOPE  H18S19097   0.546   2.707   7.584 -2.6208  1.9051  0.4557
  169SOPE  H18T19098   0.414   2.588   7.617 -1.6375  0.7163 -0.9859
  169SOPE   C3319099   0.648   3.127   6.222  0.0637 -0.3769 -0.2355
  169SOPE   H3X19100   0.652   3.238   6.219  2.3766 -0.4013 -0.3191
  169SOPE   H3Y19101   0.745   3.075   6.206  1.1489  0.8136  1.8869
  169SOPE   C3419102   0.611   3.095   6.372 -0.6912  0.3829 -0.2559
  169SOPE   H4X19103   0.590   2.987   6.390 -2.0623  0.7351  0.4553
  169SOPE   H4Y19104   0.518   3.149   6.401 -1.0548 -0.0308 -0.6336
  169SOPE   C3519105   0.722   3.147   6.457 -0.6104 -0.1281  0.4670
  169SOPE   H5X19106   0.751   3.250   6.428 -0.1780 -0.3976 -0.0663
  169SOPE   H5Y19107   0.808   3.080   6.437 -0.5937  0.4679 -1.6563
  169SOPE   C3619108   0.690   3.141   6.608 -0.4422 -0.6651  0.5574
  169SOPE   H6X19109   0.683   3.031   6.621 -1.3045 -0.6828  0.0463
  169SOPE   H6Y19110   0.586   3.178   6.622 -0.2981 -0.5506  1.3377
  169SOPE   C3719111   0.794   3.201   6.705 -0.6095 -0.1519 -0.0359
  169SOPE   H7X19112   0.794   3.311   6.713 -0.9418 -0.2728  2.1505
  169SOPE   H7Y19113   0.896   3.177   6.668 -1.3842 -2.2784 -0.9586
  169SOPE   C3819114   0.785   3.157   6.851  0.0223  0.3226 -0.1834
  169SOPE   H8X19115   0.681   3.152   6.888  0.5768 -0.7933  1.3232
  169SOPE   H8Y19116   0.812   3.049   6.855  0.8529  0.5513  2.8385
  169SOPE   C3919117   0.870   3.232   6.954  0.4082 -0.2428 -0.6836
  169SOPE   H9X19118   0.826   3.334   6.956  2.3151  0.6790 -2.2230
  169SOPE   H9Y19119   0.978   3.242   6.928  0.9833  1.4228  1.8718
  169SOPE  C31019120   0.860   3.163   7.092 -0.4405  0.6712  0.4620
  169SOPE  H10X19121   0.874   3.055   7.071  0.7473  0.9162 -0.0714
  169SOPE  H10Y19122   0.755   3.181   7.124 -1.2299 -2.1076 -0.2777
  169SOPE  C31119123   0.961   3.202   7.204  0.1047  0.4164 -0.2609
  169SOPE  H11X19124   1.060   3.166   7.169 -0.4047 -0.0366 -1.2588
  169SOPE  H11Y19125   0.933   3.164   7.305  3.0146  0.4799  0.6531
  169SOPE  C31219126   0.981   3.354   7.223 -0.3942  0.1354 -0.3261
  169SOPE  H12X19127   0.987   3.402   7.123 -0.6497  0.5668 -0.1408
  169SOPE  H12Y19128   1.080   3.372   7.270 -0.0987  1.4690 -1.4093
  169SOPE  C31319129   0.865   3.419   7.301 -0.0425 -0.0074  0.5924
  169SOPE  H13X19130   0.761   3.424   7.262 -0.5172  0.1433  1.8264
  169SOPE  H13Y19131   0.892   3.527   7.301 -1.2324  0.4278 -2.9044
  169SOPE  C31419132   0.858   3.388   7.447  0.3409 -0.0633 -0.4420
  169SOPE  H14X19133   0.960   3.413   7.482  0.3442  1.0187 -1.1854
  169SOPE  H14Y19134   0.841   3.278   7.460 -1.3031  0.2982  0.7980
  169SOPE  C31519135   0.756   3.463   7.527 -0.0673 -0.1245 -0.0733
  169SOPE  H15X19136   0.662   3.464   7.468  1.3337  0.9526 -2.4286
  169SOPE  H15Y19137   0.800   3.565   7.531  1.3401 -0.6369 -1.5756
  169SOPE  C31619138   0.746   3.418   7.678  0.0889  0.1008 -0.1372
  169SOPE  H16X19139   0.703   3.316   7.675  1.5247 -0.5066 -1.4152
  169SOPE  H16Y19140   0.674   3.495   7.713 -0.2911 -1.0656  1.7468
  169SOPE  C31719141   0.870   3.426   7.766  0.2843 -0.0088  0.1513
  169SOPE  H17X19142   0.923   3.523   7.751  0.1104  0.5240  2.5444
  169SOPE  H17Y19143   0.938   3.345   7.732 -1.2368 -1.2472 -0.0578
  169SOPE  C31819144   0.860   3.396   7.914 -0.0998 -0.0419 -0.3832
  169SOPE  H18X19145   0.811   3.297   7.929 -0.3641 -0.0600 -1.3070
  169SOPE  H18Y19146   0.793   3.471   7.962 -3.7699 -1.9026 -2.1689
  169SOPE  H18Z19147   0.960   3.388   7.962 -0.4135 -0.2077  0.2599
  170SOPE     N19148   1.987   6.822   5.793 -0.2305 -0.2737  0.7901
  170SOPE   HN119149   2.031   6.912   5.763 -3.5991  1.0595 -0.7822
  170SOPE   HN219150   1.919   6.796   5.719 -0.8457 -0.4330  1.4037
  170SOPE   HN319151   1.935   6.854   5.878  0.5899  1.5363  0.6670
  170SOPE   C1219152   2.070   6.701   5.830 -0.6258 -0.0233 -0.2758
  170SOPE  H12A19153   2.109   6.710   5.934 -0.3203  1.4554 -0.5005
  170SOPE  H12B19154   2.158   6.701   5.762  0.1651  0.0978  0.7189
  170SOPE   C1119155   1.991   6.570   5.816 -0.1394 -0.1494  0.5931
  170SOPE  H11A19156   2.071   6.493   5.818 -2.0904 -2.2622  0.6263
  170SOPE  H11B19157   1.942   6.582   5.717  0.7268  0.5609  0.2344
  170SOPE     P19158   1.836   6.404   5.925  0.3598 -0.2338 -0.2843
  170SOPE   O1319159   1.926   6.334   6.013  0.6646 -0.4148  0.3839
  170SOPE   O1419160   1.802   6.343   5.796 -0.6512  0.4462  0.0150
  170SOPE   O1219161   1.902   6.546   5.920  0.1485 -0.0997 -0.0145
  170SOPE   O1119162   1.701   6.421   6.003 -0.9540  0.7329  1.2109
  170SOPE    C119163   1.672   6.536   6.075  0.5038 -0.8462 -0.6475
  170SOPE    HA19164   1.565   6.535   6.106 -0.2279  1.2991 -2.8085
  170SOPE    HB19165   1.679   6.627   6.013 -0.4850 -0.0800  0.3132
  170SOPE    C219166   1.743   6.546   6.215 -0.3520  0.2003  0.9069
  170SOPE    HS19167   1.840   6.595   6.189  1.3550 -1.4933  3.5287
  170SOPE   O2119168   1.756   6.407   6.261 -0.8137 -0.1179 -0.4147
  170SOPE   C2119169   1.870   6.378   6.306  0.1308  0.0783  0.1880
  170SOPE   O2219170   1.964   6.458   6.313 -0.2258  0.1172  0.2766
  170SOPE   C2219171   1.869   6.227   6.355 -0.0643 -0.2789 -0.2631
  170SOPE   H2R19172   1.978   6.206   6.357  0.1757  0.9449  1.8148
  170SOPE   H2S19173   1.819   6.168   6.276 -0.1781  0.8234 -1.0442
  170SOPE    C319174   1.654   6.626   6.316  0.7918 -0.3413 -0.2216
  170SOPE    HX19175   1.557   6.575   6.300  2.4098 -3.1794 -1.7721
  170SOPE    HY19176   1.644   6.733   6.286  1.0835  0.3657  1.9815
  170SOPE   O3119177   1.699   6.621   6.453  0.1256 -0.4372  0.4212
  170SOPE   C3119178   1.807   6.694   6.479  0.6042  0.4933 -0.5122
  170SOPE   O3219179   1.857   6.771   6.403 -0.1549  0.4472 -0.0008
  170SOPE   C3219180   1.846   6.661   6.629  0.3098 -0.6674 -0.3892
  170SOPE   H2X19181   1.944   6.608   6.623  1.6077  1.4798  0.8091
  170SOPE   H2Y19182   1.777   6.584   6.671  1.6159 -0.8991  1.4666
  170SOPE   C2319183   1.796   6.197   6.490  0.7547  0.4724 -0.3224
  170SOPE   H3R19184   1.787   6.086   6.496 -2.7883  0.6676  0.1359
  170SOPE   H3S19185   1.690   6.230   6.491  0.3944 -0.4886 -1.9584
  170SOPE   C2419186   1.874   6.244   6.616  0.4486  0.0442  0.5424
  170SOPE   H4R19187   1.977   6.205   6.600  0.4164  0.1135  0.1503
  170SOPE   H4S19188   1.875   6.354   6.631  2.0209  0.1821 -0.2787
  170SOPE   C2519189   1.817   6.190   6.751  0.1917  0.1240  0.4371
  170SOPE   H5R19190   1.731   6.248   6.792  0.7332  0.5001  1.0698
  170SOPE   H5S19191   1.796   6.082   6.735  2.2592 -0.3152  0.4171
  170SOPE   C2619192   1.922   6.199   6.866  0.2960  0.0714 -0.7684
  170SOPE   H6R19193   1.900   6.122   6.942  1.9143  0.7384  0.4415
  170SOPE   H6S19194   2.019   6.182   6.816  1.1668 -0.2127  0.9452
  170SOPE   C2719195   1.910   6.335   6.940  0.8557  0.0126 -0.4920
  170SOPE   H7R19196   1.947   6.412   6.870 -0.6754  1.3935  0.1484
  170SOPE   H7S19197   1.802   6.351   6.959  1.1831 -0.0980  1.6774
  170SOPE   C2819198   1.989   6.336   7.071 -0.0953 -0.3210  0.4237
  170SOPE   H8R19199   1.976   6.430   7.128 -1.1473  0.8813 -1.6962
  170SOPE   H8S19200   1.948   6.254   7.135  1.4904  0.0265  1.9788
  170SOPE   C2919201   2.145   6.332   7.050 -0.3633  0.2210 -0.4852
  170SOPE   H9119202   2.196   6.346   6.953  0.2689  0.3065 -0.1512
  170SOPE  C21019203   2.230   6.318   7.152  0.4915 -0.1140 -0.3795
  170SOPE  H10119204   2.338   6.336   7.146  0.3421  1.1536  0.4413
  170SOPE  C21119205   2.178   6.321   7.299 -0.0968  0.5049  0.1275
  170SOPE  H11R19206   2.073   6.293   7.321  1.0869 -2.0257  3.4197
  170SOPE  H11S19207   2.207   6.412   7.354 -0.0330  1.4524 -1.4080
  170SOPE  C21219208   2.269   6.214   7.360 -0.6640 -0.5180 -0.2537
  170SOPE  H12R19209   2.377   6.240   7.349 -1.0125  0.2942 -2.1747
  170SOPE  H12S19210   2.265   6.119   7.304 -1.5245  0.0481 -1.1834
  170SOPE  C21319211   2.240   6.189   7.511 -0.5989 -0.1523 -0.1357
  170SOPE  H13R19212   2.132   6.167   7.523 -1.2280  2.1126 -1.0763
  170SOPE  H13S19213   2.257   6.281   7.572 -0.4166 -0.4886  0.3257
  170SOPE  C21419214   2.334   6.083   7.575 -0.3612  0.4194 -0.4517
  170SOPE  H14R19215   2.330   5.990   7.513 -0.9794 -0.7004  1.1883
  170SOPE  H14S19216   2.290   6.046   7.671 -0.3527 -1.7095 -1.2044
  170SOPE  C21519217   2.473   6.141   7.595  0.7358 -0.0738 -0.3524
  170SOPE  H15R19218   2.494   6.218   7.518  0.7391  1.4245  1.0718
  170SOPE  H15S19219   2.544   6.056   7.584  0.5130 -0.3261  0.1035
  170SOPE  C21619220   2.488   6.218   7.730  0.2953  0.3272 -0.2255
  170SOPE  H16R19221   2.512   6.142   7.807 -1.1504  0.9523  0.9079
  170SOPE  H16S19222   2.388   6.264   7.747 -0.6976 -1.9352  0.4602
  170SOPE  C21719223   2.604   6.311   7.745 -0.2468 -0.2740  0.3351
  170SOPE  H17R19224   2.612   6.337   7.853  1.3219  1.5421 -0.1694
  170SOPE  H17S19225   2.577   6.404   7.689  1.9380 -1.0814 -2.2576
  170SOPE  C21819226   2.744   6.268   7.706 -0.0663  0.2423 -0.0294
  170SOPE  H18R19227   2.822   6.347   7.707  1.0925 -0.8543 -0.5872
  170SOPE  H18S19228   2.748   6.218   7.606 -1.3344  0.8812 -0.4235
  170SOPE  H18T19229   2.773   6.188   7.777  1.2031 -1.8308 -2.6935
  170SOPE   C3319230   1.840   6.778   6.722 -0.2244 -0.2269 -0.1710
  170SOPE   H3X19231   1.740   6.827   6.731  0.4188  1.3515 -1.0840
  170SOPE   H3Y19232   1.900   6.862   6.679  2.7867 -1.8001  0.7408
  170SOPE   C3419233   1.891   6.746   6.866 -0.7842 -0.4903  0.4249
  170SOPE   H4X19234   2.002   6.745   6.862 -0.7551  0.4975  0.7629
  170SOPE   H4Y19235   1.856   6.643   6.888  0.4028 -1.1460 -0.6106
  170SOPE   C3519236   1.841   6.851   6.961 -0.9467 -0.3462 -0.2003
  170SOPE   H5X19237   1.730   6.860   6.956 -1.0193  0.2017  1.7454
  170SOPE   H5Y19238   1.879   6.949   6.926  2.8071 -1.2345  0.9587
  170SOPE   C3619239   1.884   6.823   7.103  0.5132 -0.3076  0.6592
  170SOPE   H6X19240   1.873   6.715   7.129  0.2654 -0.3894  0.2193
  170SOPE   H6Y19241   1.822   6.893   7.163  0.7795  1.7305 -1.3206
  170SOPE   C3719242   2.030   6.868   7.129  0.3215  0.3792 -0.2086
  170SOPE   H7X19243   2.040   6.979   7.119  2.1223  0.2930  0.4076
  170SOPE   H7Y19244   2.081   6.818   7.044 -0.5772 -1.8021  0.4774
  170SOPE   C3819245   2.075   6.821   7.266 -0.4422 -0.0530 -0.5674
  170SOPE   H8X19246   2.182   6.848   7.281 -0.5543  1.1316 -1.7618
  170SOPE   H8Y19247   2.071   6.710   7.272  1.8839 -0.1164  1.8302
  170SOPE   C3919248   1.984   6.874   7.376  0.3647  0.0667  0.5634
  170SOPE   H9X19249   1.887   6.820   7.365  0.3154 -0.2361  2.3219
  170SOPE   H9Y19250   1.965   6.982   7.355 -0.0191 -0.0818  0.1200
  170SOPE  C31019251   2.051   6.846   7.505  0.0175 -0.3185  0.2337
  170SOPE  H10X19252   2.142   6.903   7.534 -0.4012  0.3961  0.1771
  170SOPE  H10Y19253   2.075   6.738   7.499 -0.9952 -0.5613  0.3364
  170SOPE  C31119254   1.954   6.869   7.622 -0.2177  0.3886 -0.3840
  170SOPE  H11X19255   1.865   6.802   7.613  0.3166 -0.3744 -0.0561
  170SOPE  H11Y19256   1.907   6.970   7.615 -0.9688 -0.0000 -1.2860
  170SOPE  C31219257   2.024   6.842   7.756  0.0430 -0.9307  0.5858
  170SOPE  H12X19258   2.124   6.890   7.762 -0.1485 -0.2312 -1.2955
  170SOPE  H12Y19259   2.050   6.734   7.748  1.7367 -0.6943  2.1135
  170SOPE  C31319260   1.937   6.859   7.879 -0.7057  0.1707 -0.0759
  170SOPE  H13X19261   1.854   6.785   7.876 -0.6043  0.0332  0.3868
  170SOPE  H13Y19262   1.895   6.961   7.888 -1.4461 -0.1142 -0.1964
  170SOPE  C31419263   2.003   6.822   8.016 -0.2661 -0.6737 -0.2777
  170SOPE  H14X19264   2.100   6.875   8.017  0.2033 -1.4108 -1.9957
  170SOPE  H14Y19265   2.024   6.713   8.013  0.5228 -0.5146 -1.0041
  170SOPE  C31519266   1.924   6.852   8.148  0.0444 -0.2439  0.6157
  170SOPE  H15X19267   1.919   6.963   8.152  2.3934 -0.0286 -0.7102
  170SOPE  H15Y19268   1.979   6.809   8.235 -1.0654 -1.9253  0.5371
  170SOPE  C31619269   1.778   6.804   8.154 -0.0387 -0.7554 -0.1262
  170SOPE  H16X19270   1.737   6.859   8.066  1.1117 -0.7360 -0.6624
  170SOPE  H16Y19271   1.740   6.845   8.250  0.9291 -0.8278  0.3022
  170SOPE  C31719272   1.746   6.654   8.154 -0.3606  0.3877 -0.5062
  170SOPE  H17X19273   1.777   6.605   8.059  0.3954 -1.3994  0.6044
  170SOPE  H17Y19274   1.635   6.639   8.156 -0.3429  0.0772 -1.5097
  170SOPE  C31819275   1.802   6.568   8.264  0.0794  0.0685  0.2146
  170SOPE  H18X19276   1.913   6.563   8.258  0.3009  2.2734  1.2097
  170SOPE  H18Y19277   1.770   6.462   8.267  1.9935 -0.5345  2.0997
  170SOPE  H18Z19278   1.778   6.613   8.363 -1.1243 -1.3634  0.6026
  171SOPE     N19279   6.876   4.271   5.880 -0.1059  0.1802 -0.1030
  171SOPE   HN119280   6.960   4.240   5.933 -0.4543 -0.9458 -0.1888
  171SOPE   HN219281   6.869   4.375   5.884 -2.4523  0.0322  2.0707
  171SOPE   HN319282   6.791   4.230   5.923 -0.6384  0.8070 -0.5235
  171SOPE   C1219283   6.872   4.209   5.748  0.0250  0.6419 -0.1004
  171SOPE  H12A19284   6.788   4.254   5.691 -0.8212 -0.9165 -0.1338
  171SOPE  H12B19285   6.871   4.098   5.758 -2.6577  0.8244  3.2335
  171SOPE   C1119286   6.999   4.254   5.672 -0.2887 -0.7000 -0.1754
  171SOPE  H11A19287   7.012   4.365   5.673  1.1151 -0.8484 -0.0535
  171SOPE  H11B19288   6.975   4.233   5.566  0.4143 -1.7425 -0.1448
  171SOPE     P19289   7.229   4.265   5.800 -0.1970  0.1699  0.0354
  171SOPE   O1319290   7.254   4.399   5.740  0.2937  0.0884  0.3646
  171SOPE   O1419291   7.340   4.168   5.815  0.0274  0.0824  0.0859
  171SOPE   O1219292   7.114   4.183   5.725  0.1264 -0.2448 -0.0046
  171SOPE   O1119293   7.160   4.295   5.943  0.2823  0.4127 -0.3575
  171SOPE    C119294   7.188   4.216   6.055 -0.3419  0.6116 -0.2765
  171SOPE    HA19295   7.299   4.211   6.059 -0.3072 -1.1231 -1.9098
  171SOPE    HB19296   7.133   4.119   6.056 -1.3209  1.1485  0.5632
  171SOPE    C219297   7.151   4.277   6.194 -0.1434 -0.3634  0.5468
  171SOPE    HS19298   7.211   4.219   6.267 -0.1654 -0.5742  0.3978
  171SOPE   O2119299   7.007   4.255   6.216  0.3557  0.2214 -0.5251
  171SOPE   C2119300   6.969   4.234   6.338  0.2908 -0.4424  0.3938
  171SOPE   O2219301   7.037   4.244   6.436  0.2240  0.2936 -0.3281
  171SOPE   C2219302   6.817   4.191   6.336  0.3817  0.1491 -0.5349
  171SOPE   H2R19303   6.803   4.122   6.249 -0.8037  1.1478 -1.1745
  171SOPE   H2S19304   6.769   4.288   6.311 -1.0911 -0.5067 -0.3976
  171SOPE    C319305   7.183   4.429   6.189  0.4227  0.1692 -0.2670
  171SOPE    HX19306   7.094   4.481   6.147 -1.2422 -0.7377  1.8816
  171SOPE    HY19307   7.271   4.441   6.123 -0.7301  0.5000 -1.8173
  171SOPE   O3119308   7.219   4.475   6.314 -0.2609  0.6273  0.3081
  171SOPE   C3119309   7.151   4.574   6.371  0.4471  0.6610 -0.1638
  171SOPE   O3219310   7.063   4.642   6.320  0.3426  0.1629 -0.2696
  171SOPE   C3219311   7.193   4.581   6.512 -0.4202  0.3755 -0.3260
  171SOPE   H2X19312   7.304   4.574   6.515 -0.4157  0.7657  0.5175
  171SOPE   H2Y19313   7.156   4.488   6.559  0.1834  0.9070  1.2465
  171SOPE   C2319314   6.756   4.139   6.463  0.4548 -0.2092 -0.3512
  171SOPE   H3R19315   6.780   4.213   6.542  0.4689 -0.7826  0.1908
  171SOPE   H3S19316   6.800   4.043   6.498 -1.5899 -1.1335 -0.1677
  171SOPE   C2419317   6.603   4.120   6.472 -0.4722 -0.3650 -0.4158
  171SOPE   H4R19318   6.562   4.222   6.455  1.2818  0.8252  1.8043
  171SOPE   H4S19319   6.567   4.051   6.392 -1.6929  0.8795 -0.9774
  171SOPE   C2519320   6.550   4.056   6.599  0.3822 -0.3002 -0.4310
  171SOPE   H5R19321   6.575   4.118   6.687  1.4264 -1.1489 -0.1084
  171SOPE   H5S19322   6.443   4.028   6.590  0.4594 -0.3859 -1.1575
  171SOPE   C2619323   6.629   3.922   6.625  0.6581  0.2879  0.3314
  171SOPE   H6R19324   6.635   3.857   6.535 -1.8514 -0.4702  0.6449
  171SOPE   H6S19325   6.733   3.939   6.660  0.7751  2.4301 -0.8684
  171SOPE   C2719326   6.567   3.832   6.732  0.5529  0.1392 -0.1764
  171SOPE   H7R19327   6.456   3.833   6.728  0.4634  0.3588  1.5622
  171SOPE   H7S19328   6.597   3.726   6.720  1.7578  0.7151 -3.0689
  171SOPE   C2819329   6.626   3.871   6.872  0.2399 -0.1826  0.1699
  171SOPE   H8R19330   6.733   3.845   6.888  0.5508  0.9179 -0.0794
  171SOPE   H8S19331   6.641   3.980   6.860  0.6651 -0.2254  0.2897
  171SOPE   C2919332   6.534   3.842   6.989 -0.1336  0.0407 -0.1288
  171SOPE   H9119333   6.534   3.737   7.020  0.8050 -0.5831 -2.1305
  171SOPE  C21019334   6.457   3.931   7.054  0.4768 -0.9098  0.3772
  171SOPE  H10119335   6.405   3.905   7.147 -0.0552  1.1964  0.7241
  171SOPE  C21119336   6.432   4.074   7.016  0.1233  0.4251  0.5470
  171SOPE  H11R19337   6.326   4.106   7.031 -1.4858 -3.4697 -1.0779
  171SOPE  H11S19338   6.450   4.077   6.907 -0.7973  2.2942  0.4067
  171SOPE  C21219339   6.532   4.164   7.092 -0.0545 -0.0505  0.3812
  171SOPE  H12R19340   6.636   4.130   7.070 -0.0593 -0.6732  1.2668
  171SOPE  H12S19341   6.520   4.139   7.199 -0.6903 -0.3280  0.2494
  171SOPE  C21319342   6.506   4.317   7.093  0.0240 -0.2828 -0.0145
  171SOPE  H13R19343   6.564   4.358   7.179 -0.2946 -1.4800  0.7938
  171SOPE  H13S19344   6.397   4.331   7.108 -0.0110 -0.2830 -0.2751
  171SOPE  C21419345   6.556   4.390   6.967 -0.0853  0.0181  0.7487
  171SOPE  H14R19346   6.556   4.500   6.977  1.5582  0.1271 -0.0074
  171SOPE  H14S19347   6.483   4.371   6.886  1.2599 -0.4971 -0.3886
  171SOPE  C21519348   6.693   4.344   6.913  0.4082  0.4303 -0.1150
  171SOPE  H15R19349   6.686   4.235   6.890  0.0459  0.5290 -0.4757
  171SOPE  H15S19350   6.777   4.362   6.984  0.8846  1.6954 -0.9700
  171SOPE  C21619351   6.733   4.408   6.782  0.0582  0.1876 -0.2705
  171SOPE  H16R19352   6.736   4.518   6.796  1.5312  0.0581  0.6543
  171SOPE  H16S19353   6.661   4.376   6.703  0.2951 -0.2611 -0.3087
  171SOPE  C21719354   6.873   4.363   6.739 -0.3379 -0.0263  0.5942
  171SOPE  H17R19355   6.896   4.406   6.639  0.8923 -1.0131  0.4321
  171SOPE  H17S19356   6.870   4.252   6.725  1.0419  0.0156 -0.1637
  171SOPE  C21819357   6.995   4.393   6.825  0.6459  0.8277 -0.2654
  171SOPE  H18R19358   6.997   4.496   6.865 -2.2359  0.1965  1.8332
  171SOPE  H18S19359   7.089   4.374   6.769 -0.9606 -2.1414 -2.2617
  171SOPE  H18T19360   7.003   4.326   6.914  0.2819  1.3232  0.1469
  171SOPE   C3319361   7.151   4.715   6.575  0.2860  0.5826 -0.0947
  171SOPE   H3X19362   7.044   4.742   6.567  0.4593  1.0617 -1.0218
  171SOPE   H3Y19363   7.193   4.795   6.510  1.3258 -0.7630 -1.1540
  171SOPE   C3419364   7.200   4.746   6.721  0.4739 -0.5414  1.0003
  171SOPE   H4X19365   7.304   4.707   6.729  0.4707 -0.9036 -0.3726
  171SOPE   H4Y19366   7.136   4.688   6.791  0.3805 -1.9682 -0.2084
  171SOPE   C3519367   7.197   4.896   6.758  0.3349  0.8123  0.3430
  171SOPE   H5X19368   7.280   4.948   6.706 -1.4368  2.9304 -0.5062
  171SOPE   H5Y19369   7.216   4.914   6.866  0.4693  0.4915  0.3759
  171SOPE   C3619370   7.063   4.966   6.719  0.8897  0.9124 -0.2686
  171SOPE   H6X19371   7.025   4.927   6.622  1.5265  0.4180 -0.3227
  171SOPE   H6Y19372   7.082   5.075   6.708  1.4370  1.0823  1.8267
  171SOPE   C3719373   6.972   4.946   6.837 -0.1609  0.5580  0.0175
  171SOPE   H7X19374   7.004   5.013   6.919  0.7492  1.3386 -0.9450
  171SOPE   H7Y19375   6.977   4.842   6.876  1.0162  0.4392 -0.4264
  171SOPE   C3819376   6.820   4.973   6.811 -0.1173  0.0294  0.9395
  171SOPE   H8X19377   6.799   4.923   6.713 -1.2876  0.1358  1.1216
  171SOPE   H8Y19378   6.810   5.083   6.797 -0.6058 -0.2063 -1.0134
  171SOPE   C3919379   6.727   4.923   6.920  0.3445  0.2675 -0.7780
  171SOPE   H9X19380   6.745   4.814   6.914 -2.2733 -0.2781 -0.0062
  171SOPE   H9Y19381   6.618   4.940   6.904 -0.0363 -2.1694 -1.1330
  171SOPE  C31019382   6.764   4.974   7.061 -0.6490 -0.0368 -0.1938
  171SOPE  H10X19383   6.873   4.964   7.081 -1.0575 -1.7997  1.3920
  171SOPE  H10Y19384   6.710   4.905   7.129  0.3979 -3.4009 -2.4987
  171SOPE  C31119385   6.702   5.113   7.105  0.4335  0.0385  0.1057
  171SOPE  H11X19386   6.595   5.126   7.078  0.1853  1.5157  1.6840
  171SOPE  H11Y19387   6.755   5.195   7.051  0.4297 -0.4694 -0.6884
  171SOPE  C31219388   6.714   5.148   7.253 -0.0213 -0.0017 -0.8866
  171SOPE  H12X19389   6.637   5.095   7.313  1.7669  0.1071  1.6727
  171SOPE  H12Y19390   6.698   5.258   7.262  2.7124  0.3914  0.4999
  171SOPE  C31319391   6.844   5.105   7.322  0.4042 -0.1404  0.7784
  171SOPE  H13X19392   6.919   5.177   7.282  0.9077 -0.5753  0.9220
  171SOPE  H13Y19393   6.863   4.998   7.298  0.1467 -0.0826  0.2969
  171SOPE  C31419394   6.847   5.135   7.473 -0.5093  0.0185  0.4832
  171SOPE  H14X19395   6.772   5.067   7.519 -0.0625 -1.0868 -0.3683
  171SOPE  H14Y19396   6.810   5.239   7.479  1.7648  1.3557 -4.0528
  171SOPE  C31519397   6.981   5.099   7.533  0.0078 -0.1191  0.8475
  171SOPE  H15X19398   7.022   5.002   7.500 -0.7172  0.2641 -1.3619
  171SOPE  H15Y19399   6.966   5.104   7.643 -3.8535  0.7546  0.4411
  171SOPE  C31619400   7.090   5.205   7.494  0.0443 -0.0095  0.0364
  171SOPE  H16X19401   7.049   5.308   7.498 -0.6870 -0.3182  3.7735
  171SOPE  H16Y19402   7.110   5.200   7.384  1.3135  1.7224  0.1522
  171SOPE  C31719403   7.224   5.177   7.558 -0.3200  0.1254  0.0894
  171SOPE  H17X19404   7.263   5.083   7.514 -0.2732 -0.7937  2.0209
  171SOPE  H17Y19405   7.207   5.183   7.667 -0.3575  1.6164  0.0194
  171SOPE  C31819406   7.322   5.295   7.536  0.1713 -0.3631  0.9354
  171SOPE  H18X19407   7.333   5.298   7.426 -1.0001 -0.3622  0.8103
  171SOPE  H18Y19408   7.425   5.283   7.577 -0.1047 -0.3838  1.6456
  171SOPE  H18Z19409   7.279   5.394   7.563 -1.1633 -0.4592 -0.6850
  172SOPE     N19410   1.380   6.677   5.692  0.3751  0.1885  0.0655
  172SOPE   HN119411   1.297   6.726   5.733  1.5291  2.3813 -0.0323
  172SOPE   HN219412   1.404   6.713   5.598 -0.4220 -0.8784 -0.5584
  172SOPE   HN319413   1.354   6.578   5.679  0.9566  0.1757 -1.0569
  172SOPE   C1219414   1.496   6.692   5.786  0.4907  0.6206 -0.2390
  172SOPE  H12A19415   1.587   6.647   5.742  2.0636  1.4989  1.9050
  172SOPE  H12B19416   1.473   6.650   5.887  1.2602  4.9289  1.9735
  172SOPE   C1119417   1.525   6.833   5.809  0.0321 -0.4911  0.8735
  172SOPE  H11A19418   1.425   6.872   5.836  0.2212  1.3734 -0.9357
  172SOPE  H11B19419   1.548   6.884   5.713 -1.7995 -2.5459 -0.7715
  172SOPE     P19420   1.685   6.987   5.957  0.1604 -0.1214  0.2329
  172SOPE   O1319421   1.628   7.094   5.877  0.1404  0.2560  0.5368
  172SOPE   O1419422   1.832   6.955   5.958  0.2205 -0.4873  0.0652
  172SOPE   O1219423   1.614   6.856   5.922  0.6548  0.1997  0.5833
  172SOPE   O1119424   1.638   7.017   6.105  0.1975  0.1827 -0.1080
  172SOPE    C119425   1.526   6.948   6.160 -0.1824 -1.1765  0.2420
  172SOPE    HA19426   1.537   6.944   6.271 -0.0850  0.2930  0.3104
  172SOPE    HB19427   1.505   6.847   6.120 -0.5565 -0.4635 -1.4392
  172SOPE    C219428   1.400   7.037   6.127  0.1054  0.3750 -0.1768
  172SOPE    HS19429   1.394   7.057   6.018  1.0684  1.9094  0.0305
  172SOPE   O2119430   1.409   7.154   6.207 -0.1239 -0.0108 -0.1488
  172SOPE   C2119431   1.330   7.252   6.198  0.0423 -0.0936  0.2620
  172SOPE   O2219432   1.245   7.267   6.111 -0.8917  0.2016  0.1017
  172SOPE   C2219433   1.350   7.356   6.303  0.1071 -0.0183 -0.0652
  172SOPE   H2R19434   1.314   7.315   6.400  1.9891 -2.4963 -0.3152
  172SOPE   H2S19435   1.286   7.440   6.271  1.4492  0.5948 -1.2114
  172SOPE    C319436   1.267   6.955   6.162 -0.0165  0.4000 -0.4248
  172SOPE    HX19437   1.249   6.862   6.105 -1.9963  0.8901 -0.6829
  172SOPE    HY19438   1.173   7.013   6.148 -1.1569 -1.1829  0.3532
  172SOPE   O3119439   1.277   6.929   6.304  0.2275  0.1517 -0.0442
  172SOPE   C3119440   1.170   6.872   6.354  0.3515 -0.2427  0.4443
  172SOPE   O3219441   1.078   6.820   6.286 -0.2927  0.0992 -0.5878
  172SOPE   C3219442   1.173   6.881   6.507 -0.5609 -0.1658  0.4308
  172SOPE   H2X19443   1.205   6.984   6.535 -1.1531 -0.3945  2.0415
  172SOPE   H2Y19444   1.259   6.817   6.537  1.3778  2.8375  1.7578
  172SOPE   C2319445   1.495   7.412   6.305  0.0010  1.1654  0.1411
  172SOPE   H3R19446   1.522   7.470   6.214  1.5169  0.2804 -0.0006
  172SOPE   H3S19447   1.567   7.332   6.331 -1.1576 -0.7323 -2.0765
  172SOPE   C2419448   1.524   7.525   6.412 -0.3314 -1.1852  0.1485
  172SOPE   H4R19449   1.626   7.567   6.402 -1.6632  2.4565  0.6418
  172SOPE   H4S19450   1.450   7.606   6.399 -0.3906 -1.1392  0.7266
  172SOPE   C2519451   1.486   7.477   6.551  0.2817 -0.8873 -0.9404
  172SOPE   H5R19452   1.386   7.431   6.566  0.3783 -1.5116 -2.0549
  172SOPE   H5S19453   1.558   7.397   6.582  2.2468  0.3581 -2.0416
  172SOPE   C2619454   1.492   7.594   6.657  0.3126  0.0509  0.2638
  172SOPE   H6R19455   1.557   7.681   6.637  0.7003 -0.2690  0.1330
  172SOPE   H6S19456   1.396   7.650   6.660  0.4201  0.2120  1.9375
  172SOPE   C2719457   1.536   7.542   6.790  0.4197  0.6315  0.7726
  172SOPE   H7R19458   1.475   7.454   6.821 -0.7850  1.6744  1.4638
  172SOPE   H7S19459   1.644   7.515   6.783  0.3304  0.5160 -0.2427
  172SOPE   C2819460   1.508   7.652   6.897  0.1033  0.2398  0.5054
  172SOPE   H8R19461   1.530   7.748   6.846 -0.5882  0.3523  0.4114
  172SOPE   H8S19462   1.398   7.651   6.913 -0.3790  0.6100 -2.1740
  172SOPE   C2919463   1.606   7.633   7.014  0.1823  0.5903 -0.1268
  172SOPE   H9119464   1.713   7.615   6.994  0.1212  0.7917 -0.6505
  172SOPE  C21019465   1.564   7.620   7.140 -0.1377 -0.0723 -0.5924
  172SOPE  H10119466   1.644   7.612   7.215 -1.4240  1.1147  0.9708
  172SOPE  C21119467   1.427   7.624   7.192 -0.3323  0.1668  0.0596
  172SOPE  H11R19468   1.346   7.571   7.138 -1.0469  1.8460 -0.5593
  172SOPE  H11S19469   1.394   7.730   7.190 -0.4620  0.1344  0.3911
  172SOPE  C21219470   1.428   7.577   7.340 -0.3025  0.1256 -0.1661
  172SOPE  H12R19471   1.457   7.471   7.354 -0.2916  0.2429  0.7342
  172SOPE  H12S19472   1.324   7.568   7.379 -0.3669 -0.6270 -0.5030
  172SOPE  C21319473   1.521   7.658   7.431 -0.0133 -0.2144  0.1193
  172SOPE  H13R19474   1.489   7.761   7.460 -1.2637 -0.8007  0.9143
  172SOPE  H13S19475   1.626   7.672   7.397 -0.8983  3.5912 -1.5414
  172SOPE  C21419476   1.513   7.599   7.578 -0.2586  0.5561 -0.1285
  172SOPE  H14R19477   1.583   7.514   7.594  3.0543  3.1795  0.5143
  172SOPE  H14S19478   1.416   7.552   7.604  0.9574 -2.4284 -0.6049
  172SOPE  C21519479   1.556   7.703   7.681 -0.9076 -0.1124  0.0179
  172SOPE  H15R19480   1.549   7.650   7.779  1.6430  1.0563  0.9317
  172SOPE  H15S19481   1.486   7.788   7.683 -0.8376 -0.0468 -0.2843
  172SOPE  C21619482   1.705   7.745   7.670  0.4838  0.1878 -0.1220
  172SOPE  H16R19483   1.706   7.839   7.611  0.2291  0.1357 -0.2110
  172SOPE  H16S19484   1.760   7.669   7.611 -1.3260 -1.3144  0.0306
  172SOPE  C21719485   1.769   7.777   7.800 -0.5023 -0.0370 -0.0053
  172SOPE  H17R19486   1.868   7.822   7.777 -0.2411 -0.6258 -0.0496
  172SOPE  H17S19487   1.800   7.693   7.867  1.7859  2.6565  2.6117
  172SOPE  C21819488   1.698   7.875   7.899 -0.8062  0.0864  0.7627
  172SOPE  H18R19489   1.759   7.886   7.991 -0.7536 -0.3720  0.7836
  172SOPE  H18S19490   1.595   7.840   7.924 -0.3654 -1.4124  0.6032
  172SOPE  H18T19491   1.685   7.979   7.862 -0.1627  0.6853  2.1364
  172SOPE   C3319492   1.064   6.799   6.574 -0.0235 -0.3599 -0.1869
  172SOPE   H3X19493   1.097   6.797   6.681 -1.1021  3.0019  0.3517
  172SOPE   H3Y19494   1.049   6.693   6.546 -1.1966 -0.6813  1.4648
  172SOPE   C3419495   0.937   6.883   6.585  0.3866 -0.4120 -0.3209
  172SOPE   H4X19496   0.870   6.849   6.503  1.1894 -1.6309 -0.5089
  172SOPE   H4Y19497   0.960   6.991   6.588  3.1093 -0.9267  0.7306
  172SOPE   C3519498   0.866   6.861   6.724  0.1841  0.4684 -0.2208
  172SOPE   H5X19499   0.936   6.912   6.794  2.4693  0.6028 -2.4292
  172SOPE   H5Y19500   0.865   6.756   6.760 -0.4940  1.1233  1.8414
  172SOPE   C3619501   0.721   6.898   6.716  0.6694 -0.0810 -0.4207
  172SOPE   H6X19502   0.672   6.818   6.656 -2.4481  0.4357  1.1920
  172SOPE   H6Y19503   0.700   6.999   6.677 -0.7222 -0.4232 -0.6317
  172SOPE   C3719504   0.658   6.897   6.859  0.1839  0.1695  0.1833
  172SOPE   H7X19505   0.716   6.974   6.914  4.0835 -0.7429 -2.2485
  172SOPE   H7Y19506   0.675   6.799   6.909 -0.7480 -0.0103  0.1609
  172SOPE   C3819507   0.510   6.933   6.858 -0.9233  0.7615 -0.0597
  172SOPE   H8X19508   0.452   6.844   6.826 -1.1923  0.0908  2.0861
  172SOPE   H8Y19509   0.496   7.011   6.781 -2.1845  0.4865 -0.1297
  172SOPE   C3919510   0.467   6.995   6.998 -0.4930 -0.5552  0.1527
  172SOPE   H9X19511   0.508   6.930   7.078  1.7203 -0.1195 -0.5521
  172SOPE   H9Y19512   0.357   6.984   7.011 -0.2668 -0.8674  2.0397
  172SOPE  C31019513   0.510   7.143   7.029 -0.1349  0.4110 -0.3665
  172SOPE  H10X19514   0.428   7.208   6.993 -0.1115  0.8386  0.3187
  172SOPE  H10Y19515   0.604   7.155   6.971  0.8307  0.8449  1.2143
  172SOPE  C31119516   0.539   7.171   7.174  0.3409 -0.6945  0.0467
  172SOPE  H11X19517   0.619   7.099   7.205  1.1000 -0.0223 -0.3174
  172SOPE  H11Y19518   0.445   7.172   7.233 -0.7769  3.2791 -1.5223
  172SOPE  C31219519   0.592   7.317   7.192 -0.4341 -0.5558  0.3440
  172SOPE  H12X19520   0.513   7.394   7.179 -1.3466 -1.7257 -1.5840
  172SOPE  H12Y19521   0.660   7.330   7.106 -0.1734 -2.5112  0.1937
  172SOPE  C31319522   0.655   7.354   7.332 -0.1293  0.0512  0.3206
  172SOPE  H13X19523   0.573   7.353   7.407  0.2944 -0.1454  0.7854
  172SOPE  H13Y19524   0.716   7.446   7.332 -0.4246  0.2479  0.4264
  172SOPE  C31419525   0.758   7.248   7.373  0.4960  0.3876  0.6987
  172SOPE  H14X19526   0.823   7.232   7.284  0.6266 -2.5758  1.2265
  172SOPE  H14Y19527   0.705   7.152   7.386 -2.6115  1.9368  0.5144
  172SOPE  C31519528   0.841   7.276   7.499  0.2418 -0.0042  0.0471
  172SOPE  H15X19529   0.778   7.305   7.586 -0.7717  0.2773 -0.7545
  172SOPE  H15Y19530   0.895   7.370   7.476  0.1273  0.1650  0.4729
  172SOPE  C31619531   0.945   7.167   7.547 -0.1430 -0.0958  0.2812
  172SOPE  H16X19532   0.890   7.073   7.568  1.0276 -1.2676 -1.6177
  172SOPE  H16Y19533   0.982   7.204   7.645 -0.7275 -0.9830  0.8524
  172SOPE  C31719534   1.058   7.149   7.445  0.2598 -0.0615  0.0786
  172SOPE  H17X19535   1.092   7.250   7.413  1.8889 -0.5817  0.0978
  172SOPE  H17Y19536   1.020   7.110   7.348  0.7230  3.4967 -1.7060
  172SOPE  C31819537   1.175   7.068   7.497  0.7105  0.2989 -0.5091
  172SOPE  H18X19538   1.257   7.042   7.426  0.1583  0.4761 -1.2197
  172SOPE  H18Y19539   1.144   6.969   7.535  0.3313 -0.7813 -3.3449
  172SOPE  H18Z19540   1.233   7.115   7.580  0.2330 -2.1485  1.3102
  173SAPI   C1219541   3.036   4.759  10.250 -0.3230  1.0855  0.0620
  173SAPI    H219542   3.077   4.802  10.156 -2.8711 -0.3386 -1.8343
  173SAPI    O219543   2.980   4.639  10.198  0.1683 -0.1990 -0.8125
  173SAPI   HO219544   2.926   4.664  10.124 -0.3124 -0.6744 -0.6296
  173SAPI   C1319545   3.152   4.744  10.341 -0.1097  0.1969  0.3028
  173SAPI    H319546   3.193   4.845  10.361 -2.3846  1.4380 -0.9746
  173SAPI    O319547   3.238   4.652  10.278  0.1955  0.2954 -0.0737
  173SAPI   HO319548   3.206   4.563  10.293 -1.7343  1.3918  3.2912
  173SAPI   C1419549   3.105   4.688  10.474  0.1740 -0.3599  0.5243
  173SAPI    H419550   3.066   4.586  10.455 -0.2342 -0.1161  0.0355
  173SAPI    O419551   3.214   4.671  10.563  0.0215 -0.4039  0.0300
  173SAPI   HO419552   3.190   4.613  10.636 -2.9167 -0.3192 -0.7381
  173SAPI   C1519553   2.995   4.771  10.538 -0.1460 -0.1480 -0.8123
  173SAPI    H519554   3.041   4.857  10.591  1.9006 -1.9069  0.4216
  173SAPI    O519555   2.947   4.682  10.637 -0.7412 -0.2721  0.0048
  173SAPI   HO519556   2.916   4.742  10.706 -2.0568 -2.2402  1.2371
  173SAPI   C1619557   2.883   4.823  10.447  0.2302  0.0872 -0.4022
  173SAPI    H619558   2.812   4.737  10.444 -0.2917  0.3746  1.7556
  173SAPI    O619559   2.810   4.930  10.508  0.4279 -0.1841 -0.5634
  173SAPI   HO619560   2.768   4.896  10.588 -0.9175 -2.3736 -2.0584
  173SAPI   C1119561   2.927   4.856  10.305  0.0970  0.8416  0.0946
  173SAPI    H119562   2.989   4.947  10.319  4.4902 -2.0885  1.7395
  173SAPI     P19563   2.818   4.951  10.076 -0.0442 -0.0704 -0.2056
  173SAPI   O1319564   2.937   5.040  10.047 -0.4784  0.1268  0.1220
  173SAPI   O1419565   2.685   5.007  10.052 -0.1203 -0.5180 -0.0858
  173SAPI   O1219566   2.811   4.889  10.225 -0.2363 -0.0536 -0.0370
  173SAPI   O1119567   2.823   4.813   9.994 -1.2012  0.3698 -0.5871
  173SAPI    C119568   2.727   4.711  10.021  0.3323 -0.1015  0.1244
  173SAPI    HA19569   2.765   4.612  10.052 -2.0135 -0.6160  1.6219
  173SAPI    HB19570   2.646   4.735  10.093  0.6881  1.9092 -0.0812
  173SAPI    C219571   2.647   4.676   9.883  0.2458 -0.2842 -0.0954
  173SAPI    HS19572   2.581   4.590   9.907 -2.0146  1.4105  0.1367
  173SAPI   O2119573   2.744   4.662   9.778  0.0429 -0.3723  0.3836
  173SAPI   C2119574   2.808   4.548   9.773 -0.2966  0.1965 -0.1050
  173SAPI   O2219575   2.773   4.451   9.839  0.4675 -0.5354 -0.3934
  173SAPI   C2219576   2.930   4.554   9.683 -0.7069 -0.0476 -0.2921
  173SAPI   H2R19577   2.932   4.647   9.622 -1.7407 -0.1732 -0.5291
  173SAPI   H2S19578   3.023   4.544   9.744 -1.2102 -2.0871  0.2112
  173SAPI    C319579   2.540   4.788   9.841 -0.5801  0.6441 -0.5977
  173SAPI    HX19580   2.590   4.886   9.846  0.9088 -0.0802 -0.6696
  173SAPI    HY19581   2.455   4.795   9.913  0.1009 -0.0220  0.3015
  173SAPI   O3119582   2.495   4.778   9.701 -0.2992  0.4934 -0.5521
  173SAPI   C3119583   2.419   4.675   9.686 -0.5754 -0.2561  0.6544
  173SAPI   O3219584   2.374   4.600   9.769  0.1102  0.5999  0.3721
  173SAPI   C3219585   2.378   4.672   9.536 -0.2147 -0.0703  1.1490
  173SAPI   H2X19586   2.360   4.778   9.507 -1.2496 -0.5342  0.0105
  173SAPI   H2Y19587   2.280   4.619   9.542 -1.4029  2.1205  4.7942
  173SAPI   C2319588   2.928   4.434   9.577  0.3224 -0.2318 -0.4617
  173SAPI   H3R19589   2.893   4.344   9.632 -0.8169  2.3324  3.4792
  173SAPI   H3S19590   3.034   4.410   9.554  0.4632 -0.5652  0.4606
  173SAPI   C2419591   2.846   4.446   9.457 -0.0867  0.4040  0.3298
  173SAPI   H4R19592   2.879   4.524   9.385 -0.1363 -1.0537 -1.3534
  173SAPI   H4S19593   2.749   4.476   9.503 -0.4637 -0.7478  0.3274
  173SAPI   C2519594   2.834   4.318   9.370  1.0862  0.4697 -0.2387
  173SAPI   H5R19595   2.837   4.222   9.423 -0.6363 -0.5571 -1.8543
  173SAPI   C2619596   2.797   4.315   9.238 -0.9220  0.1438 -0.4340
  173SAPI   H6R19597   2.789   4.217   9.190  0.6365 -0.6921  0.8994
  173SAPI   C2719598   2.780   4.437   9.143  0.3109  0.4771  0.5815
  173SAPI   H7R19599   2.779   4.528   9.206 -0.2508 -0.2151  1.6008
  173SAPI   H7S19600   2.681   4.420   9.095  1.0726  0.6755 -1.1486
  173SAPI   C2819601   2.893   4.438   9.036  0.3633 -0.2370  0.3653
  173SAPI   H8R19602   2.981   4.375   9.056  0.1817 -0.7827 -0.4929
  173SAPI   C2919603   2.882   4.493   8.914 -0.3457  0.4035  0.4159
  173SAPI   H9R19604   2.962   4.507   8.839 -2.8960  2.6520 -2.1348
  173SAPI  C21019605   2.764   4.565   8.851 -0.1655  0.1634 -0.4126
  173SAPI  H10R19606   2.668   4.545   8.903 -1.2803  0.6593 -2.1841
  173SAPI  H10S19607   2.745   4.524   8.749 -2.0640 -1.0107  0.3649
  173SAPI  C21119608   2.789   4.713   8.853 -0.4026 -0.3552  0.0929
  173SAPI  H11R19609   2.847   4.745   8.940 -1.1605 -1.6505  1.1074
  173SAPI  C21219610   2.769   4.796   8.748  0.3679  0.5579  0.8478
  173SAPI  H12R19611   2.788   4.903   8.768 -1.9386  1.0436  0.7225
  173SAPI  C21319612   2.706   4.770   8.617  0.3781  0.5850 -0.1622
  173SAPI  H13R19613   2.684   4.865   8.565 -0.4455  1.0540  1.0082
  173SAPI  H13S19614   2.608   4.718   8.622  1.3686 -1.4415 -0.5336
  173SAPI  C21419615   2.802   4.683   8.529 -0.4993 -0.5322 -0.0477
  173SAPI  H14R19616   2.877   4.624   8.584  0.0801  1.3400  1.2656
  173SAPI  C21519617   2.814   4.681   8.398  0.4222  0.4316  0.3042
  173SAPI  H15R19618   2.890   4.620   8.347 -0.5916  1.1437 -2.1930
  173SAPI  C21619619   2.717   4.740   8.298  0.3682  0.5761 -0.1792
  173SAPI  H16R19620   2.757   4.840   8.269 -1.4904  1.8587  1.3843
  173SAPI  H16S19621   2.616   4.762   8.340  1.0107  0.2271  1.6046
  173SAPI  C21719622   2.690   4.651   8.172  0.4796 -0.0229 -0.0629
  173SAPI  H17R19623   2.668   4.547   8.205  2.0497 -0.4918 -0.3975
  173SAPI  H17S19624   2.791   4.651   8.126  2.4102  2.5831  3.5970
  173SAPI  C21819625   2.577   4.708   8.093  0.3921 -0.3380  0.3015
  173SAPI  H18R19626   2.492   4.739   8.156  1.1956  0.1602  1.1695
  173SAPI  H18S19627   2.536   4.624   8.033  2.3818 -0.6052 -0.7989
  173SAPI  C21919628   2.617   4.818   7.997 -0.3783  0.3377  0.3383
  173SAPI  H19R19629   2.702   4.784   7.934  0.2039 -0.5862  1.5832
  173SAPI  H19S19630   2.657   4.901   8.060  0.0654  1.5328 -1.4469
  173SAPI  C22019631   2.504   4.864   7.908 -0.0675  0.8148 -0.0171
  173SAPI  H20R19632   2.534   4.962   7.866  0.2164  0.7719  0.0814
  173SAPI  H20S19633   2.412   4.867   7.970 -0.1928 -1.2400 -0.0502
  173SAPI  H20T19634   2.492   4.790   7.826 -2.1551  0.9560  0.1098
  173SAPI   C3319635   2.481   4.593   9.445  0.3741 -0.5646 -0.4419
  173SAPI   H3X19636   2.501   4.495   9.492  0.1139 -0.7495 -0.7140
  173SAPI   H3Y19637   2.581   4.642   9.441  0.0778  0.0417 -0.6188
  173SAPI   C3419638   2.423   4.560   9.307 -0.4593  0.0646 -0.1967
  173SAPI   H4X19639   2.316   4.534   9.317 -0.4783 -0.5191 -1.7286
  173SAPI   H4Y19640   2.474   4.471   9.265  0.7151  1.0896 -1.0675
  173SAPI   C3519641   2.445   4.669   9.198 -0.4141 -0.2501 -0.5121
  173SAPI   H5X19642   2.552   4.696   9.189 -0.7384  0.6023 -2.2149
  173SAPI   H5Y19643   2.394   4.762   9.233 -1.4125 -1.0579  0.2538
  173SAPI   C3619644   2.383   4.631   9.062 -0.1173 -0.3728 -0.6492
  173SAPI   H6X19645   2.284   4.588   9.086 -0.7501  2.7194  3.2459
  173SAPI   H6Y19646   2.455   4.558   9.019  0.9439 -0.4299  1.1067
  173SAPI   C3719647   2.372   4.757   8.982 -0.1902  0.6462  0.0645
  173SAPI   H7X19648   2.460   4.823   8.994  0.4952 -0.2983  0.3064
  173SAPI   H7Y19649   2.281   4.816   9.007  0.1357  1.9325 -1.5776
  173SAPI   C3819650   2.366   4.723   8.831  0.0564 -0.4837  0.3134
  173SAPI   H8X19651   2.275   4.662   8.813 -0.4126  0.4740 -0.6686
  173SAPI   H8Y19652   2.451   4.666   8.787  0.8511  1.1772 -0.4163
  173SAPI   C3919653   2.361   4.850   8.752  0.0185 -0.1863 -0.2488
  173SAPI   H9X19654   2.458   4.901   8.774  0.8666 -1.7593 -0.2203
  173SAPI   H9Y19655   2.274   4.912   8.782 -0.5564 -1.4710  0.8452
  173SAPI  C31019656   2.357   4.845   8.598 -0.3080  0.3350  0.4062
  173SAPI  H10X19657   2.270   4.805   8.543 -0.8353  2.1849 -0.1628
  173SAPI  H10Y19658   2.428   4.765   8.568 -0.6925  0.2203 -0.2064
  173SAPI  C31119659   2.416   4.977   8.530  0.0661  0.4690  0.0737
  173SAPI  H11X19660   2.521   4.998   8.560  0.0889  0.1085  0.2469
  173SAPI  H11Y19661   2.346   5.056   8.565 -1.5055 -0.0921 -1.6509
  173SAPI  C31219662   2.409   4.982   8.378  0.2652 -0.0143 -0.4450
  173SAPI  H12X19663   2.318   4.930   8.341  1.3387 -2.6352  0.3250
  173SAPI  H12Y19664   2.497   4.924   8.342  1.1840  0.7727  0.4555
  173SAPI  C31319665   2.413   5.119   8.313  0.1908 -0.1485 -0.1490
  173SAPI  H13X19666   2.498   5.170   8.362 -0.0018 -0.1954  0.2409
  173SAPI  H13Y19667   2.324   5.177   8.345  0.2281  0.4282 -1.0878
  173SAPI  C31419668   2.424   5.125   8.159 -0.2147  0.0429 -0.5535
  173SAPI  H14X19669   2.396   5.023   8.125 -0.5630  0.0177 -0.2002
  173SAPI  H14Y19670   2.531   5.131   8.129  0.3534 -1.1275  1.0977
  173SAPI  C31519671   2.332   5.229   8.092  0.2855  0.5705 -0.5403
  173SAPI  H15X19672   2.235   5.238   8.144 -1.1295 -3.2739 -2.1511
  173SAPI  H15Y19673   2.300   5.183   7.996  2.7932 -1.8478 -0.3564
  173SAPI  C31619674   2.391   5.360   8.041  0.0256  0.4199 -0.2415
  173SAPI  H16X19675   2.305   5.417   8.001 -0.4268  1.9172  2.5578
  173SAPI  H16Y19676   2.470   5.341   7.966 -0.7331 -0.7626 -0.7599
  173SAPI  C31719677   2.447   5.454   8.147  0.0266 -0.0434 -0.5307
  173SAPI  H17X19678   2.530   5.394   8.190  1.6658  1.9549 -0.7141
  173SAPI  H17Y19679   2.367   5.469   8.223  1.3615 -0.2683  0.9702
  173SAPI  C31819680   2.504   5.592   8.090 -0.4532 -0.1027 -0.9379
  173SAPI  H18X19681   2.414   5.648   8.056 -1.0304 -0.5323 -0.1544
  173SAPI  H18Y19682   2.583   5.576   8.014 -0.6802 -2.0947 -0.8190
  173SAPI  H18Z19683   2.545   5.646   8.178 -0.2204  0.7552 -1.5631
  174SAPI   C1219684   4.271   5.826  10.284 -0.9633 -0.8132 -0.0929
  174SAPI    H219685   4.354   5.803  10.353  0.5297 -0.7530 -1.8117
  174SAPI    O219686   4.167   5.876  10.370 -0.1172 -0.0020 -0.6200
  174SAPI   HO219687   4.217   5.900  10.449 -0.9987 -2.4703  0.7773
  174SAPI   C1319688   4.331   5.929  10.192 -0.6191 -0.4438  0.6226
  174SAPI    H319689   4.392   5.870  10.120 -1.2378 -2.9705  2.0250
  174SAPI    O319690   4.415   6.021  10.257 -0.4791  0.1786 -0.0036
  174SAPI   HO319691   4.448   6.086  10.195 -1.1647  0.1353 -0.4217
  174SAPI   C1419692   4.222   5.996  10.110 -1.6628 -0.0948  0.6309
  174SAPI    H419693   4.169   6.054  10.188 -0.8383 -0.4136  1.4491
  174SAPI    O419694   4.268   6.102  10.026 -0.3079 -0.5265  0.1472
  174SAPI   HO419695   4.216   6.180  10.044  0.6733 -0.3966  3.0825
  174SAPI   C1519696   4.132   5.901  10.037  0.3481  0.1416  0.3416
  174SAPI    H519697   4.183   5.886   9.939 -0.7242 -1.4255 -0.0074
  174SAPI    O519698   3.995   5.948  10.020 -0.1209  0.0183 -0.3494
  174SAPI   HO519699   3.944   5.874   9.985 -2.1834  2.8937 -4.1681
  174SAPI   C1619700   4.133   5.752  10.093  0.0975 -0.0283  0.9590
  174SAPI    H619701   4.038   5.747  10.150 -0.2868 -0.2228  0.3035
  174SAPI    O619702   4.125   5.660   9.983  0.0853 -0.0821 -0.3438
  174SAPI   HO619703   4.152   5.575  10.018 -1.3301  0.4028  2.1519
  174SAPI   C1119704   4.235   5.710  10.191  0.0598 -0.1888  0.0156
  174SAPI    H119705   4.328   5.689  10.134 -1.0425  0.7142 -2.2015
  174SAPI     P19706   4.248   5.442  10.227  0.2948  0.2487  0.0609
  174SAPI   O1319707   4.203   5.355  10.337  0.5666  0.9236  0.5076
  174SAPI   O1419708   4.391   5.428  10.198  0.0408 -0.5562  0.0445
  174SAPI   O1219709   4.208   5.592  10.266 -0.4382  0.0709 -0.0153
  174SAPI   O1119710   4.172   5.411  10.097  0.1556  0.4426  0.0673
  174SAPI    C119711   4.172   5.280  10.032 -0.2924 -0.4212 -0.5328
  174SAPI    HA19712   4.258   5.215  10.056 -2.0505 -2.6489  0.0537
  174SAPI    HB19713   4.078   5.227  10.058 -1.3272  2.2562  1.7686
  174SAPI    C219714   4.171   5.303   9.872  0.4707 -0.3838  0.1009
  174SAPI    HS19715   4.167   5.197   9.841 -0.6440 -0.1836 -0.5196
  174SAPI   O2119716   4.292   5.373   9.819  0.8946  0.2356  0.3546
  174SAPI   C2119717   4.411   5.331   9.849  0.0627 -0.3429 -0.0795
  174SAPI   O2219718   4.443   5.220   9.884 -0.4647  0.2374 -0.4042
  174SAPI   C2219719   4.513   5.450   9.825 -0.4482  0.3947  0.3273
  174SAPI   H2R19720   4.544   5.473   9.930 -0.5555  1.8418  0.0699
  174SAPI   H2S19721   4.596   5.396   9.775 -0.7338 -0.1470  0.4279
  174SAPI    C319722   4.041   5.371   9.811 -0.1417  0.0639  0.4660
  174SAPI    HX19723   4.048   5.481   9.825 -1.8002  0.1732  0.7200
  174SAPI    HY19724   3.962   5.328   9.877  0.4209  0.0860  1.1630
  174SAPI   O3119725   4.012   5.332   9.670 -0.7039  0.1961 -0.2047
  174SAPI   C3119726   3.903   5.389   9.627  0.4923 -0.0545  0.0718
  174SAPI   O3219727   3.817   5.443   9.694  0.3247  0.4250  0.1484
  174SAPI   C3219728   3.905   5.366   9.485  0.8420  0.0020 -0.1357
  174SAPI   H2X19729   3.908   5.257   9.465 -0.6982 -0.0486 -0.1826
  174SAPI   H2Y19730   3.996   5.421   9.451 -0.9917  1.3339 -3.2460
  174SAPI   C2319731   4.468   5.578   9.756 -0.9811 -0.4956  0.1777
  174SAPI   H3R19732   4.547   5.656   9.771 -0.1512 -1.7137  2.7156
  174SAPI   H3S19733   4.375   5.620   9.799 -0.8388  2.4551 -2.0493
  174SAPI   C2419734   4.464   5.546   9.605  0.5103 -0.0608 -0.5508
  174SAPI   H4R19735   4.405   5.455   9.580 -0.6966  0.1996  1.1764
  174SAPI   H4S19736   4.568   5.523   9.573  0.2858 -0.6178 -0.9016
  174SAPI   C2519737   4.438   5.676   9.537  0.4193  0.3761  0.5194
  174SAPI   H5R19738   4.398   5.756   9.600 -0.2916 -0.1077  0.6998
  174SAPI   C2619739   4.466   5.722   9.411  0.3881  0.0805 -0.6963
  174SAPI   H6R19740   4.430   5.821   9.380 -0.8903  0.1751  0.9502
  174SAPI   C2719741   4.545   5.645   9.301 -0.5314 -0.5250  0.3101
  174SAPI   H7R19742   4.636   5.601   9.345 -0.1426 -1.5606 -1.4155
  174SAPI   H7S19743   4.581   5.717   9.224  0.7452 -0.5843  0.8413
  174SAPI   C2819744   4.466   5.539   9.232  0.0305 -0.1002  0.2985
  174SAPI   H8R19745   4.384   5.497   9.293 -1.5706  1.0714 -0.9669
  174SAPI   C2919746   4.492   5.476   9.119 -0.4727  0.7801 -0.0279
  174SAPI   H9R19747   4.426   5.391   9.093 -2.1639  1.7708  0.8733
  174SAPI  C21019748   4.603   5.509   9.023 -0.2992 -0.5898 -0.4361
  174SAPI  H10R19749   4.654   5.412   9.009  0.9975  0.0187 -0.0529
  174SAPI  H10S19750   4.673   5.582   9.070 -1.0495 -0.8198  1.1054
  174SAPI  C21119751   4.537   5.558   8.897  0.6817 -0.3641  0.8072
  174SAPI  H11R19752   4.458   5.634   8.904 -0.6881 -1.5757 -0.8311
  174SAPI  C21219753   4.596   5.530   8.779 -0.4818 -0.3860  0.0224
  174SAPI  H12R19754   4.542   5.562   8.689  1.2028  2.3834 -0.1048
  174SAPI  C21319755   4.715   5.439   8.742  0.5208 -0.0427  0.0265
  174SAPI  H13R19756   4.779   5.412   8.828 -1.4914 -2.1183  0.9895
  174SAPI  H13S19757   4.783   5.490   8.670 -0.6155 -0.1264 -1.1427
  174SAPI  C21419758   4.650   5.308   8.687 -0.0828 -0.1253 -0.1222
  174SAPI  H14R19759   4.561   5.280   8.746 -1.4695  0.9149 -1.6467
  174SAPI  C21519760   4.681   5.239   8.579 -0.6778  0.6141  0.3708
  174SAPI  H15R19761   4.639   5.140   8.558 -0.1295  0.2883  0.7547
  174SAPI  C21619762   4.807   5.275   8.503 -0.1342  0.3177  0.3282
  174SAPI  H16R19763   4.896   5.221   8.542 -0.2411 -0.1172 -0.0117
  174SAPI  H16S19764   4.826   5.384   8.497  1.9107  0.1502  2.4530
  174SAPI  C21719765   4.802   5.232   8.349 -0.2306 -0.9701 -0.1283
  174SAPI  H17R19766   4.725   5.294   8.297 -0.7374  0.7622  2.5110
  174SAPI  H17S19767   4.766   5.127   8.345 -2.5779 -0.3760  2.5067
  174SAPI  C21819768   4.940   5.240   8.278  0.6335 -0.1006 -0.2411
  174SAPI  H18R19769   4.919   5.238   8.169  0.7127 -1.0779 -0.2522
  174SAPI  H18S19770   5.000   5.151   8.308 -0.2362 -0.2955  1.0025
  174SAPI  C21919771   5.020   5.366   8.291  0.0595  0.0609 -0.1888
  174SAPI  H19R19772   5.052   5.371   8.398  2.3594  0.8980 -0.8606
  174SAPI  H19S19773   4.954   5.451   8.266 -0.9164 -0.5657  0.1899
  174SAPI  C22019774   5.147   5.371   8.211  0.5905  0.4758  0.1559
  174SAPI  H20R19775   5.126   5.363   8.102 -1.2177  0.6736  0.4623
  174SAPI  H20S19776   5.213   5.284   8.233  0.0153 -0.0291 -0.0834
  174SAPI  H20T19777   5.209   5.462   8.229  0.5222  0.5100  0.2155
  174SAPI   C3319778   3.782   5.429   9.418 -0.3010  0.0049 -0.3762
  174SAPI   H3X19779   3.763   5.531   9.459  0.2532  0.1400 -0.4421
  174SAPI   H3Y19780   3.708   5.357   9.457  0.2721 -0.7401 -0.6343
  174SAPI   C3419781   3.772   5.421   9.271 -0.5517  0.2227  0.4095
  174SAPI   H4X19782   3.858   5.469   9.220 -2.1133  1.4966 -1.1615
  174SAPI   H4Y19783   3.684   5.479   9.234  1.9875  3.0011 -1.7651
  174SAPI   C3519784   3.761   5.282   9.210  0.2087 -0.2872  0.0512
  174SAPI   H5X19785   3.659   5.247   9.236  0.1847 -0.3349 -0.1042
  174SAPI   H5Y19786   3.829   5.203   9.247 -1.5477 -1.1404  1.5997
  174SAPI   C3619787   3.779   5.297   9.054 -0.3477  0.1188 -0.7340
  174SAPI   H6X19788   3.775   5.189   9.028 -0.9385  0.4770 -2.2223
  174SAPI   H6Y19789   3.881   5.336   9.037  0.6510 -1.3137  1.4976
  174SAPI   C3719790   3.671   5.383   8.991  0.1100  0.2291  0.3824
  174SAPI   H7X19791   3.687   5.490   9.016  0.1193  0.0189  1.3489
  174SAPI   H7Y19792   3.570   5.362   9.032 -0.2187  0.9044 -0.0681
  174SAPI   C3819793   3.668   5.382   8.835  0.4178  0.1778  0.1726
  174SAPI   H8X19794   3.706   5.286   8.794  0.1912 -0.0063  0.3901
  174SAPI   H8Y19795   3.729   5.465   8.794  0.6840  0.4954  1.1772
  174SAPI   C3919796   3.522   5.380   8.785  0.2862 -0.1240 -0.7109
  174SAPI   H9X19797   3.456   5.459   8.827 -2.3027 -0.5908 -3.5692
  174SAPI   H9Y19798   3.483   5.282   8.820 -0.2995  0.4155  0.2132
  174SAPI  C31019799   3.515   5.394   8.636  0.2691 -0.0922  0.6902
  174SAPI  H10X19800   3.574   5.321   8.577  0.5785  1.2588 -0.7235
  174SAPI  H10Y19801   3.538   5.495   8.598  1.4032 -0.9182 -0.9126
  174SAPI  C31119802   3.365   5.372   8.600  0.0895 -0.7025 -0.5947
  174SAPI  H11X19803   3.312   5.453   8.654  0.9795  1.1055 -2.3374
  174SAPI  H11Y19804   3.331   5.274   8.642 -2.0706 -0.0217 -0.6166
  174SAPI  C31219805   3.323   5.380   8.452 -0.1902 -0.5112 -0.8642
  174SAPI  H12X19806   3.240   5.307   8.438  1.2357 -2.1939 -0.9416
  174SAPI  H12Y19807   3.406   5.357   8.381 -0.8394  0.8721 -2.1194
  174SAPI  C31319808   3.259   5.520   8.423 -0.7404  0.5861 -0.0956
  174SAPI  H13X19809   3.326   5.601   8.458 -0.5376  0.5848 -0.4794
  174SAPI  H13Y19810   3.170   5.524   8.489 -0.1752 -1.5315  0.8599
  174SAPI  C31419811   3.219   5.539   8.282  0.5436 -0.5037 -0.5919
  174SAPI  H14X19812   3.127   5.479   8.266 -0.5987  1.3150 -1.1910
  174SAPI  H14Y19813   3.299   5.503   8.214  0.9839 -1.9922  0.6649
  174SAPI  C31519814   3.189   5.684   8.241 -0.0394  0.2956  0.0472
  174SAPI  H15X19815   3.160   5.707   8.136 -0.7112  0.2348  0.2184
  174SAPI  H15Y19816   3.285   5.740   8.242 -0.7460  1.7103 -2.4660
  174SAPI  C31619817   3.088   5.764   8.334 -0.1228  0.0092  0.7339
  174SAPI  H16X19818   3.110   5.736   8.439 -0.2970  1.3450  1.1543
  174SAPI  H16Y19819   2.986   5.730   8.305 -0.7175  3.0626 -1.2916
  174SAPI  C31719820   3.113   5.916   8.306  0.1069 -0.0724 -0.1854
  174SAPI  H17X19821   3.096   5.942   8.199 -0.8753 -0.6658 -0.1928
  174SAPI  H17Y19822   3.222   5.925   8.324 -0.1272 -1.5076  2.4542
  174SAPI  C31819823   3.028   6.016   8.380 -0.1456  0.2130 -0.7607
  174SAPI  H18X19824   3.036   5.997   8.489 -3.6990 -0.7872 -0.5419
  174SAPI  H18Y19825   2.922   6.004   8.348 -0.4989 -0.1190  0.4835
  174SAPI  H18Z19826   3.066   6.116   8.351 -2.7499  1.2370 -0.9076
  175SAPI   C1219827   1.081   3.259   5.880  0.3828 -0.6148  0.1167
  175SAPI    H219828   1.114   3.280   5.984 -1.4335  0.0394  0.5992
  175SAPI    O219829   1.024   3.134   5.884 -0.3301 -0.2933  0.3069
  175SAPI   HO219830   1.088   3.063   5.873 -2.0184 -2.1922  1.8510
  175SAPI   C1319831   0.978   3.372   5.862 -0.0595  0.2938 -0.0871
  175SAPI    H319832   1.036   3.466   5.857  1.0572 -0.4138 -1.4195
  175SAPI    O319833   0.885   3.379   5.972  0.2074 -0.1501  0.2955
  175SAPI   HO319834   0.830   3.301   5.966 -0.2683  0.2866 -2.0076
  175SAPI   C1419835   0.909   3.341   5.733 -0.4021  1.0683  0.4612
  175SAPI    H419836   0.839   3.255   5.744  0.8481 -0.3774 -2.0325
  175SAPI    O419837   0.833   3.454   5.696 -0.1907 -0.3065  0.3412
  175SAPI   HO419838   0.793   3.497   5.771 -1.4309 -0.2971 -0.3047
  175SAPI   C1519839   1.001   3.288   5.618 -0.2102  0.5489  0.8088
  175SAPI    H519840   1.030   3.380   5.564  1.0686 -0.5189 -0.4218
  175SAPI    O519841   0.936   3.209   5.525  0.6439 -0.3071 -0.5622
  175SAPI   HO519842   0.873   3.263   5.477  0.9538  1.1686  0.5821
  175SAPI   C1619843   1.139   3.230   5.649  0.8847  0.4730  0.2921
  175SAPI    H619844   1.123   3.120   5.651  1.9863  0.2444 -1.2538
  175SAPI    O619845   1.232   3.261   5.542 -0.0178 -0.3736 -0.0357
  175SAPI   HO619846   1.314   3.298   5.576  0.3487 -1.5273  0.3749
  175SAPI   C1119847   1.194   3.271   5.787  0.4581  0.7577  1.1434
  175SAPI    H119848   1.219   3.379   5.783 -1.3233  1.2006  1.1993
  175SAPI     P19849   1.460   3.246   5.798 -0.0349  0.5708  0.1457
  175SAPI   O1319850   1.462   3.343   5.687 -0.2804 -0.3724 -0.0977
  175SAPI   O1419851   1.552   3.128   5.789 -0.0415 -0.3233  0.3461
  175SAPI   O1219852   1.300   3.183   5.827 -0.1898 -0.0446 -0.0838
  175SAPI   O1119853   1.493   3.324   5.928  1.0591  0.0134 -0.4490
  175SAPI    C119854   1.554   3.265   6.042  0.0045  0.6264 -0.2651
  175SAPI    HA19855   1.609   3.173   6.015  1.1894  0.2746  2.8983
  175SAPI    HB19856   1.644   3.321   6.076  1.0373 -0.6674 -0.7686
  175SAPI    C219857   1.459   3.241   6.162 -0.0817 -0.1258 -0.2293
  175SAPI    HS19858   1.391   3.164   6.122  0.0173 -0.0144 -0.6205
  175SAPI   O2119859   1.399   3.368   6.195 -0.0651 -0.3473 -0.1414
  175SAPI   C2119860   1.280   3.350   6.251  0.7036  0.2877  0.0295
  175SAPI   O2219861   1.221   3.247   6.261 -0.1256 -0.1900 -0.5138
  175SAPI   C2219862   1.230   3.489   6.296 -0.1647  0.7195 -0.9967
  175SAPI   H2R19863   1.302   3.531   6.370 -0.9366 -1.2855  1.0039
  175SAPI   H2S19864   1.234   3.548   6.202  1.0727  1.3261 -0.5983
  175SAPI    C319865   1.549   3.183   6.277  0.5138 -0.1009  0.0564
  175SAPI    HX19866   1.610   3.267   6.318 -0.2825  1.3987 -1.6603
  175SAPI    HY19867   1.632   3.118   6.242  0.7172  1.0363 -1.7363
  175SAPI   O3119868   1.477   3.130   6.389 -0.6319  0.4163 -0.2117
  175SAPI   C3119869   1.423   3.011   6.369  0.2405 -0.3495 -0.3160
  175SAPI   O3219870   1.424   2.944   6.263 -0.3895  0.0773 -0.4389
  175SAPI   C3219871   1.341   2.975   6.497 -0.4071 -1.2175 -0.5609
  175SAPI   H2X19872   1.271   3.059   6.519 -1.0733 -1.6034 -1.1733
  175SAPI   H2Y19873   1.417   2.983   6.578 -1.5321 -0.0747  0.4388
  175SAPI   C2319874   1.085   3.493   6.348  0.2935  0.0303  0.2793
  175SAPI   H3R19875   1.035   3.426   6.275  3.8568 -1.4784 -1.0143
  175SAPI   H3S19876   1.041   3.594   6.331  1.5689  0.4606 -0.5633
  175SAPI   C2419877   1.070   3.434   6.485 -0.3486  0.2834  0.5236
  175SAPI   H4R19878   1.123   3.337   6.475  2.8697  1.9274  0.0545
  175SAPI   H4S19879   0.963   3.410   6.499 -0.6715  0.2567 -1.6632
  175SAPI   C2519880   1.125   3.522   6.592  0.3016  0.0094  0.3456
  175SAPI   H5R19881   1.096   3.628   6.590 -1.9698 -0.5791 -0.6200
  175SAPI   C2619882   1.219   3.493   6.684 -0.1694  0.6367  0.0468
  175SAPI   H6R19883   1.234   3.568   6.762  0.2636 -0.6693  1.2618
  175SAPI   C2719884   1.261   3.351   6.716 -0.7362  0.0820 -0.0875
  175SAPI   H7R19885   1.189   3.281   6.668  0.0599  0.0421 -1.2714
  175SAPI   H7S19886   1.269   3.340   6.826  1.3322 -2.5244 -0.4080
  175SAPI   C2819887   1.391   3.300   6.669  0.7249  0.1718  0.2395
  175SAPI   H8R19888   1.450   3.358   6.595  1.0509  0.8626  1.0295
  175SAPI   C2919889   1.463   3.197   6.731  0.1477 -0.3328 -0.4266
  175SAPI   H9R19890   1.559   3.171   6.683 -0.9359 -0.6668 -2.5263
  175SAPI  C21019891   1.412   3.106   6.839 -0.3126 -0.5756  0.1928
  175SAPI  H10R19892   1.358   3.030   6.778 -0.1659 -0.4276 -0.1244
  175SAPI  H10S19893   1.334   3.168   6.887 -2.0140 -0.5934 -2.3449
  175SAPI  C21119894   1.502   3.030   6.932  0.1348  0.1744  0.3520
  175SAPI  H11R19895   1.541   2.938   6.887  0.2291  0.6825 -0.6234
  175SAPI  C21219896   1.533   3.075   7.057 -0.7107 -0.0149  0.1749
  175SAPI  H12R19897   1.594   3.012   7.124  1.8303  1.8045 -0.3035
  175SAPI  C21319898   1.490   3.201   7.122  0.1174  0.2168 -0.1864
  175SAPI  H13R19899   1.460   3.275   7.045  0.2386  1.7257  1.1528
  175SAPI  H13S19900   1.571   3.244   7.185 -0.7705 -0.8288  1.7874
  175SAPI  C21419901   1.365   3.180   7.208 -0.1211  0.7562 -0.5271
  175SAPI  H14R19902   1.286   3.125   7.155 -2.3880  2.8834  0.4429
  175SAPI  C21519903   1.338   3.224   7.329 -0.8112  0.3130 -0.1125
  175SAPI  H15R19904   1.247   3.190   7.382  0.7279 -2.1491  1.1551
  175SAPI  C21619905   1.429   3.305   7.414 -0.1149  0.0419 -0.3098
  175SAPI  H16R19906   1.537   3.301   7.386  0.0990 -0.4477  0.5359
  175SAPI  H16S19907   1.428   3.245   7.508 -0.1653 -2.0689 -1.5907
  175SAPI  C21719908   1.401   3.455   7.437  0.2075 -0.4037 -0.6313
  175SAPI  H17R19909   1.296   3.478   7.464  0.7463  0.0328  1.2190
  175SAPI  H17S19910   1.435   3.514   7.349 -1.6709  1.7368 -0.0171
  175SAPI  C21819911   1.481   3.507   7.559  0.0128  0.1339  0.0455
  175SAPI  H18R19912   1.587   3.514   7.524  0.8429 -4.5027  1.0135
  175SAPI  H18S19913   1.463   3.431   7.637  0.8450  0.6900  0.8033
  175SAPI  C21919914   1.447   3.647   7.600  0.1814 -0.0497 -0.5736
  175SAPI  H19R19915   1.338   3.645   7.621  0.2038  0.2808 -0.4102
  175SAPI  H19S19916   1.472   3.713   7.514  0.5050 -0.2557 -0.6400
  175SAPI  C22019917   1.523   3.686   7.722 -0.7376  0.4279 -0.1289
  175SAPI  H20R19918   1.503   3.618   7.808 -1.1121  0.3732 -0.2587
  175SAPI  H20S19919   1.496   3.790   7.752  0.2625  0.5332  0.4523
  175SAPI  H20T19920   1.631   3.691   7.698 -1.1106  1.1805 -1.7673
  175SAPI   C3319921   1.268   2.838   6.495 -0.7694  0.3018  0.5842
  175SAPI   H3X19922   1.322   2.763   6.432 -2.3789 -0.6431  0.2727
  175SAPI   H3Y19923   1.166   2.852   6.452 -0.7147 -0.0887  0.3151
  175SAPI   C3419924   1.253   2.770   6.621  0.1796  0.0520  0.4766
  175SAPI   H4X19925   1.348   2.766   6.679 -0.7220  0.6888  2.0555
  175SAPI   H4Y19926   1.220   2.664   6.617 -1.2858  0.5165 -0.2514
  175SAPI   C3519927   1.148   2.835   6.717 -0.4067  0.0205 -0.0540
  175SAPI   H5X19928   1.047   2.821   6.671 -0.4413 -0.8480  0.2696
  175SAPI   H5Y19929   1.157   2.945   6.726 -2.1903  0.3453 -1.4921
  175SAPI   C3619930   1.158   2.777   6.858 -0.7845 -0.5219 -0.3982
  175SAPI   H6X19931   1.261   2.762   6.898 -2.4198 -0.0984  4.7886
  175SAPI   H6Y19932   1.097   2.684   6.863 -2.3377  0.5235  2.0657
  175SAPI   C3719933   1.088   2.863   6.963 -0.2254  0.4480 -0.1321
  175SAPI   H7X19934   0.984   2.877   6.929 -0.6699  2.1823  1.7706
  175SAPI   H7Y19935   1.136   2.963   6.968  0.4746  0.1157 -0.0461
  175SAPI   C3819936   1.093   2.790   7.100  0.1511  0.0819  1.1555
  175SAPI   H8X19937   1.198   2.779   7.135  0.2955  0.0998  0.7333
  175SAPI   H8Y19938   1.053   2.688   7.080  2.1668 -0.5026 -0.2335
  175SAPI   C3919939   1.006   2.853   7.205 -0.1678  0.1895 -0.1481
  175SAPI   H9X19940   0.903   2.866   7.165  0.8361  2.0725 -2.3807
  175SAPI   H9Y19941   1.038   2.957   7.224  0.8076  0.7089 -3.8780
  175SAPI  C31019942   0.997   2.772   7.335 -0.3466 -0.2391 -0.6436
  175SAPI  H10X19943   1.001   2.662   7.322  0.4538 -0.0581 -2.1968
  175SAPI  H10Y19944   0.907   2.813   7.384  1.6804  0.6297  2.6317
  175SAPI  C31119945   1.100   2.812   7.441  0.8471  0.1122 -0.2869
  175SAPI  H11X19946   1.198   2.809   7.390  0.9511  1.1340 -0.1711
  175SAPI  H11Y19947   1.088   2.730   7.516  0.9733 -1.1639 -1.6179
  175SAPI  C31219948   1.071   2.948   7.505  0.2044  0.1140  0.1695
  175SAPI  H12X19949   0.962   2.958   7.522  0.3032  1.0868  0.3096
  175SAPI  H12Y19950   1.102   3.029   7.435  1.3219 -1.4958 -1.2951
  175SAPI  C31319951   1.138   2.955   7.641  0.3102 -0.0623  0.3224
  175SAPI  H13X19952   1.129   2.859   7.695  2.6231 -0.4746  0.0760
  175SAPI  H13Y19953   1.087   3.037   7.696 -1.0834 -0.2459 -0.6397
  175SAPI  C31419954   1.289   2.980   7.626 -0.1942  0.3918 -0.3795
  175SAPI  H14X19955   1.331   3.046   7.547  1.8289 -3.2203 -2.6017
  175SAPI  H14Y19956   1.318   2.879   7.591  0.0494  0.7132 -1.1360
  175SAPI  C31519957   1.357   3.016   7.758  0.0113  0.2802 -0.8505
  175SAPI  H15X19958   1.466   3.026   7.740 -0.1384  1.7710 -1.0654
  175SAPI  H15Y19959   1.348   2.934   7.833 -0.5408  0.9032 -0.2237
  175SAPI  C31619960   1.306   3.146   7.813 -0.3039 -0.5288  0.0357
  175SAPI  H16X19961   1.220   3.127   7.881 -0.3827 -0.4031 -0.0283
  175SAPI  H16Y19962   1.266   3.207   7.729  1.1685  1.0169  0.4142
  175SAPI  C31719963   1.395   3.248   7.885  0.0438 -0.6322 -0.1276
  175SAPI  H17X19964   1.337   3.342   7.870  0.5679 -0.2672  0.0897
  175SAPI  H17Y19965   1.495   3.271   7.841  0.2391 -1.6720 -0.2416
  175SAPI  C31819966   1.413   3.229   8.040  1.0261  0.2240  0.5993
  175SAPI  H18X19967   1.444   3.123   8.057  2.9124  0.8121  1.0456
  175SAPI  H18Y19968   1.316   3.253   8.088  0.7602 -0.4547  0.4102
  175SAPI  H18Z19969   1.489   3.296   8.085  0.5055  3.3397 -2.6932
  176SAPI   C1219970   1.007   1.657   5.457 -0.0584  0.3870 -0.9505
  176SAPI    H219971   1.102   1.699   5.496 -1.3409  2.6413 -0.0072
  176SAPI    O219972   0.926   1.749   5.381 -0.1872  0.0698 -0.3277
  176SAPI   HO219973   0.907   1.820   5.443  0.3606 -1.4072  1.6492
  176SAPI   C1319974   1.037   1.529   5.373  0.2016  0.3278 -0.7808
  176SAPI    H319975   1.109   1.471   5.435 -0.8149  0.1551  0.2628
  176SAPI    O319976   1.104   1.558   5.253 -0.3437  0.5107  0.2978
  176SAPI   HO319977   1.077   1.644   5.220 -0.3011 -0.1911 -1.6963
  176SAPI   C1419978   0.914   1.453   5.350  0.2785  0.2078  0.0642
  176SAPI    H419979   0.874   1.519   5.270  1.7681  1.2738  0.1435
  176SAPI    O419980   0.942   1.334   5.276 -0.1727  0.1739 -0.2313
  176SAPI   HO419981   0.938   1.360   5.183 -1.0357 -3.2992 -1.3228
  176SAPI   C1519982   0.804   1.435   5.462 -0.9309 -0.1880  0.4065
  176SAPI    H519983   0.838   1.346   5.517 -0.5440  0.6041  1.4675
  176SAPI    O519984   0.677   1.409   5.401 -0.4140 -0.5266 -0.6099
  176SAPI   HO519985   0.614   1.462   5.451 -0.6611 -2.0605  0.7720
  176SAPI   C1619986   0.798   1.553   5.558 -0.7123  0.5524 -0.1140
  176SAPI    H619987   0.724   1.624   5.516 -0.2851  0.0397 -1.8153
  176SAPI    O619988   0.747   1.504   5.681  0.0990  0.4812 -0.4426
  176SAPI   HO619989   0.792   1.530   5.761 -1.2968 -3.7056  2.0561
  176SAPI   C1119990   0.934   1.605   5.586  0.9289 -0.8418  0.1296
  176SAPI    H119991   0.991   1.518   5.626  0.5158 -1.3675 -0.4083
  176SAPI     P19992   0.963   1.722   5.835 -0.3545  0.1305  0.4734
  176SAPI   O1319993   0.907   1.598   5.893  0.5841 -0.5572  0.6867
  176SAPI   O1419994   0.928   1.853   5.897  0.0432 -0.3766  0.1694
  176SAPI   O1219995   0.933   1.723   5.675 -0.0124  0.0935  0.0139
  176SAPI   O1119996   1.120   1.711   5.831  0.5887  0.2376 -0.2457
  176SAPI    C119997   1.194   1.603   5.888  0.0279 -0.0970 -0.5239
  176SAPI    HA19998   1.134   1.511   5.903  0.3450 -0.1010  0.8451
  176SAPI    HB19999   1.290   1.592   5.833  1.7766 -2.1048  2.6479
  176SAPI    C220000   1.233   1.650   6.030  0.3331 -0.0605  0.2301
  176SAPI    HS20001   1.305   1.574   6.066  0.7439  0.8158  1.3074
  176SAPI   O2120002   1.116   1.658   6.117 -0.1601  0.2021 -0.0611
  176SAPI   C2120003   1.088   1.548   6.177  0.1994 -0.4440  0.5481
  176SAPI   O2220004   1.148   1.443   6.177 -0.3802  0.3849  0.4468
  176SAPI   C2220005   0.963   1.577   6.269 -1.1940 -0.0132  0.3715
  176SAPI   H2R20006   0.974   1.682   6.303  0.8955 -0.0940  0.0844
  176SAPI   H2S20007   0.881   1.586   6.195 -0.7380  2.8938  0.1261
  176SAPI    C320008   1.321   1.776   6.022  0.0391  0.1691  0.6501
  176SAPI    HX20009   1.250   1.859   6.007 -0.1109 -0.1879 -0.7132
  176SAPI    HY20010   1.392   1.757   5.939 -0.8052 -4.5720  0.6928
  176SAPI   O3120011   1.384   1.802   6.148  0.1767  0.4096 -0.5374
  176SAPI   C3120012   1.481   1.894   6.141 -0.7229 -0.0698 -0.3448
  176SAPI   O3220013   1.516   1.956   6.042  0.3396 -0.2731  0.4402
  176SAPI   C3220014   1.568   1.887   6.267  0.9740  0.1676  0.8346
  176SAPI   H2X20015   1.618   1.788   6.259  2.2464  0.9313 -3.5687
  176SAPI   H2Y20016   1.495   1.892   6.351 -0.2274 -0.4602 -0.1447
  176SAPI   C2320017   0.931   1.470   6.377  0.5115 -0.4569  0.3215
  176SAPI   H3R20018   1.026   1.474   6.433  0.1019 -0.6887  1.0434
  176SAPI   H3S20019   0.927   1.368   6.331 -1.3785 -0.6004  0.6906
  176SAPI   C2420020   0.788   1.485   6.441 -0.4444  0.2764 -0.8405
  176SAPI   H4R20021   0.768   1.413   6.523  2.1758  0.5309  0.1265
  176SAPI   H4S20022   0.713   1.460   6.363  0.2655 -0.7683 -1.2232
  176SAPI   C2520023   0.775   1.633   6.489 -0.6990 -0.2556  0.5217
  176SAPI   H5R20024   0.742   1.696   6.406  1.9206  0.4580 -0.0541
  176SAPI   C2620025   0.779   1.679   6.612 -0.0064 -0.1513  0.4230
  176SAPI   H6R20026   0.760   1.785   6.632 -0.4334  0.3199 -2.0487
  176SAPI   C2720027   0.819   1.602   6.733  0.0072  0.2683  0.4515
  176SAPI   H7R20028   0.916   1.650   6.756 -0.0789 -0.0571  1.5521
  176SAPI   H7S20029   0.840   1.494   6.714 -0.9239  0.0574  0.5825
  176SAPI   C2820030   0.718   1.611   6.842 -0.5026 -0.1155  0.1451
  176SAPI   H8R20031   0.635   1.540   6.832 -0.0273 -0.8151  1.0155
  176SAPI   C2920032   0.730   1.659   6.966 -0.8408 -0.2085  0.2838
  176SAPI   H9R20033   0.655   1.632   7.041 -0.3322  0.0463  0.8962
  176SAPI  C21020034   0.852   1.729   7.018  0.1620 -0.9155  0.0182
  176SAPI  H10R20035   0.835   1.826   7.069  2.2936 -0.7331  0.5069
  176SAPI  H10S20036   0.923   1.758   6.938 -0.1908 -0.2469 -0.0613
  176SAPI  C21120037   0.938   1.634   7.106  0.3758  0.0140 -0.2746
  176SAPI  H11R20038   0.992   1.560   7.046 -1.5844 -0.1951 -1.8951
  176SAPI  C21220039   0.941   1.630   7.241  0.0879 -0.0222 -0.4293
  176SAPI  H12R20040   1.000   1.550   7.288 -0.9457  0.2769  1.5092
  176SAPI  C21320041   0.880   1.721   7.343  0.2747 -0.5464  0.1489
  176SAPI  H13R20042   0.798   1.779   7.295 -1.2098 -2.0986  0.6613
  176SAPI  H13S20043   0.958   1.795   7.369  1.2219 -0.8886 -1.6051
  176SAPI  C21420044   0.825   1.638   7.461  0.2011 -1.0023  0.2346
  176SAPI  H14R20045   0.827   1.531   7.436  0.5483 -0.9027 -0.1815
  176SAPI  C21520046   0.810   1.682   7.586  0.7713 -0.1672 -0.0765
  176SAPI  H15R20047   0.769   1.610   7.659  0.1160 -0.4798 -0.7463
  176SAPI  C21620048   0.839   1.816   7.636 -0.2531  0.0118 -0.9965
  176SAPI  H16R20049   0.748   1.852   7.690  1.5662  2.4341  0.6622
  176SAPI  H16S20050   0.849   1.893   7.556 -0.8123  0.9360 -0.2008
  176SAPI  C21720051   0.963   1.828   7.724  0.2232 -0.6129 -0.3406
  176SAPI  H17R20052   0.984   1.936   7.742  0.5022 -0.4584 -1.4877
  176SAPI  H17S20053   1.053   1.768   7.698  0.5908 -0.1242 -0.2035
  176SAPI  C21820054   0.929   1.781   7.866  0.2813 -0.0466 -0.7480
  176SAPI  H18R20055   0.886   1.679   7.853  1.6806 -0.8405  0.5119
  176SAPI  H18S20056   0.858   1.845   7.922 -0.0786 -0.6838 -0.4686
  176SAPI  C21920057   1.050   1.757   7.953  0.5704  0.2274  0.2873
  176SAPI  H19R20058   1.101   1.854   7.973 -1.3756  1.9215 -2.2742
  176SAPI  H19S20059   1.112   1.689   7.890 -1.6653 -0.5029 -1.2670
  176SAPI  C22020060   1.014   1.681   8.085 -0.4559 -0.1061  0.0272
  176SAPI  H20R20061   1.089   1.667   8.166 -0.9969  0.5967  0.6738
  176SAPI  H20S20062   0.984   1.579   8.054 -0.6102  0.2193 -0.9345
  176SAPI  H20T20063   0.921   1.724   8.129 -1.0922 -1.7617  0.3541
  176SAPI   C3320064   1.676   1.995   6.279  0.0642 -0.2033  0.6696
  176SAPI   H3X20065   1.617   2.089   6.292 -0.7793 -0.2811 -2.0302
  176SAPI   H3Y20066   1.741   2.011   6.190 -0.9516 -1.5313 -0.3413
  176SAPI   C3420067   1.784   1.980   6.384 -0.1416  0.5945  0.5099
  176SAPI   H4X20068   1.847   2.071   6.392  1.0784 -0.2690  1.1144
  176SAPI   H4Y20069   1.857   1.904   6.348 -0.4387  0.8866 -0.7289
  176SAPI   C3520070   1.725   1.949   6.529 -0.3738 -0.5098 -0.0109
  176SAPI   H5X20071   1.709   1.839   6.528 -1.0747 -0.4092 -0.9496
  176SAPI   H5Y20072   1.626   1.994   6.552  0.1394  2.2898 -2.6319
  176SAPI   C3620073   1.834   1.977   6.631 -0.3482 -0.6871 -0.3888
  176SAPI   H6X20074   1.934   1.978   6.582  0.7335 -1.5707  1.6806
  176SAPI   H6Y20075   1.846   1.907   6.716  3.4376  2.7775  2.3993
  176SAPI   C3720076   1.802   2.109   6.708  0.5557  0.2668 -0.3356
  176SAPI   H7X20077   1.696   2.116   6.741  0.0844  0.8717 -1.8734
  176SAPI   H7Y20078   1.817   2.192   6.635 -1.1376  0.3206 -0.6879
  176SAPI   C3820079   1.884   2.123   6.830 -0.6291  0.7196  0.1718
  176SAPI   H8X20080   1.992   2.114   6.807 -0.3997  1.7202  0.7667
  176SAPI   H8Y20081   1.858   2.036   6.893 -1.4212 -0.1311 -1.2821
  176SAPI   C3920082   1.855   2.258   6.892 -0.0168  0.2219 -0.1794
  176SAPI   H9X20083   1.745   2.277   6.899 -0.2092 -1.1829  1.1617
  176SAPI   H9Y20084   1.899   2.336   6.826 -2.5923 -0.3526 -2.7758
  176SAPI  C31020085   1.917   2.268   7.030  0.6617 -0.0437 -0.2471
  176SAPI  H10X20086   2.028   2.274   7.029  0.6381  0.4634 -0.0588
  176SAPI  H10Y20087   1.893   2.180   7.093  0.8942 -0.2233 -0.4045
  176SAPI  C31120088   1.877   2.408   7.098 -0.2915  0.3899  0.5077
  176SAPI  H11X20089   1.770   2.409   7.128 -0.7043  0.1685 -0.8823
  176SAPI  H11Y20090   1.909   2.483   7.023  0.4568 -1.7851 -1.4719
  176SAPI  C31220091   1.966   2.422   7.225 -0.4116 -0.6169  0.1023
  176SAPI  H12X20092   2.069   2.410   7.185 -0.3476 -0.5155  0.2355
  176SAPI  H12Y20093   1.943   2.345   7.301 -0.7119 -1.8454 -1.1876
  176SAPI  C31320094   1.969   2.564   7.286  0.1131 -0.2932 -0.4292
  176SAPI  H13X20095   1.863   2.588   7.312 -0.3895 -0.1887 -2.4337
  176SAPI  H13Y20096   1.991   2.641   7.210 -0.2166 -0.9201 -1.1718
  176SAPI  C31420097   2.071   2.569   7.411  0.7755 -0.2295  0.1238
  176SAPI  H14X20098   2.091   2.678   7.425 -1.1851  0.0274  1.2313
  176SAPI  H14Y20099   2.161   2.519   7.370  2.0017  2.1661 -0.3206
  176SAPI  C31520100   2.031   2.493   7.534 -0.3953 -0.1787  0.0189
  176SAPI  H15X20101   2.013   2.386   7.510  0.5445  0.1281 -2.3454
  176SAPI  H15Y20102   1.946   2.541   7.587  0.0447 -1.2076  1.7317
  176SAPI  C31620103   2.145   2.488   7.632  0.0770 -0.3391 -0.8185
  176SAPI  H16X20104   2.178   2.591   7.658  1.0055 -1.0321  0.8591
  176SAPI  H16Y20105   2.233   2.439   7.584 -1.3321 -3.1141 -0.7066
  176SAPI  C31720106   2.106   2.411   7.757  0.5026 -0.2422  0.5268
  176SAPI  H17X20107   2.076   2.308   7.728 -1.2367  0.4433 -0.3054
  176SAPI  H17Y20108   2.016   2.461   7.799 -0.6500 -1.0071 -0.8812
  176SAPI  C31820109   2.218   2.401   7.865 -0.1762  0.9511 -0.5327
  176SAPI  H18X20110   2.182   2.364   7.964 -0.1904  1.3988 -0.3707
  176SAPI  H18Y20111   2.273   2.491   7.900 -2.6369  2.1212  0.5801
  176SAPI  H18Z20112   2.289   2.327   7.821 -2.2335 -2.8402  1.9876
  177SLPC     N20113   4.480   4.851  10.113  0.2340  0.7648 -0.2562
  177SLPC   C1320114   4.589   4.835  10.208  0.3432 -0.1615  0.2277
  177SLPC  H13A20115   4.627   4.932  10.238  0.4787  0.0451 -0.5880
  177SLPC  H13B20116   4.551   4.783  10.295  1.0066  1.9080  1.8558
  177SLPC  H13C20117   4.673   4.796  10.153 -0.3661  0.8224 -1.6218
  177SLPC   C1420118   4.370   4.902  10.203  0.4673 -0.5269 -0.6910
  177SLPC  H14A20119   4.387   5.008  10.208  0.2695 -0.5143 -0.3283
  177SLPC  H14B20120   4.273   4.895  10.156  0.1035 -0.3302  0.0232
  177SLPC  H14C20121   4.369   4.864  10.304 -2.1907  0.5286 -0.2477
  177SLPC   C1520122   4.428   4.715  10.074 -0.0591 -0.1177  0.4102
  177SLPC  H15A20123   4.507   4.663  10.021 -1.2239  0.4603 -2.0493
  177SLPC  H15B20124   4.389   4.659  10.157 -1.5412  2.2782  1.4330
  177SLPC  H15C20125   4.359   4.716   9.991  0.1751 -0.7148  0.1994
  177SLPC   C1220126   4.514   4.951  10.000  0.1248 -0.6143  0.0766
  177SLPC  H12A20127   4.536   5.047  10.045 -1.7984 -0.5551  0.9558
  177SLPC  H12B20128   4.420   4.971   9.952  0.6615 -0.2524 -0.8654
  177SLPC   C1120129   4.625   4.921   9.899 -0.0557  0.1366 -0.0663
  177SLPC  H11A20130   4.624   5.007   9.827 -1.2059 -0.8717 -1.3029
  177SLPC  H11B20131   4.613   4.829   9.839 -0.2732  0.1774 -0.0860
  177SLPC     P20132   4.884   4.841   9.964 -0.4273 -0.3898 -0.1366
  177SLPC   O1320133   4.990   4.933  10.018 -0.0052 -0.1892  0.6233
  177SLPC   O1420134   4.865   4.717  10.031  0.3866  0.5740 -0.5101
  177SLPC   O1220135   4.756   4.930   9.971  0.2561 -0.1151 -0.4704
  177SLPC   O1120136   4.904   4.820   9.806 -0.0284 -0.2472  0.4481
  177SLPC    C120137   4.962   4.909   9.709 -0.1880  0.6096 -0.7086
  177SLPC    HA20138   4.888   4.978   9.663 -0.4919 -0.1878 -1.4237
  177SLPC    HB20139   5.034   4.967   9.771 -0.2482 -1.0267  0.9867
  177SLPC    C220140   5.038   4.821   9.605 -0.9013 -0.2314  0.6638
  177SLPC    HS20141   5.127   4.793   9.665 -0.0488  1.5873  0.3322
  177SLPC   O2120142   5.084   4.907   9.501 -0.1141 -0.0350  1.0338
  177SLPC   C2120143   5.180   4.854   9.421  0.3981 -0.3983 -0.1563
  177SLPC   O2220144   5.228   4.745   9.425 -0.5540  0.1954 -0.7468
  177SLPC   C2220145   5.236   4.967   9.334  0.3658 -0.2034  0.6162
  177SLPC   H2R20146   5.183   5.060   9.366 -1.7375 -0.8773 -0.6947
  177SLPC   H2S20147   5.346   4.966   9.347  0.1942  1.1650  2.6564
  177SLPC    C320148   4.968   4.692   9.560  0.4281 -0.7872 -0.5690
  177SLPC    HX20149   4.935   4.638   9.651  0.8228 -1.3041 -0.7293
  177SLPC    HY20150   5.033   4.613   9.516 -0.7043 -2.4432  0.6224
  177SLPC   O3120151   4.868   4.716   9.463 -0.3845 -0.1146  0.0663
  177SLPC   C3120152   4.745   4.694   9.485 -0.0628  0.0451 -0.6691
  177SLPC   O3220153   4.693   4.637   9.577  0.0433  1.0712  0.0435
  177SLPC   C3220154   4.660   4.745   9.370  0.7793 -0.3693 -0.2769
  177SLPC   H2X20155   4.640   4.853   9.386  0.8568  0.0279 -2.5975
  177SLPC   H2Y20156   4.561   4.697   9.385  1.7800 -2.6433 -0.5050
  177SLPC   C2320157   5.224   4.943   9.178 -0.2402  0.1036 -0.8464
  177SLPC   H3R20158   5.253   5.038   9.128 -0.6918  2.0331  2.3191
  177SLPC   H3S20159   5.118   4.923   9.150 -0.1949 -0.9879 -0.2673
  177SLPC   C2420160   5.306   4.820   9.130 -0.6271  0.6154 -0.1198
  177SLPC   H4R20161   5.271   4.736   9.193 -0.2115 -0.3240 -1.1202
  177SLPC   H4S20162   5.413   4.836   9.155 -0.8500  0.3107  1.0642
  177SLPC   C2520163   5.281   4.773   8.982 -0.7007  0.0885 -0.6392
  177SLPC   H5R20164   5.172   4.762   8.965 -0.3765 -1.5926 -1.8939
  177SLPC   H5S20165   5.323   4.670   8.971  1.1946  0.3673  2.6734
  177SLPC   C2620166   5.353   4.868   8.887  0.1750 -0.1308  0.2811
  177SLPC   H6R20167   5.458   4.875   8.920 -0.3137  0.0110  1.8917
  177SLPC   H6S20168   5.310   4.970   8.900 -0.8493 -0.5732  0.5372
  177SLPC   C2720169   5.341   4.834   8.744  0.0800  0.5110 -0.0797
  177SLPC   H7R20170   5.235   4.804   8.733  0.8285 -2.3916 -0.2237
  177SLPC   H7S20171   5.383   4.732   8.749 -1.2633 -0.0944 -0.6379
  177SLPC   C2820172   5.392   4.929   8.648 -0.4949 -0.0128  0.5541
  177SLPC   H8R20173   5.495   4.960   8.677 -0.5453  1.8870 -1.1113
  177SLPC   H8S20174   5.334   5.023   8.661 -1.0495 -0.1845 -0.5898
  177SLPC   C2920175   5.382   4.897   8.501 -0.0077 -0.3629 -0.1010
  177SLPC   H9R20176   5.280   4.905   8.463  0.2553  1.4506 -0.5275
  177SLPC  C21020177   5.475   4.839   8.430 -0.0280 -0.0593  0.6003
  177SLPC  H10R20178   5.453   4.811   8.326  0.2071  0.5912  0.3667
  177SLPC  C21120179   5.612   4.804   8.482  0.3645  0.3988 -0.0028
  177SLPC  H11R20180   5.635   4.853   8.579 -0.5790  2.7517 -0.8978
  177SLPC  H11S20181   5.616   4.696   8.506  0.9952 -0.0776 -2.0486
  177SLPC  C21220182   5.718   4.827   8.373  0.4540 -0.2166 -0.0113
  177SLPC  H12R20183   5.761   4.928   8.375 -1.4398  0.6247 -0.2411
  177SLPC  C21320184   5.772   4.745   8.286 -0.0564  0.0931  0.0101
  177SLPC  H13R20185   5.839   4.789   8.211  2.6561 -0.2916  2.0350
  177SLPC  C21420186   5.750   4.597   8.275 -0.5530  0.9208  0.2498
  177SLPC  H14R20187   5.700   4.551   8.363 -0.5606 -0.1093 -0.2701
  177SLPC  H14S20188   5.847   4.546   8.255  0.7680  3.5771 -0.5324
  177SLPC  C21520189   5.673   4.572   8.142 -0.2190 -0.7802  0.2901
  177SLPC  H15R20190   5.716   4.631   8.059  0.8903  0.4573  1.6971
  177SLPC  H15S20191   5.577   4.628   8.152  1.5540  2.6271 -0.5572
  177SLPC  C21620192   5.659   4.419   8.111 -0.2560 -0.0716  0.9438
  177SLPC  H16R20193   5.586   4.380   8.185 -0.1501  0.1872  1.1885
  177SLPC  H16S20194   5.751   4.357   8.126  1.1203  1.7202  0.3010
  177SLPC  C21720195   5.613   4.387   7.966 -0.0475 -0.4465 -0.4585
  177SLPC  H17R20196   5.696   4.399   7.893 -1.2451  1.2046 -1.6315
  177SLPC  H17S20197   5.539   4.465   7.938  0.3996  0.3979  0.6510
  177SLPC  C21820198   5.548   4.249   7.944  0.7272 -0.1346  0.2200
  177SLPC  H18R20199   5.493   4.253   7.847  1.2695  1.4465 -0.0483
  177SLPC  H18S20200   5.468   4.235   8.020 -2.1225  1.5149 -2.2744
  177SLPC  H18T20201   5.608   4.155   7.952 -1.0849 -1.1866  2.8362
  177SLPC   C3320202   4.712   4.731   9.219 -0.0864 -0.1139  0.0364
  177SLPC   H3X20203   4.734   4.626   9.191  0.3491 -0.1646  0.5587
  177SLPC   H3Y20204   4.802   4.794   9.204 -2.5099  3.2466 -1.7621
  177SLPC   C3420205   4.618   4.779   9.114  0.1824  0.5598 -1.0646
  177SLPC   H4X20206   4.618   4.890   9.121 -1.0843  0.4930  0.7016
  177SLPC   H4Y20207   4.514   4.742   9.132  0.3187  0.8073  0.3778
  177SLPC   C3520208   4.662   4.742   8.969 -0.4683  0.0369  0.0817
  177SLPC   H5X20209   4.695   4.636   8.970 -0.8567 -0.0843  0.1227
  177SLPC   H5Y20210   4.751   4.803   8.944 -0.8241  1.0409  1.1350
  177SLPC   C3620211   4.556   4.750   8.863  0.1104 -0.6627  0.1166
  177SLPC   H6X20212   4.510   4.845   8.897 -1.0776 -1.8496  1.9937
  177SLPC   H6Y20213   4.477   4.675   8.887 -2.4883  2.2817  1.4141
  177SLPC   C3720214   4.613   4.759   8.726  0.7203 -0.0277 -0.1833
  177SLPC   H7X20215   4.605   4.658   8.681  0.7046  0.8811 -2.3421
  177SLPC   H7Y20216   4.720   4.787   8.725  1.5994 -2.8981  2.0145
  177SLPC   C3820217   4.542   4.863   8.634 -0.2061 -0.2819  0.4095
  177SLPC   H8X20218   4.559   4.968   8.665  1.0308  0.0026 -1.0947
  177SLPC   H8Y20219   4.435   4.846   8.660 -0.5352  0.6639 -0.2703
  177SLPC   C3920220   4.568   4.840   8.488  0.7309 -0.1842  0.3562
  177SLPC   H9X20221   4.565   4.734   8.457 -1.1737 -0.0054 -0.1750
  177SLPC   H9Y20222   4.663   4.889   8.459 -1.7008  3.6858 -2.0970
  177SLPC  C31020223   4.463   4.915   8.397 -0.2691  0.3390  0.4676
  177SLPC  H10X20224   4.482   5.024   8.406  0.7619  0.1757  0.4548
  177SLPC  H10Y20225   4.368   4.894   8.450 -0.0372 -1.8879  0.0691
  177SLPC  C31120226   4.470   4.878   8.250 -0.1999  0.1263 -0.1977
  177SLPC  H11X20227   4.378   4.901   8.192  1.8924  0.0114 -3.9275
  177SLPC  H11Y20228   4.492   4.769   8.249  2.1885  0.5228  1.0302
  177SLPC  C31220229   4.588   4.954   8.177 -0.3424  0.0441 -0.7939
  177SLPC  H12X20230   4.685   4.945   8.229 -0.9066  0.3965  0.3557
  177SLPC  H12Y20231   4.545   5.056   8.188 -1.3233 -0.6439  3.1195
  177SLPC  C31320232   4.609   4.922   8.034  0.7267  0.3520 -1.0787
  177SLPC  H13X20233   4.512   4.950   7.986  0.6624 -0.3282 -1.3504
  177SLPC  H13Y20234   4.623   4.812   8.031  0.1914  0.1882  0.9866
  177SLPC  C31420235   4.724   4.991   7.957 -0.2930  0.2156 -0.2928
  177SLPC  H14X20236   4.814   4.945   8.003 -0.3259 -0.5368 -0.9639
  177SLPC  H14Y20237   4.718   5.099   7.984 -0.5604 -0.2150  1.4613
  177SLPC  C31520238   4.729   4.977   7.807  0.1861 -0.1091  0.0668
  177SLPC  H15X20239   4.830   5.006   7.771 -0.6094  0.7398 -1.5346
  177SLPC  H15Y20240   4.656   5.048   7.764 -2.0669 -2.5301 -0.3189
  177SLPC  C31620241   4.700   4.840   7.757  0.5033 -0.7579  0.7116
  177SLPC  H16X20242   4.600   4.804   7.789  0.9081 -0.5678  2.2432
  177SLPC  H16Y20243   4.770   4.770   7.806  0.6992  0.3927  2.1293
  177SLPC  C31720244   4.726   4.811   7.603  0.9659  0.2491 -0.6095
  177SLPC  H17X20245   4.817   4.865   7.571  0.5642  0.7656 -0.8872
  177SLPC  H17Y20246   4.645   4.862   7.547  1.4312  1.5828 -0.1017
  177SLPC  C31820247   4.745   4.658   7.576  0.0137 -0.2061  0.2848
  177SLPC  H18X20248   4.745   4.631   7.468  0.4603 -0.3012  0.3067
  177SLPC  H18Y20249   4.664   4.602   7.627 -0.3904  1.8273  2.0551
  177SLPC  H18Z20250   4.841   4.630   7.623 -0.0979 -0.8696  0.1178
  178SLPC     N20251   2.131   1.987   9.962  0.1219 -0.4524 -0.4210
  178SLPC   C1320252   1.993   2.045   9.943  0.2481  0.2976  0.1996
  178SLPC  H13A20253   1.934   2.049  10.033 -0.1709 -1.3691  0.0308
  178SLPC  H13B20254   1.995   2.139   9.889  1.8133 -0.5217 -1.2776
  178SLPC  H13C20255   1.938   1.976   9.881  1.9466 -0.0918 -0.9455
  178SLPC   C1420256   2.111   1.861  10.029  0.3008  0.5363  0.4747
  178SLPC  H14A20257   2.028   1.808   9.984  0.3553  1.1621 -0.3844
  178SLPC  H14B20258   2.199   1.799  10.027  1.5332  2.1748 -3.2127
  178SLPC  H14C20259   2.074   1.872  10.130 -2.0375 -0.7834 -0.1520
  178SLPC   C1520260   2.201   2.078  10.061  0.6621 -0.0208 -0.0193
  178SLPC  H15A20261   2.204   2.176  10.016  0.3230  0.5459  1.1570
  178SLPC  H15B20262   2.144   2.081  10.153  3.5921 -0.7726  1.9950
  178SLPC  H15C20263   2.303   2.056  10.088  0.7229 -2.2153 -1.7561
  178SLPC   C1220264   2.200   1.973   9.820  0.1519  0.2026 -0.8432
  178SLPC  H12A20265   2.192   2.070   9.775  0.2296 -0.3406 -2.0638
  178SLPC  H12B20266   2.138   1.903   9.766 -0.7440  0.1970  0.1544
  178SLPC   C1120267   2.343   1.912   9.826  0.3647  0.7020 -0.1861
  178SLPC  H11A20268   2.385   1.963   9.915 -1.5214 -0.3613  1.4118
  178SLPC  H11B20269   2.404   1.926   9.735 -0.8859 -0.6515 -1.2956
  178SLPC     P20270   2.297   1.661   9.745  0.3492 -0.6111 -0.0885
  178SLPC   O1320271   2.316   1.529   9.807  0.0480  0.0568 -0.0801
  178SLPC   O1420272   2.163   1.691   9.688  0.6482 -0.1521  0.0383
  178SLPC   O1220273   2.333   1.767   9.858 -0.6677 -0.6921 -0.7734
  178SLPC   O1120274   2.400   1.682   9.635  0.6033 -0.8822 -0.1897
  178SLPC    C120275   2.535   1.682   9.668 -0.5284 -0.5060 -0.3516
  178SLPC    HA20276   2.576   1.784   9.663  0.4879 -0.8354  0.7146
  178SLPC    HB20277   2.565   1.650   9.770  0.6446  0.1782 -0.4740
  178SLPC    C220278   2.621   1.592   9.580  0.3943 -0.4461  0.2103
  178SLPC    HS20279   2.723   1.592   9.623  0.5440 -2.5341 -0.0556
  178SLPC   O2120280   2.632   1.633   9.439 -0.2518  0.0465  0.4299
  178SLPC   C2120281   2.714   1.731   9.412  0.7317  0.3665  0.2457
  178SLPC   O2220282   2.790   1.780   9.493  0.5882 -0.5409  0.0923
  178SLPC   C2220283   2.699   1.772   9.271 -0.1660  0.5301  0.5182
  178SLPC   H2R20284   2.619   1.711   9.224 -0.7700  1.2339  0.6013
  178SLPC   H2S20285   2.655   1.874   9.283  1.2681  1.2888 -0.4056
  178SLPC    C320286   2.575   1.440   9.595  0.3892 -0.2254  0.4741
  178SLPC    HX20287   2.488   1.434   9.526  0.0995  0.7440  0.7441
  178SLPC    HY20288   2.526   1.418   9.693 -0.7065 -3.2236 -0.6240
  178SLPC   O3120289   2.687   1.349   9.564  0.6390 -0.2272 -0.3831
  178SLPC   C3120290   2.672   1.228   9.618  0.6410  0.0441 -0.1822
  178SLPC   O3220291   2.586   1.201   9.700  0.6081 -0.0780 -0.5324
  178SLPC   C3220292   2.766   1.129   9.560  0.7191 -0.2067  0.2828
  178SLPC   H2X20293   2.842   1.096   9.634  1.4510  0.8919  0.0362
  178SLPC   H2Y20294   2.811   1.178   9.472  1.4537  1.4343  1.5321
  178SLPC   C2320295   2.830   1.765   9.191 -0.3177  0.4268  0.0890
  178SLPC   H3R20296   2.863   1.662   9.214  0.7604  0.8027  0.3191
  178SLPC   H3S20297   2.904   1.837   9.233 -0.7708 -0.5023  2.6768
  178SLPC   C2420298   2.808   1.789   9.042  0.1127  0.3756  0.1602
  178SLPC   H4R20299   2.902   1.766   8.986 -0.1108 -2.8786  0.9408
  178SLPC   H4S20300   2.774   1.891   9.017 -0.3874  0.2772  0.4423
  178SLPC   C2520301   2.709   1.696   8.968  0.3570 -0.1349  0.4078
  178SLPC   H5R20302   2.605   1.707   9.004 -0.3866 -2.2615 -0.9278
  178SLPC   H5S20303   2.744   1.592   8.987  0.5058 -0.5987 -2.0611
  178SLPC   C2620304   2.697   1.738   8.817  0.6600  0.2121  0.6435
  178SLPC   H6R20305   2.798   1.738   8.772  1.0344  0.5742  1.4659
  178SLPC   H6S20306   2.643   1.834   8.811 -1.4469 -0.9776 -0.7442
  178SLPC   C2720307   2.621   1.632   8.730 -0.9150  0.2419  0.7478
  178SLPC   H7R20308   2.543   1.587   8.796  0.0019 -2.1780  0.2997
  178SLPC   H7S20309   2.697   1.555   8.705 -2.8329 -1.0367 -1.6152
  178SLPC   C2820310   2.563   1.696   8.607 -0.5040 -0.2920  0.2638
  178SLPC   H8R20311   2.649   1.727   8.543  0.1768 -2.4258  0.0841
  178SLPC   H8S20312   2.507   1.792   8.607  0.2715  0.1734  0.8251
  178SLPC   C2920313   2.483   1.601   8.522 -0.5947  0.9612 -0.2615
  178SLPC   H9R20314   2.402   1.568   8.588  0.0240 -0.6985 -0.2827
  178SLPC  C21020315   2.497   1.548   8.400 -0.7210 -0.0596  0.5645
  178SLPC  H10R20316   2.436   1.459   8.378  0.8033 -1.7533  2.7359
  178SLPC  C21120317   2.613   1.582   8.301  0.3406  0.4448 -0.2753
  178SLPC  H11R20318   2.634   1.486   8.249 -1.9470 -0.5065  0.4001
  178SLPC  H11S20319   2.697   1.635   8.351  2.2116  0.6708 -3.3618
  178SLPC  C21220320   2.562   1.683   8.195 -0.2317 -0.5863  0.6331
  178SLPC  H12R20321   2.503   1.764   8.241  1.6835  0.6992  0.9523
  178SLPC  C21320322   2.605   1.691   8.066 -0.3869  0.1843  0.1887
  178SLPC  H13R20323   2.547   1.762   8.004  0.3565  1.8266  1.2983
  178SLPC  C21420324   2.689   1.597   7.982 -0.3492  0.4355 -0.3993
  178SLPC  H14R20325   2.754   1.529   8.041  1.6507  0.2966 -2.6051
  178SLPC  H14S20326   2.758   1.642   7.908  2.1386 -2.1563  0.1604
  178SLPC  C21520327   2.608   1.508   7.889  0.1157  1.1319  0.1903
  178SLPC  H15R20328   2.669   1.457   7.812 -1.3733  0.6198 -0.6821
  178SLPC  H15S20329   2.544   1.580   7.834  0.6011  0.3207 -1.4702
  178SLPC  C21620330   2.540   1.394   7.973  0.4302 -0.6334  0.2645
  178SLPC  H16R20331   2.457   1.445   8.027 -0.7941 -0.0191 -2.0705
  178SLPC  H16S20332   2.615   1.348   8.040  3.2812  1.2141 -1.4522
  178SLPC  C21720333   2.481   1.292   7.876  0.1971  0.1005  0.0050
  178SLPC  H17R20334   2.452   1.204   7.938  1.1030 -1.3585 -1.5517
  178SLPC  H17S20335   2.572   1.260   7.821 -0.3713 -0.1518 -0.8040
  178SLPC  C21820336   2.367   1.338   7.788 -0.5539 -0.7410 -0.4381
  178SLPC  H18R20337   2.371   1.449   7.791  0.7208 -0.7857  0.2938
  178SLPC  H18S20338   2.262   1.319   7.821 -0.7739  1.6875  0.4289
  178SLPC  H18T20339   2.372   1.303   7.683 -1.4484 -1.0883 -0.3753
  178SLPC   C3320340   2.689   0.998   9.513 -0.3729 -0.1450  0.2270
  178SLPC   H3X20341   2.645   0.948   9.602 -0.9302 -2.8528 -1.4746
  178SLPC   H3Y20342   2.749   0.916   9.468 -0.9837 -0.1309 -0.6365
  178SLPC   C3420343   2.569   1.023   9.417  0.4750  0.0924 -0.1681
  178SLPC   H4X20344   2.495   1.097   9.456 -1.0636 -2.5791  2.3836
  178SLPC   H4Y20345   2.506   0.932   9.410  0.9938 -0.3720  1.0474
  178SLPC   C3520346   2.616   1.050   9.267 -0.0159  0.0830  0.3405
  178SLPC   H5X20347   2.674   0.959   9.238  0.8013  0.6994 -0.0178
  178SLPC   H5Y20348   2.692   1.131   9.264 -2.3750  2.3739 -2.0485
  178SLPC   C3620349   2.509   1.068   9.160 -0.2195  0.0227  0.0425
  178SLPC   H6X20350   2.426   1.134   9.193 -0.5892 -0.6045  0.4009
  178SLPC   H6Y20351   2.465   0.968   9.142 -0.2581  0.4976 -2.9254
  178SLPC   C3720352   2.558   1.106   9.023  0.6486 -0.1886 -0.1331
  178SLPC   H7X20353   2.653   1.051   9.002  0.6190 -0.1404 -0.3965
  178SLPC   H7Y20354   2.596   1.210   9.026  1.4382 -0.3630 -2.0930
  178SLPC   C3820355   2.447   1.085   8.917  0.3796 -0.3503 -0.9861
  178SLPC   H8X20356   2.351   1.132   8.946 -0.0481 -0.8687 -1.5404
  178SLPC   H8Y20357   2.440   0.974   8.911  0.9426 -0.4998  0.6427
  178SLPC   C3920358   2.493   1.148   8.781  0.4880 -0.4406 -0.3092
  178SLPC   H9X20359   2.579   1.088   8.746  0.5436 -0.4136 -0.2198
  178SLPC   H9Y20360   2.531   1.250   8.804  0.6120  0.1329 -2.8206
  178SLPC  C31020361   2.388   1.146   8.671  0.4447  0.0642  0.1926
  178SLPC  H10X20362   2.297   1.191   8.716  1.6708  0.0540  2.9143
  178SLPC  H10Y20363   2.358   1.039   8.668  0.5222 -0.1443  3.2379
  178SLPC  C31120364   2.439   1.203   8.537 -0.1208 -0.3766  0.0674
  178SLPC  H11X20365   2.522   1.135   8.512 -0.5815 -0.4023 -1.4988
  178SLPC  H11Y20366   2.472   1.307   8.557 -2.6677  0.1312  2.3143
  178SLPC  C31220367   2.327   1.186   8.424 -0.8440  0.1291 -0.3262
  178SLPC  H12X20368   2.236   1.250   8.436 -1.5065 -0.7208 -0.7510
  178SLPC  H12Y20369   2.293   1.082   8.438  2.9451 -1.1169  0.7116
  178SLPC  C31320370   2.385   1.192   8.276  0.1808 -0.6418 -0.5962
  178SLPC  H13X20371   2.455   1.106   8.277  0.2302 -0.6192 -1.4873
  178SLPC  H13Y20372   2.427   1.288   8.241 -1.4146  0.0615 -0.6539
  178SLPC  C31420373   2.280   1.154   8.177  0.3314  0.1285  0.1353
  178SLPC  H14X20374   2.222   1.063   8.200  0.0812 -0.5059 -2.6280
  178SLPC  H14Y20375   2.326   1.128   8.079 -1.8865  2.6473 -1.7321
  178SLPC  C31520376   2.197   1.278   8.135  0.0935  0.1455  0.8042
  178SLPC  H15X20377   2.185   1.346   8.223 -1.9249  1.0455 -0.1068
  178SLPC  H15Y20378   2.246   1.341   8.058  1.8020  0.8554  2.3756
  178SLPC  C31620379   2.056   1.243   8.094  0.0509  0.5780 -0.3436
  178SLPC  H16X20380   2.004   1.197   8.182  2.8742  0.5168  1.4108
  178SLPC  H16Y20381   2.060   1.165   8.015  1.3132  1.5676 -1.2878
  178SLPC  C31720382   1.980   1.373   8.052  0.4900 -0.2696  0.0679
  178SLPC  H17X20383   2.038   1.406   7.963 -0.5047 -0.8990 -0.8319
  178SLPC  H17Y20384   1.977   1.455   8.127  0.0840 -1.7149  1.6802
  178SLPC  C31820385   1.834   1.356   8.013 -0.3160  0.6679 -1.1411
  178SLPC  H18X20386   1.775   1.400   8.097  0.9564 -1.1828  0.8276
  178SLPC  H18Y20387   1.806   1.249   8.008 -4.5051  1.6185 -2.3967
  178SLPC  H18Z20388   1.809   1.393   7.911  0.9065 -1.4847 -2.2828
  179SLPC     N20389   2.040   4.941  10.165 -0.3280  0.5522  0.0164
  179SLPC   C1320390   2.145   4.838  10.195 -0.1226 -0.1804 -0.7549
  179SLPC  H13A20391   2.139   4.748  10.136 -1.9902 -0.5324 -0.1114
  179SLPC  H13B20392   2.238   4.887  10.171 -0.5453 -0.5115 -3.3368
  179SLPC  H13C20393   2.134   4.808  10.298  1.1655  1.5734 -0.0493
  179SLPC   C1420394   2.064   5.067  10.242 -0.4150 -0.7257  0.2444
  179SLPC  H14A20395   2.162   5.099  10.212 -1.3440  1.1244 -1.0268
  179SLPC  H14B20396   2.004   5.153  10.211  1.0464 -0.0331 -0.7644
  179SLPC  H14C20397   2.069   5.060  10.350 -1.7599 -1.6462  0.2808
  179SLPC   C1520398   1.906   4.881  10.194  0.6295 -0.4835 -0.2994
  179SLPC  H15A20399   1.828   4.944  10.153  1.7650  0.9915 -0.2807
  179SLPC  H15B20400   1.884   4.781  10.162 -1.4650 -0.0838 -0.2431
  179SLPC  H15C20401   1.888   4.882  10.301 -1.9820  2.9326 -0.6207
  179SLPC   C1220402   2.047   4.958  10.010 -0.9202  0.1138 -0.3428
  179SLPC  H12A20403   1.985   5.034   9.965 -2.0918 -0.0809  0.8592
  179SLPC  H12B20404   2.012   4.863   9.974  0.8755 -1.2872  1.4082
  179SLPC   C1120405   2.193   4.974   9.956 -0.9201 -0.2727 -0.3000
  179SLPC  H11A20406   2.188   4.985   9.845  1.0511  1.5843 -0.2712
  179SLPC  H11B20407   2.245   4.877   9.971  0.4621  0.6616  1.2980
  179SLPC     P20408   2.289   5.221   9.967 -0.5941  0.2079  0.1587
  179SLPC   O1320409   2.159   5.288   9.978 -0.7907 -0.2964  0.2728
  179SLPC   O1420410   2.408   5.296  10.011 -0.0087  0.2062  0.0864
  179SLPC   O1220411   2.277   5.078  10.020 -0.1177 -0.5144  0.5102
  179SLPC   O1120412   2.312   5.202   9.810 -0.3068  0.6038  0.2162
  179SLPC    C120413   2.427   5.134   9.761  0.4404 -0.1712  0.2226
  179SLPC    HA20414   2.457   5.049   9.826  1.4246 -0.1457 -0.1782
  179SLPC    HB20415   2.397   5.084   9.666 -1.3194 -0.5850  0.9502
  179SLPC    C220416   2.547   5.234   9.741 -0.4293 -0.1008 -0.6171
  179SLPC    HS20417   2.554   5.300   9.830  3.1483  0.9966 -1.5677
  179SLPC   O2120418   2.523   5.320   9.620 -0.0061  0.0433 -0.1494
  179SLPC   C2120419   2.599   5.433   9.609 -0.0952  0.4715  0.3836
  179SLPC   O2220420   2.687   5.468   9.687 -0.4948 -0.2322 -0.1461
  179SLPC   C2220421   2.559   5.499   9.480  0.3044  0.3428  0.2313
  179SLPC   H2R20422   2.574   5.420   9.403  1.5384  1.2535 -0.5021
  179SLPC   H2S20423   2.452   5.526   9.495  0.3121  0.1956  0.5683
  179SLPC    C320424   2.685   5.161   9.734  0.0592 -0.3409 -0.8102
  179SLPC    HX20425   2.714   5.113   9.830 -1.3125  2.3422  1.1136
  179SLPC    HY20426   2.761   5.238   9.708  0.7362 -0.5986  0.3204
  179SLPC   O3120427   2.680   5.066   9.622  0.4686 -0.4341 -0.5551
  179SLPC   C3120428   2.791   4.992   9.612 -0.1518 -1.2982  0.3301
  179SLPC   O3220429   2.893   4.997   9.682  0.1043 -0.4359 -0.3635
  179SLPC   C3220430   2.767   4.894   9.499  0.3821 -0.2579 -0.0253
  179SLPC   H2X20431   2.691   4.938   9.431  2.3788  2.0552 -0.9239
  179SLPC   H2Y20432   2.722   4.807   9.551 -0.8509  1.4396  1.9223
  179SLPC   C2320433   2.647   5.619   9.446  0.0641 -0.3344  0.2007
  179SLPC   H3R20434   2.757   5.605   9.431  0.2440  0.6618  0.5215
  179SLPC   H3S20435   2.637   5.697   9.525  2.2021  1.3615 -1.0744
  179SLPC   C2420436   2.620   5.697   9.316  0.1328 -0.3502 -0.3918
  179SLPC   H4R20437   2.666   5.798   9.324 -0.1642 -0.3184  1.2066
  179SLPC   H4S20438   2.510   5.709   9.320  0.1199 -0.7052  0.5575
  179SLPC   C2520439   2.652   5.626   9.182 -0.0609  0.0678 -0.5245
  179SLPC   H5R20440   2.587   5.537   9.171 -1.8202  0.7997  2.7025
  179SLPC   H5S20441   2.758   5.592   9.187  0.1425  0.6972 -0.4492
  179SLPC   C2620442   2.633   5.716   9.061 -0.3776  0.7954 -0.3768
  179SLPC   H6R20443   2.634   5.825   9.086  1.2055  1.0840 -1.5428
  179SLPC   H6S20444   2.532   5.698   9.017 -0.7188  1.8944 -0.0793
  179SLPC   C2720445   2.750   5.697   8.961  0.5360 -0.9106  0.3352
  179SLPC   H7R20446   2.752   5.591   8.930  2.3481 -1.1453  1.0603
  179SLPC   H7S20447   2.843   5.735   9.010  0.0119  0.3884  0.3523
  179SLPC   C2820448   2.720   5.784   8.833 -0.1097 -0.6423 -0.6518
  179SLPC   H8R20449   2.748   5.889   8.856  0.2339 -0.8054 -0.3287
  179SLPC   H8S20450   2.609   5.783   8.823 -0.1826 -0.6956  0.1299
  179SLPC   C2920451   2.789   5.737   8.708 -0.1742 -0.5852  1.3351
  179SLPC   H9R20452   2.898   5.749   8.709 -0.0523 -0.0289 -2.7345
  179SLPC  C21020453   2.729   5.686   8.592  0.3675 -0.1443  0.4897
  179SLPC  H10R20454   2.795   5.660   8.508 -0.8327  0.6472 -0.7374
  179SLPC  C21120455   2.583   5.681   8.560 -0.0384 -0.9505 -0.0457
  179SLPC  H11R20456   2.555   5.750   8.478 -0.1708 -0.6056  0.2864
  179SLPC  H11S20457   2.525   5.723   8.645 -0.6285 -1.4536 -0.1968
  179SLPC  C21220458   2.525   5.554   8.497 -1.4233  0.8435  0.3986
  179SLPC  H12R20459   2.514   5.555   8.388  1.9837 -0.0967 -0.0950
  179SLPC  C21320460   2.470   5.454   8.572 -0.5058  0.4154  0.0773
  179SLPC  H13R20461   2.447   5.363   8.515 -0.5797 -1.9759  3.6421
  179SLPC  C21420462   2.476   5.449   8.723  0.3920 -0.0580 -0.2212
  179SLPC  H14R20463   2.382   5.493   8.763  2.6833  2.3272  3.1228
  179SLPC  H14S20464   2.561   5.510   8.762  0.2855 -0.7555  1.1475
  179SLPC  C21520465   2.503   5.302   8.772  0.1369  0.9566 -0.2015
  179SLPC  H15R20466   2.598   5.265   8.727 -1.0580  0.9702 -2.9431
  179SLPC  H15S20467   2.420   5.234   8.741  0.9334 -0.1748  0.0933
  179SLPC  C21620468   2.518   5.290   8.925  0.2252  0.4194  0.2062
  179SLPC  H16R20469   2.422   5.322   8.970  0.1015  0.6794 -0.2424
  179SLPC  H16S20470   2.588   5.370   8.959  1.4099 -1.1537  1.6434
  179SLPC  C21720471   2.567   5.153   8.973  0.5981 -0.2543  0.1884
  179SLPC  H17R20472   2.671   5.150   8.933 -0.0057 -1.1330 -1.4217
  179SLPC  H17S20473   2.506   5.076   8.920  1.5467 -1.2797  0.5383
  179SLPC  C21820474   2.570   5.132   9.128  0.3601 -0.4641  0.4578
  179SLPC  H18R20475   2.602   5.028   9.153 -0.6535 -0.2878  2.7268
  179SLPC  H18S20476   2.468   5.136   9.171 -0.4581  1.8678 -1.4679
  179SLPC  H18T20477   2.643   5.205   9.167  0.3430  0.6037 -1.4028
  179SLPC   C3320478   2.908   4.872   9.435 -0.5580  0.1754  0.1701
  179SLPC   H3X20479   2.888   4.795   9.357 -2.3794  2.3054 -1.6365
  179SLPC   H3Y20480   2.983   4.851   9.514 -0.5336 -0.1984  0.0474
  179SLPC   C3420481   2.959   4.993   9.353 -0.2693  0.4070  0.3349
  179SLPC   H4X20482   2.993   5.055   9.438  0.9206 -0.3878  0.4607
  179SLPC   H4Y20483   2.873   5.046   9.307 -2.3044 -1.9815  1.1447
  179SLPC   C3520484   3.090   4.972   9.262 -0.2830  0.0116  0.7906
  179SLPC   H5X20485   3.178   4.943   9.324  0.0268 -0.0648  0.3216
  179SLPC   H5Y20486   3.116   5.075   9.228  0.7448  0.0212  1.5448
  179SLPC   C3620487   3.075   4.888   9.134 -0.0648  0.3645  0.2483
  179SLPC   H6X20488   2.986   4.933   9.083 -2.5118 -3.8871  0.2951
  179SLPC   H6Y20489   3.038   4.785   9.153  3.3238 -1.1266 -0.5841
  179SLPC   C3720490   3.197   4.863   9.049  0.5714 -0.6118 -0.4313
  179SLPC   H7X20491   3.270   4.805   9.110  0.4514 -0.9130 -0.5720
  179SLPC   H7Y20492   3.252   4.958   9.033 -0.4602  0.0982  0.1434
  179SLPC   C3820493   3.176   4.780   8.922  0.0145 -0.1202 -0.0074
  179SLPC   H8X20494   3.074   4.738   8.910  0.3575 -1.4127  1.4226
  179SLPC   H8Y20495   3.244   4.693   8.929 -0.6963 -0.7963 -1.0786
  179SLPC   C3920496   3.217   4.867   8.799 -0.1722  0.5385  0.4817
  179SLPC   H9X20497   3.321   4.901   8.818  1.3087 -1.8371 -2.6122
  179SLPC   H9Y20498   3.156   4.960   8.790 -1.7822 -0.6869 -2.8448
  179SLPC  C31020499   3.213   4.788   8.670  0.1499 -0.0558 -0.0361
  179SLPC  H10X20500   3.106   4.775   8.645 -0.8348 -0.4313  3.7236
  179SLPC  H10Y20501   3.257   4.687   8.688  0.0164  0.2146  2.1453
  179SLPC  C31120502   3.268   4.854   8.543 -0.3380 -0.7128 -0.9694
  179SLPC  H11X20503   3.378   4.844   8.536 -0.2857 -1.1219  0.2384
  179SLPC  H11Y20504   3.252   4.962   8.561 -0.9268 -0.9631  0.0958
  179SLPC  C31220505   3.205   4.796   8.419  0.2022 -0.3764 -0.8649
  179SLPC  H12X20506   3.096   4.782   8.433  0.4133 -0.8702  0.3527
  179SLPC  H12Y20507   3.244   4.694   8.398 -0.0492 -0.1283 -2.6768
  179SLPC  C31320508   3.230   4.880   8.294 -0.8708 -0.0737  0.0617
  179SLPC  H13X20509   3.337   4.875   8.265 -1.0245  4.2546 -1.9919
  179SLPC  H13Y20510   3.207   4.987   8.308  3.4486  0.9521  0.7762
  179SLPC  C31420511   3.144   4.828   8.176 -0.3942 -0.4790  0.5514
  179SLPC  H14X20512   3.036   4.856   8.182  0.0572  1.8425 -1.0377
  179SLPC  H14Y20513   3.149   4.717   8.172  1.8597 -0.3879 -0.0434
  179SLPC  C31520514   3.190   4.881   8.033  0.6633 -0.5826 -0.0587
  179SLPC  H15X20515   3.294   4.846   8.018  1.2044  0.4100  1.1524
  179SLPC  H15Y20516   3.183   4.992   8.031 -0.6630 -0.5574  2.1518
  179SLPC  C31620517   3.093   4.835   7.922  0.0778  0.0001  0.7330
  179SLPC  H16X20518   2.998   4.887   7.947  0.3346  0.4349  0.8229
  179SLPC  H16Y20519   3.078   4.727   7.944  0.2293 -0.0420  0.6343
  179SLPC  C31720520   3.129   4.877   7.776 -0.8109 -0.2279 -0.2535
  179SLPC  H17X20521   3.125   4.988   7.771  1.4499 -0.1541 -1.2660
  179SLPC  H17Y20522   3.037   4.837   7.727 -1.0520 -1.1348  0.8793
  179SLPC  C31820523   3.261   4.834   7.717  0.1753 -0.3017 -0.0383
  179SLPC  H18X20524   3.344   4.871   7.781 -1.2757  0.6823  1.3434
  179SLPC  H18Y20525   3.291   4.876   7.618  2.1771 -0.3045  0.5317
  179SLPC  H18Z20526   3.269   4.724   7.722  0.2649 -0.2948 -0.0314
  180SLPC     N20527   5.320   1.679   9.752  0.4490  0.3056 -0.0821
  180SLPC   C1320528   5.456   1.728   9.780 -0.0185 -0.3086 -0.0950
  180SLPC  H13A20529   5.479   1.718   9.885 -2.2495  2.1771  0.7552
  180SLPC  H13B20530   5.531   1.681   9.719  0.8607  2.2912 -1.1571
  180SLPC  H13C20531   5.462   1.833   9.757  0.0134  0.2910  2.3638
  180SLPC   C1420532   5.223   1.772   9.816  0.3946  0.0142 -0.4261
  180SLPC  H14A20533   5.232   1.776   9.923 -3.5299 -0.4334  0.0687
  180SLPC  H14B20534   5.224   1.859   9.751 -0.2481 -1.0487 -1.9214
  180SLPC  H14C20535   5.120   1.742   9.829  0.3697  1.0351  2.5158
  180SLPC   C1520536   5.308   1.543   9.821  0.4780 -0.2201  0.0692
  180SLPC  H15A20537   5.209   1.500   9.817  1.1341 -1.7241 -2.5281
  180SLPC  H15B20538   5.395   1.479   9.817 -0.3439 -1.4327  0.9924
  180SLPC  H15C20539   5.319   1.571   9.925 -0.5341 -1.5446  0.5560
  180SLPC   C1220540   5.291   1.672   9.604 -0.3230 -0.5809  0.0240
  180SLPC  H12A20541   5.192   1.630   9.602 -0.4024 -0.4418  0.9647
  180SLPC  H12B20542   5.363   1.613   9.548 -1.7584  0.0802 -2.7096
  180SLPC   C1120543   5.290   1.795   9.513  0.0194 -0.6130  0.2267
  180SLPC  H11A20544   5.230   1.874   9.563 -0.7101 -1.1338  0.1885
  180SLPC  H11B20545   5.244   1.768   9.415  0.7868 -2.2661  0.2953
  180SLPC     P20546   5.528   1.782   9.397 -0.2466  0.2269  0.2726
  180SLPC   O1320547   5.637   1.886   9.369 -0.1744  0.5755 -0.3414
  180SLPC   O1420548   5.578   1.652   9.443 -0.0014 -0.3233  0.0985
  180SLPC   O1220549   5.423   1.843   9.501 -0.6659 -0.3528 -0.2303
  180SLPC   O1120550   5.445   1.771   9.260 -0.0673  0.0956 -0.1625
  180SLPC    C120551   5.434   1.645   9.197  0.4990  0.0914 -0.0001
  180SLPC    HA20552   5.530   1.597   9.171 -1.1815 -3.0414 -0.9879
  180SLPC    HB20553   5.379   1.574   9.263 -0.7422  0.0360 -1.0465
  180SLPC    C220554   5.358   1.655   9.062  0.0643  0.0272 -0.6761
  180SLPC    HS20555   5.367   1.572   8.988 -2.7573  0.9688 -2.2338
  180SLPC   O2120556   5.382   1.775   8.987  0.2779 -0.1551 -0.3215
  180SLPC   C2120557   5.489   1.767   8.912 -0.2480  0.9888 -0.1584
  180SLPC   O2220558   5.561   1.672   8.899  0.6458  0.3414  0.1866
  180SLPC   C2220559   5.506   1.897   8.836 -0.3412  0.4603  0.1284
  180SLPC   H2R20560   5.483   1.982   8.904  1.0816  1.3056 -0.3928
  180SLPC   H2S20561   5.614   1.902   8.809 -0.2704  0.1549  0.3515
  180SLPC    C320562   5.207   1.647   9.103  0.5232  0.2250 -0.3704
  180SLPC    HX20563   5.180   1.730   9.172  1.2509  0.6765 -0.6048
  180SLPC    HY20564   5.188   1.550   9.153 -0.1982  0.7346  0.3655
  180SLPC   O3120565   5.122   1.650   8.984 -0.2823  0.0962 -0.1562
  180SLPC   C3120566   5.007   1.710   8.988 -0.6271 -0.2046  0.6310
  180SLPC   O3220567   4.959   1.763   9.088  0.2869  0.2846  0.6138
  180SLPC   C3220568   4.948   1.707   8.842  0.6903  0.5176 -0.2724
  180SLPC   H2X20569   4.964   1.603   8.807 -0.7410 -0.0150  0.5641
  180SLPC   H2Y20570   4.998   1.777   8.772 -1.1277  1.6366 -0.5207
  180SLPC   C2320571   5.419   1.899   8.707 -0.3368  0.6160 -0.1713
  180SLPC   H3R20572   5.311   1.892   8.734 -0.1522  0.5203  0.5591
  180SLPC   H3S20573   5.440   1.811   8.643  0.0200  0.6182 -0.0551
  180SLPC   C2420574   5.448   2.017   8.616 -0.2372  0.8489  0.1599
  180SLPC   H4R20575   5.552   2.000   8.581  0.6407  2.5791  1.7724
  180SLPC   H4S20576   5.450   2.107   8.681 -0.1251 -0.4886  2.1149
  180SLPC   C2520577   5.355   2.030   8.494  0.0640 -0.0606 -1.1012
  180SLPC   H5R20578   5.249   2.032   8.527  0.2310 -0.9887 -0.4593
  180SLPC   H5S20579   5.348   1.930   8.445  0.5078  0.0065 -1.3040
  180SLPC   C2620580   5.393   2.125   8.390 -0.1172 -0.3333  0.0388
  180SLPC   H6R20581   5.347   2.217   8.431  1.9118  0.7450 -0.0189
  180SLPC   H6S20582   5.336   2.096   8.298  2.0916  0.2448 -1.5888
  180SLPC   C2720583   5.539   2.145   8.357  0.4734  0.1839 -0.5842
  180SLPC   H7R20584   5.580   2.053   8.310  1.0671  0.7181 -1.1299
  180SLPC   H7S20585   5.591   2.145   8.455 -2.0917 -2.2656  0.9091
  180SLPC   C2820586   5.578   2.271   8.270  0.6542  0.5308  0.6669
  180SLPC   H8R20587   5.537   2.365   8.313 -3.8195  0.6961 -3.1388
  180SLPC   H8S20588   5.511   2.276   8.182 -3.6918  2.3093  3.7337
  180SLPC   C2920589   5.723   2.286   8.251  0.2979  0.1466 -0.0759
  180SLPC   H9R20590   5.781   2.222   8.319 -0.6221 -1.5911 -0.8364
  180SLPC  C21020591   5.776   2.374   8.164 -0.1212  0.2585 -1.6946
  180SLPC  H10R20592   5.883   2.378   8.140  0.1781  0.8023 -0.3541
  180SLPC  C21120593   5.700   2.479   8.091 -0.2609  0.2825 -0.6047
  180SLPC  H11R20594   5.595   2.443   8.100  0.3163 -1.0218  1.9483
  180SLPC  H11S20595   5.730   2.476   7.984 -0.0509 -0.9905 -0.5205
  180SLPC  C21220596   5.722   2.614   8.154  0.9600 -0.5429 -0.0898
  180SLPC  H12R20597   5.685   2.617   8.257  0.7134 -0.4322 -0.1803
  180SLPC  C21320598   5.782   2.719   8.095  0.1851 -1.0129 -0.4052
  180SLPC  H13R20599   5.784   2.810   8.157  0.7207 -0.8090 -0.7222
  180SLPC  C21420600   5.835   2.728   7.960  0.2121 -1.1203  0.0930
  180SLPC  H14R20601   5.851   2.625   7.921  0.7566 -0.8695 -0.3662
  180SLPC  H14S20602   5.934   2.779   7.960 -0.1375 -0.4277  0.3448
  180SLPC  C21520603   5.734   2.807   7.878 -0.0523 -0.7788  0.0579
  180SLPC  H15R20604   5.635   2.759   7.870  0.3036 -1.3952 -0.8483
  180SLPC  H15S20605   5.774   2.803   7.774 -1.5754 -0.7433 -0.5478
  180SLPC  C21620606   5.714   2.947   7.930  0.4449 -0.6092 -0.3070
  180SLPC  H16R20607   5.810   2.990   7.966 -0.0359  2.5945 -2.3724
  180SLPC  H16S20608   5.638   2.938   8.010  0.2971 -1.4351 -0.5281
  180SLPC  C21720609   5.648   3.047   7.827 -0.2151  0.1305  0.2453
  180SLPC  H17R20610   5.540   3.026   7.813 -0.9320  2.7297  1.2770
  180SLPC  H17S20611   5.693   3.034   7.726 -2.7680  0.4451 -1.0196
  180SLPC  C21820612   5.667   3.194   7.875 -0.2948 -0.4531 -0.1716
  180SLPC  H18R20613   5.610   3.212   7.968  1.6668 -1.3509  1.2905
  180SLPC  H18S20614   5.651   3.268   7.794  0.6556 -1.3902 -1.2437
  180SLPC  H18T20615   5.773   3.194   7.908 -0.4474 -1.2040  0.3666
  180SLPC   C3320616   4.801   1.729   8.836 -0.4597  0.3711  0.2900
  180SLPC   H3X20617   4.766   1.827   8.875 -2.1281  0.5057 -1.4084
  180SLPC   H3Y20618   4.755   1.647   8.896  0.9895 -1.2820 -0.7589
  180SLPC   C3420619   4.748   1.715   8.692  0.2302  0.1966 -0.2159
  180SLPC   H4X20620   4.762   1.613   8.650  0.9513  0.8809 -1.7244
  180SLPC   H4Y20621   4.811   1.790   8.641 -0.4621  0.0704 -1.2803
  180SLPC   C3520622   4.609   1.755   8.679 -0.4728  0.6077  0.4217
  180SLPC   H5X20623   4.599   1.854   8.729 -1.6094  0.7206 -0.0046
  180SLPC   H5Y20624   4.533   1.690   8.727  0.2859 -0.2438  0.4921
  180SLPC   C3620625   4.566   1.775   8.528  0.1294  0.0787 -0.3252
  180SLPC   H6X20626   4.640   1.827   8.464 -2.0433  2.4885 -1.0809
  180SLPC   H6Y20627   4.472   1.835   8.535  0.5806  0.6606  1.1906
  180SLPC   C3720628   4.538   1.642   8.456 -0.6079  0.0844  0.1468
  180SLPC   H7X20629   4.474   1.580   8.522  1.6425 -2.1395  0.3794
  180SLPC   H7Y20630   4.640   1.601   8.438  0.9249  3.7836 -0.5754
  180SLPC   C3820631   4.467   1.654   8.321 -0.1842 -0.1787  0.0279
  180SLPC   H8X20632   4.359   1.641   8.340 -0.0900 -0.7384  0.1788
  180SLPC   H8Y20633   4.519   1.568   8.274  1.0172  0.7853 -0.4593
  180SLPC   C3920634   4.488   1.791   8.249 -0.6619  0.0550  0.1350
  180SLPC   H9X20635   4.594   1.819   8.264 -0.7762 -0.2436  1.6784
  180SLPC   H9Y20636   4.428   1.869   8.301 -1.3028 -1.0763  1.1691
  180SLPC  C31020637   4.445   1.808   8.101 -0.6662 -0.4186 -0.7470
  180SLPC  H10X20638   4.350   1.751   8.089 -0.3742 -0.6415 -2.1538
  180SLPC  H10Y20639   4.523   1.760   8.038  1.5308  1.1821  0.6590
  180SLPC  C31120640   4.427   1.961   8.059  0.0330 -0.1990  0.4074
  180SLPC  H11X20641   4.527   2.009   8.047  0.2204 -0.3687  1.2087
  180SLPC  H11Y20642   4.367   2.018   8.133  1.3096 -0.1389  1.4439
  180SLPC  C31220643   4.360   1.973   7.921 -0.4421  0.4088 -0.3352
  180SLPC  H12X20644   4.261   1.925   7.939  1.1771 -2.7218  1.0792
  180SLPC  H12Y20645   4.411   1.916   7.840  0.0466  0.0556  0.2140
  180SLPC  C31320646   4.354   2.120   7.877 -0.3850 -0.9134  0.5778
  180SLPC  H13X20647   4.460   2.154   7.875 -0.6087 -0.2483 -0.3338
  180SLPC  H13Y20648   4.297   2.180   7.952  0.8380  2.1922 -0.7858
  180SLPC  C31420649   4.295   2.130   7.733  1.2411  0.4234 -0.5817
  180SLPC  H14X20650   4.186   2.109   7.744  1.5511 -1.1115 -0.1187
  180SLPC  H14Y20651   4.342   2.046   7.676 -3.7372 -1.5920 -2.3057
  180SLPC  C31520652   4.325   2.259   7.667 -0.1435 -0.5529  0.1741
  180SLPC  H15X20653   4.287   2.250   7.563 -1.3300 -0.2162  0.5630
  180SLPC  H15Y20654   4.434   2.278   7.653 -0.3562  2.6477  1.9073
  180SLPC  C31620655   4.260   2.383   7.736 -0.1273  0.0132 -0.2775
  180SLPC  H16X20656   4.153   2.365   7.761  0.2489 -0.8084  0.8004
  180SLPC  H16Y20657   4.255   2.459   7.655  3.1429  0.3233 -0.3184
  180SLPC  C31720658   4.336   2.437   7.857 -0.0432  0.3888  0.0710
  180SLPC  H17X20659   4.442   2.450   7.825 -0.0419 -1.8903 -1.1025
  180SLPC  H17Y20660   4.331   2.372   7.947 -1.4553  0.2312 -0.0977
  180SLPC  C31820661   4.298   2.581   7.904 -0.3829 -0.0202  0.3595
  180SLPC  H18X20662   4.342   2.597   8.005  2.0872 -1.0279 -0.4834
  180SLPC  H18Y20663   4.189   2.579   7.926 -0.8254  1.4473 -1.4809
  180SLPC  H18Z20664   4.320   2.664   7.834 -1.7208  0.4929  0.5108
  181SLPC     N20665   6.439   5.371  10.156 -0.3640  0.0912 -0.8263
  181SLPC   C1320666   6.570   5.445  10.156 -0.1413  0.4794  0.1414
  181SLPC  H13A20667   6.599   5.482  10.058  0.1511  1.2980  0.5264
  181SLPC  H13B20668   6.560   5.538  10.211  0.5786  1.0514 -0.6540
  181SLPC  H13C20669   6.658   5.396  10.195  0.1154  1.2861  0.5988
  181SLPC   C1420670   6.387   5.377  10.303  0.0613  0.1637  0.3533
  181SLPC  H14A20671   6.295   5.320  10.312  0.3159  0.0116  3.1835
  181SLPC  H14B20672   6.459   5.338  10.373 -1.1798  0.1867  1.7085
  181SLPC  H14C20673   6.370   5.481  10.326  1.9648  0.7169 -0.6048
  181SLPC   C1520674   6.474   5.226  10.119  0.4053  0.3034  0.2177
  181SLPC  H15A20675   6.542   5.181  10.189  2.3058  1.2092 -0.9599
  181SLPC  H15B20676   6.384   5.166  10.119  0.5126  0.1339 -0.3060
  181SLPC  H15C20677   6.512   5.220  10.018  2.9987  1.8219  0.9864
  181SLPC   C1220678   6.337   5.422  10.059 -0.3039  0.1503  0.4160
  181SLPC  H12A20679   6.374   5.428   9.958  1.8208 -0.7664  1.0742
  181SLPC  H12B20680   6.312   5.524  10.084 -3.6005 -0.5948  0.6062
  181SLPC   C1120681   6.200   5.354  10.058  0.3216 -0.2334 -0.0947
  181SLPC  H11A20682   6.132   5.402   9.984  0.1665 -1.6873 -0.9353
  181SLPC  H11B20683   6.159   5.367  10.161  0.5357 -0.0859 -0.0272
  181SLPC     P20684   6.103   5.118   9.998 -0.6232  0.2958 -0.3288
  181SLPC   O1320685   6.155   4.978   9.978 -0.5938 -0.1528  0.0937
  181SLPC   O1420686   5.994   5.134  10.098 -0.0718  0.2475  0.0024
  181SLPC   O1220687   6.217   5.216  10.025  0.6820  0.0273  0.2074
  181SLPC   O1120688   6.040   5.163   9.865  0.1056 -0.1779  0.4882
  181SLPC    C120689   6.128   5.203   9.767 -0.1542 -0.7916  0.3268
  181SLPC    HA20690   6.200   5.281   9.800 -2.7874  1.5441  0.9686
  181SLPC    HB20691   6.193   5.119   9.735 -0.4889 -0.5820 -0.9810
  181SLPC    C220692   6.049   5.259   9.637 -0.5744 -0.7718  0.4100
  181SLPC    HS20693   6.006   5.357   9.664 -1.1860 -0.6933 -0.8228
  181SLPC   O2120694   5.944   5.165   9.611  0.1750  0.1100  0.5794
  181SLPC   C2120695   5.842   5.222   9.545  0.3061  0.7595  0.2621
  181SLPC   O2220696   5.821   5.335   9.512 -0.6179 -0.1434 -0.2665
  181SLPC   C2220697   5.752   5.106   9.498  0.2655  0.1651  0.7580
  181SLPC   H2R20698   5.803   5.009   9.518 -0.6533 -1.2130 -2.7636
  181SLPC   H2S20699   5.665   5.116   9.566  0.9491  3.2425  1.3262
  181SLPC    C320700   6.136   5.262   9.513 -0.4060  0.0437  0.0745
  181SLPC    HX20701   6.173   5.157   9.500 -0.4913  0.0043  0.1499
  181SLPC    HY20702   6.231   5.316   9.532 -0.5851  0.4572 -0.1930
  181SLPC   O3120703   6.071   5.306   9.392  0.3172  0.6699 -0.8522
  181SLPC   C3120704   6.077   5.439   9.379 -0.1906  0.7419  0.2373
  181SLPC   O3220705   6.136   5.513   9.457  0.2599  0.0359  0.0191
  181SLPC   C3220706   5.989   5.480   9.262 -0.9989  0.1679 -1.1649
  181SLPC   H2X20707   5.889   5.506   9.304 -0.3017  1.2176 -0.0938
  181SLPC   H2Y20708   5.975   5.394   9.193  2.8165 -1.6345  0.0428
  181SLPC   C2320709   5.696   5.133   9.353 -0.0483  0.6954 -0.3838
  181SLPC   H3R20710   5.657   5.237   9.344 -0.7344  0.5760  0.9804
  181SLPC   H3S20711   5.624   5.051   9.329 -0.2607  0.6896  0.2542
  181SLPC   C2420712   5.802   5.121   9.243 -0.4927  0.7834 -0.0151
  181SLPC   H4R20713   5.844   5.018   9.236  0.5416  1.2947 -2.5188
  181SLPC   H4S20714   5.874   5.204   9.255 -0.3076  0.5530  0.5138
  181SLPC   C2520715   5.741   5.130   9.097  0.0995 -0.7424  0.8227
  181SLPC   H5R20716   5.640   5.083   9.089 -0.7868  1.3981 -2.0547
  181SLPC   H5S20717   5.818   5.085   9.031  0.4379  1.8375 -0.6646
  181SLPC   C2620718   5.725   5.275   9.046  0.0995 -0.4475  0.3970
  181SLPC   H6R20719   5.817   5.336   9.051 -1.1308  1.4014  2.2796
  181SLPC   H6S20720   5.637   5.317   9.099 -0.8756 -0.9248 -0.7877
  181SLPC   C2720721   5.689   5.276   8.896 -0.1569 -0.3587 -0.2901
  181SLPC   H7R20722   5.601   5.212   8.873  0.0127  0.0725 -2.2563
  181SLPC   H7S20723   5.764   5.211   8.847  0.2147 -1.9122  2.1361
  181SLPC   C2820724   5.660   5.421   8.836  0.4011  0.9184 -0.5456
  181SLPC   H8R20725   5.578   5.470   8.892 -1.6263 -2.2352 -0.4880
  181SLPC   H8S20726   5.621   5.405   8.733 -0.1232  1.3574 -0.4191
  181SLPC   C2920727   5.777   5.513   8.845 -0.6500 -0.3770  0.3679
  181SLPC   H9R20728   5.822   5.536   8.943  0.3309  3.9795 -0.8839
  181SLPC  C21020729   5.824   5.590   8.747  0.2455  0.0219 -0.3197
  181SLPC  H10R20730   5.906   5.653   8.783 -1.0598  1.5090  0.1393
  181SLPC  C21120731   5.790   5.594   8.604 -0.2938 -0.0545 -0.0431
  181SLPC  H11R20732   5.740   5.690   8.581  1.7947  1.2003  0.3142
  181SLPC  H11S20733   5.727   5.506   8.580 -1.6769  0.6709  0.8276
  181SLPC  C21220734   5.922   5.588   8.528 -0.6534 -0.5373 -0.0989
  181SLPC  H12R20735   5.964   5.486   8.532  2.2933  0.5841  0.5706
  181SLPC  C21320736   5.993   5.689   8.472  0.0267  0.0606  0.6249
  181SLPC  H13R20737   6.079   5.663   8.409  0.2280  0.6402  0.6542
  181SLPC  C21420738   5.947   5.835   8.453 -0.2279 -0.2564 -0.0824
  181SLPC  H14R20739   5.842   5.854   8.481  0.0914 -0.0159  0.9996
  181SLPC  H14S20740   5.958   5.850   8.343 -0.8219 -2.0428 -0.4188
  181SLPC  C21520741   6.036   5.934   8.536  0.0615  0.8257  0.0671
  181SLPC  H15R20742   6.032   6.037   8.495  2.8658  1.1216  0.3862
  181SLPC  H15S20743   6.141   5.907   8.515 -0.2029  1.6664 -2.7883
  181SLPC  C21620744   6.008   5.934   8.687 -0.1006  1.0011  0.2045
  181SLPC  H16R20745   6.005   5.829   8.725  0.4357  2.0227  3.3243
  181SLPC  H16S20746   5.906   5.972   8.709 -2.5753 -3.0502 -2.6505
  181SLPC  C21720747   6.105   6.018   8.782  0.6829 -0.0376 -0.0675
  181SLPC  H17R20748   6.087   6.126   8.766 -1.6829 -0.3460  0.1745
  181SLPC  H17S20749   6.204   5.979   8.752 -0.1016 -2.0298 -0.2676
  181SLPC  C21820750   6.085   5.997   8.934  0.1459 -0.0650 -0.3118
  181SLPC  H18R20751   6.158   6.057   8.993 -1.0321 -1.5597  2.8337
  181SLPC  H18S20752   6.094   5.889   8.956 -1.5501 -1.0678 -3.8272
  181SLPC  H18T20753   5.986   6.034   8.968  0.5647  2.1872 -1.3330
  181SLPC   C3320754   6.043   5.607   9.185 -0.3365 -0.0045 -0.1384
  181SLPC   H3X20755   6.047   5.695   9.252 -1.0213  0.8782 -1.2236
  181SLPC   H3Y20756   5.975   5.627   9.100 -1.7096 -2.8185  0.1658
  181SLPC   C3420757   6.187   5.583   9.130 -0.9088  0.7737  0.4663
  181SLPC   H4X20758   6.256   5.592   9.217 -0.6790  0.7540  0.2884
  181SLPC   H4Y20759   6.224   5.664   9.064 -0.7788  2.7321  2.8315
  181SLPC   C3520760   6.219   5.447   9.057  0.1506 -0.8681 -0.2451
  181SLPC   H5X20761   6.214   5.368   9.136 -1.3928 -2.1348 -1.5196
  181SLPC   H5Y20762   6.323   5.447   9.018 -0.3360 -1.3188 -1.5844
  181SLPC   C3620763   6.129   5.428   8.935 -0.2218  0.0906 -0.6018
  181SLPC   H6X20764   6.119   5.512   8.862 -2.1878  0.9751  0.5739
  181SLPC   H6Y20765   6.022   5.421   8.964 -0.7434  2.1170 -1.7912
  181SLPC   C3720766   6.171   5.299   8.859 -0.4148 -0.0422  0.0064
  181SLPC   H7X20767   6.174   5.221   8.938 -0.0758  1.7350  1.8379
  181SLPC   H7Y20768   6.260   5.317   8.794 -1.6306  0.1500 -1.6931
  181SLPC   C3820769   6.052   5.278   8.757  0.5936  0.5398  0.6720
  181SLPC   H8X20770   6.063   5.369   8.693 -0.2037 -0.6082 -1.1989
  181SLPC   H8Y20771   5.957   5.294   8.812 -0.1438 -0.0138 -0.3896
  181SLPC   C3920772   6.047   5.154   8.668 -0.0580 -0.0093 -0.2623
  181SLPC   H9X20773   5.967   5.155   8.590  0.1239 -0.1475 -0.4521
  181SLPC   H9Y20774   6.008   5.071   8.732  1.8691 -0.7569 -0.0040
  181SLPC  C31020775   6.175   5.107   8.596 -0.6458  0.5291 -0.4399
  181SLPC  H10X20776   6.258   5.083   8.666 -2.6916  0.0647  1.9650
  181SLPC  H10Y20777   6.203   5.195   8.535 -0.8100  2.4500  2.0620
  181SLPC  C31120778   6.156   4.969   8.527  0.5914 -0.0644  0.1921
  181SLPC  H11X20779   6.056   4.972   8.481  0.9154 -0.1432 -0.5293
  181SLPC  H11Y20780   6.150   4.894   8.609  0.1719 -2.5951 -2.0404
  181SLPC  C31220781   6.266   4.914   8.432 -0.2694 -0.1669 -0.3090
  181SLPC  H12X20782   6.359   4.927   8.491 -0.4975  0.1370 -0.0069
  181SLPC  H12Y20783   6.270   4.988   8.349  0.4801  1.0793  0.7827
  181SLPC  C31320784   6.262   4.764   8.381  1.0873 -0.2222  0.3221
  181SLPC  H13X20785   6.213   4.698   8.455 -1.1227  0.2144 -0.6866
  181SLPC  H13Y20786   6.369   4.741   8.360  1.3371  1.2488 -0.1756
  181SLPC  C31420787   6.185   4.753   8.247  0.1498 -0.2389  0.3502
  181SLPC  H14X20788   6.233   4.807   8.163 -0.4426 -2.0556 -1.2362
  181SLPC  H14Y20789   6.085   4.797   8.267 -0.3041 -1.3240  0.5655
  181SLPC  C31520790   6.174   4.610   8.197  0.7367  0.2320  0.9392
  181SLPC  H15X20791   6.093   4.620   8.121  1.5562  0.8407  0.1170
  181SLPC  H15Y20792   6.157   4.535   8.277  0.2502 -0.1865  0.4554
  181SLPC  C31620793   6.303   4.566   8.120 -0.4230  0.4693  0.8765
  181SLPC  H16X20794   6.395   4.561   8.182  0.2843  0.5676 -0.1481
  181SLPC  H16Y20795   6.309   4.642   8.039 -2.6612 -0.5133 -0.3211
  181SLPC  C31720796   6.283   4.431   8.058 -0.3360 -0.0789 -0.4163
  181SLPC  H17X20797   6.202   4.438   7.983  0.4165 -2.4421 -1.5714
  181SLPC  H17Y20798   6.251   4.353   8.131  1.6588  0.8876  1.6247
  181SLPC  C31820799   6.410   4.377   7.979 -0.1516  0.3003 -0.2063
  181SLPC  H18X20800   6.436   4.411   7.877 -0.5412  0.1316 -0.3598
  181SLPC  H18Y20801   6.401   4.268   7.964 -1.7125  0.6957 -2.5478
  181SLPC  H18Z20802   6.489   4.390   8.057 -2.2920  1.0783  1.9398
  182SLPC     N20803   6.689   0.526   9.875 -0.2877  0.1640  0.2876
  182SLPC   C1320804   6.539   0.544   9.895 -0.4257  0.6786  0.3585
  182SLPC  H13A20805   6.512   0.644   9.865 -0.3931  0.5001 -0.2758
  182SLPC  H13B20806   6.493   0.465   9.837  1.8486 -1.6369  1.5155
  182SLPC  H13C20807   6.513   0.535  10.000 -4.0398 -0.9084 -0.5146
  182SLPC   C1420808   6.704   0.553   9.726 -0.1393  0.0954 -0.0347
  182SLPC  H14A20809   6.798   0.513   9.690 -0.5123  0.1916 -1.1660
  182SLPC  H14B20810   6.622   0.515   9.666 -0.7533  0.8748  0.2857
  182SLPC  H14C20811   6.702   0.660   9.711  1.0124  0.1387  0.0261
  182SLPC   C1520812   6.722   0.382   9.895 -0.2102 -0.2322 -0.1533
  182SLPC  H15A20813   6.825   0.388   9.926 -0.0160  1.8234 -1.0071
  182SLPC  H15B20814   6.657   0.334   9.966 -0.3357  1.5843  1.0200
  182SLPC  H15C20815   6.736   0.330   9.801  1.4076  1.7204 -1.0603
  182SLPC   C1220816   6.764   0.617   9.959 -0.2678 -0.6347  0.0045
  182SLPC  H12A20817   6.746   0.589  10.062 -3.0281 -0.7906 -0.4415
  182SLPC  H12B20818   6.723   0.717   9.955 -0.2126 -0.6036  0.2053
  182SLPC   C1120819   6.923   0.635   9.937  0.7546 -1.5364  0.3201
  182SLPC  H11A20820   6.976   0.542   9.909  1.8331 -0.6865 -0.5116
  182SLPC  H11B20821   6.969   0.670  10.032  1.0904 -1.5787  0.1739
  182SLPC     P20822   6.907   0.882   9.846  0.2039  0.0340  0.4269
  182SLPC   O1320823   6.763   0.906   9.842 -0.3921 -0.4366 -0.4210
  182SLPC   O1420824   6.982   0.939   9.962  0.6188  0.1733  0.2721
  182SLPC   O1220825   6.937   0.729   9.827  0.4201  0.5450  0.2560
  182SLPC   O1120826   6.973   0.946   9.716 -0.2313 -0.9270 -0.0582
  182SLPC    C120827   7.094   0.901   9.653 -0.0893  0.6932 -0.0573
  182SLPC    HA20828   7.153   0.995   9.646  1.3374  0.0401  2.1234
  182SLPC    HB20829   7.151   0.835   9.722 -1.0803  0.3946  0.4871
  182SLPC    C220830   7.083   0.840   9.512 -0.4972  0.7478  0.3184
  182SLPC    HS20831   7.186   0.821   9.474 -0.3129 -0.1393  1.1963
  182SLPC   O2120832   7.006   0.926   9.426 -0.3771 -0.0862 -0.1153
  182SLPC   C2120833   7.073   1.030   9.381 -1.2940 -0.6703 -0.3832
  182SLPC   O2220834   7.190   1.049   9.391 -0.0380 -0.9080  0.0771
  182SLPC   C2220835   6.982   1.121   9.296  0.8670  0.7125  0.5626
  182SLPC   H2R20836   6.875   1.111   9.326  0.6330 -0.5216 -0.5991
  182SLPC   H2S20837   6.998   1.231   9.298  0.0470  0.8480  0.4182
  182SLPC    C320838   7.029   0.700   9.510  0.5831  0.6028 -0.0284
  182SLPC    HX20839   6.923   0.706   9.544  0.2095 -1.0600 -0.8166
  182SLPC    HY20840   7.079   0.635   9.585 -0.5140  0.0571  0.2523
  182SLPC   O3120841   7.033   0.646   9.378 -0.2477  0.4404 -0.2710
  182SLPC   C3120842   6.942   0.565   9.337 -0.2729 -0.1438  0.1881
  182SLPC   O3220843   6.851   0.526   9.407 -0.3293 -0.1054  0.4061
  182SLPC   C3220844   6.958   0.542   9.190  0.9720 -0.3688 -0.6095
  182SLPC   H2X20845   7.062   0.502   9.184  1.0295 -0.4842  0.8032
  182SLPC   H2Y20846   6.963   0.646   9.153  2.8914 -0.3163 -0.3296
  182SLPC   C2320847   6.983   1.079   9.145 -0.4169  0.5402  0.1920
  182SLPC   H3R20848   7.089   1.096   9.119 -0.5459  1.0082 -0.0337
  182SLPC   H3S20849   6.918   1.145   9.083 -0.3032  0.0257 -0.4934
  182SLPC   C2420850   6.954   0.926   9.119  0.0165  0.9033  0.1963
  182SLPC   H4R20851   6.863   0.887   9.169  0.0228 -0.0740 -0.5215
  182SLPC   H4S20852   7.032   0.867   9.171 -0.6998 -0.3063 -0.0582
  182SLPC   C2520853   6.948   0.903   8.964 -0.0651  0.4571  0.2833
  182SLPC   H5R20854   6.992   0.802   8.952 -1.4468  0.0544 -1.6735
  182SLPC   H5S20855   7.016   0.970   8.907 -0.4529  0.8753  0.3123
  182SLPC   C2620856   6.811   0.909   8.899 -0.2841  0.3206 -0.4587
  182SLPC   H6R20857   6.769   1.012   8.902 -1.0854  0.0171 -0.9397
  182SLPC   H6S20858   6.750   0.844   8.965  0.0960  0.7119  0.2869
  182SLPC   C2720859   6.807   0.870   8.754 -0.0985  0.4350  0.2193
  182SLPC   H7R20860   6.702   0.882   8.722  0.3165  1.2366 -0.9174
  182SLPC   H7S20861   6.841   0.766   8.736 -1.4014 -0.1446  0.9279
  182SLPC   C2820862   6.883   0.963   8.655 -1.0303  0.0158 -0.4655
  182SLPC   H8R20863   6.993   0.969   8.668 -1.0113 -0.5766 -0.3277
  182SLPC   H8S20864   6.859   1.068   8.685 -1.3513  0.1070 -1.0142
  182SLPC   C2920865   6.854   0.941   8.510 -0.1265 -0.5610 -0.0026
  182SLPC   H9R20866   6.747   0.960   8.496 -0.3358 -0.8195  1.1538
  182SLPC  C21020867   6.931   0.894   8.410  0.8896 -0.4259  0.1436
  182SLPC  H10R20868   6.871   0.874   8.320 -0.2042  0.9545  0.5383
  182SLPC  C21120869   7.073   0.841   8.422  0.5176  0.1580  0.0413
  182SLPC  H11R20870   7.067   0.733   8.446 -0.1242 -0.0610 -1.0383
  182SLPC  H11S20871   7.132   0.873   8.510  4.4150 -2.9171 -1.1550
  182SLPC  C21220872   7.149   0.869   8.293  0.2508  0.1974  0.7078
  182SLPC  H12R20873   7.136   0.968   8.248 -3.0102  0.3585  1.7701
  182SLPC  C21320874   7.205   0.766   8.225  0.2051  1.0253  0.4451
  182SLPC  H13R20875   7.247   0.776   8.124 -0.6326 -2.6866 -0.4524
  182SLPC  C21420876   7.203   0.622   8.257 -0.2957  0.4941 -0.2861
  182SLPC  H14R20877   7.096   0.592   8.261  0.3085 -1.7453  0.6561
  182SLPC  H14S20878   7.236   0.608   8.362  0.2098 -1.8732 -0.7058
  182SLPC  C21520879   7.293   0.530   8.165  0.1312  0.4568  0.5460
  182SLPC  H15R20880   7.309   0.436   8.223  0.5181 -0.0069 -0.2830
  182SLPC  H15S20881   7.395   0.571   8.147  0.2488 -0.6062 -1.5202
  182SLPC  C21620882   7.233   0.487   8.031 -0.1403 -0.3661  0.0775
  182SLPC  H16R20883   7.133   0.442   8.047  1.7998 -4.7717  1.0644
  182SLPC  H16S20884   7.293   0.402   7.994  0.9877  0.5284 -0.2279
  182SLPC  C21720885   7.241   0.585   7.911 -0.7437  0.4384  0.1605
  182SLPC  H17R20886   7.175   0.670   7.941 -0.0695  1.7936 -1.9602
  182SLPC  H17S20887   7.189   0.536   7.826 -0.3107 -0.5356  0.4473
  182SLPC  C21820888   7.372   0.647   7.881 -0.0237 -0.5238  0.0218
  182SLPC  H18R20889   7.454   0.577   7.854 -1.8200 -2.5845 -0.3673
  182SLPC  H18S20890   7.412   0.710   7.964  2.8493 -0.8993 -0.9467
  182SLPC  H18T20891   7.370   0.717   7.795 -0.2968  0.4553  0.8026
  182SLPC   C3320892   6.853   0.451   9.125  0.2169  0.0485  0.2137
  182SLPC   H3X20893   6.816   0.373   9.195 -2.0187 -0.2332 -1.1863
  182SLPC   H3Y20894   6.898   0.405   9.035  0.0070 -1.3316  0.7899
  182SLPC   C3420895   6.734   0.541   9.092 -0.3331 -0.1576 -0.1954
  182SLPC   H4X20896   6.772   0.636   9.049  0.0536  0.2632  1.0359
  182SLPC   H4Y20897   6.680   0.569   9.185 -1.1070 -1.5632 -0.1898
  182SLPC   C3520898   6.640   0.483   8.984  0.5317 -0.1804  1.0017
  182SLPC   H5X20899   6.591   0.396   9.031  1.1946 -1.1522 -0.0467
  182SLPC   H5Y20900   6.704   0.447   8.900  1.4834  0.7881  1.2838
  182SLPC   C3620901   6.544   0.592   8.939 -0.3093  0.3770  0.2450
  182SLPC   H6X20902   6.583   0.693   8.915 -0.4860  0.7499  1.4221
  182SLPC   H6Y20903   6.500   0.618   9.038 -0.2178 -0.8075  0.6102
  182SLPC   C3720904   6.441   0.544   8.838  0.3055 -0.1513  0.3658
  182SLPC   H7X20905   6.377   0.464   8.881 -2.1636  1.2345 -0.4776
  182SLPC   H7Y20906   6.491   0.493   8.754  1.8395 -1.7927  2.1662
  182SLPC   C3820907   6.341   0.649   8.790  0.6339 -0.8373 -1.1371
  182SLPC   H8X20908   6.382   0.740   8.741  2.5077 -1.3609 -0.5879
  182SLPC   H8Y20909   6.300   0.690   8.885  2.6170  0.1776 -0.6659
  182SLPC   C3920910   6.242   0.586   8.697 -0.1573  0.1312 -0.0312
  182SLPC   H9X20911   6.196   0.496   8.743  1.3918  0.0962  1.5868
  182SLPC   H9Y20912   6.290   0.554   8.602 -2.4206 -0.5457 -1.0004
  182SLPC  C31020913   6.132   0.686   8.657 -0.3553  0.8065  0.0100
  182SLPC  H10X20914   6.163   0.737   8.563  2.1316  1.7356  1.2642
  182SLPC  H10Y20915   6.129   0.771   8.727 -1.1741  1.2040 -0.4861
  182SLPC  C31120916   5.994   0.631   8.629 -0.9765  0.3094 -0.4337
  182SLPC  H11X20917   5.925   0.717   8.622 -2.0761 -0.5712 -0.7377
  182SLPC  H11Y20918   5.957   0.580   8.720 -3.1818 -0.1453 -1.4990
  182SLPC  C31220919   5.973   0.551   8.495 -0.5193  0.4151  0.4119
  182SLPC  H12X20920   6.061   0.483   8.483 -0.0268  0.6076  2.6287
  182SLPC  H12Y20921   5.954   0.623   8.412  0.3727  0.5410  0.3118
  182SLPC  C31320922   5.849   0.453   8.507  0.4055  0.0173  0.2085
  182SLPC  H13X20923   5.759   0.513   8.530 -0.2720 -1.2143  0.9106
  182SLPC  H13Y20924   5.861   0.398   8.603  0.5675 -0.6480 -0.1814
  182SLPC  C31420925   5.833   0.362   8.381 -0.2299 -0.3155 -0.1596
  182SLPC  H14X20926   5.765   0.277   8.403  0.4214 -1.1269 -1.1606
  182SLPC  H14Y20927   5.929   0.321   8.343 -1.3868 -1.1766 -2.3420
  182SLPC  C31520928   5.768   0.433   8.255 -0.0857  0.0767 -0.2540
  182SLPC  H15X20929   5.825   0.522   8.220 -0.8030  1.3153  1.5573
  182SLPC  H15Y20930   5.667   0.459   8.292 -0.1341 -0.1039 -0.2612
  182SLPC  C31620931   5.755   0.337   8.147  0.3288 -1.1453  0.3089
  182SLPC  H16X20932   5.672   0.266   8.168 -0.6831 -0.0377  0.1661
  182SLPC  H16Y20933   5.850   0.283   8.125  0.3661 -1.7788  1.9130
  182SLPC  C31720934   5.720   0.406   8.015  0.9594 -1.5658  0.1244
  182SLPC  H17X20935   5.790   0.491   7.995 -1.0536 -0.1446 -1.2554
  182SLPC  H17Y20936   5.623   0.454   8.039  1.0762 -0.3065 -1.6444
  182SLPC  C31820937   5.701   0.319   7.892  0.4719 -0.1865 -0.5354
  182SLPC  H18X20938   5.796   0.264   7.874  0.0043 -0.9470 -0.7700
  182SLPC  H18Y20939   5.667   0.376   7.803 -0.8817  0.8839  0.6235
  182SLPC  H18Z20940   5.620   0.248   7.921  0.8317 -0.2893  0.2205
  183SLPC     N20941   0.101   1.227   9.903 -0.4904 -0.1693 -0.6073
  183SLPC   C1320942  -0.032   1.213   9.840 -1.0217 -0.2296 -0.8961
  183SLPC  H13A20943  -0.025   1.227   9.733  0.1221 -1.7885 -1.0717
  183SLPC  H13B20944  -0.067   1.112   9.854  0.7140 -0.9019 -1.0811
  183SLPC  H13C20945  -0.101   1.290   9.869 -1.2780 -0.0582 -1.9215
  183SLPC   C1420946   0.198   1.148   9.817 -0.7947 -0.4139 -0.3166
  183SLPC  H14A20947   0.287   1.126   9.876 -0.6982  0.3553 -0.1657
  183SLPC  H14B20948   0.158   1.048   9.805 -0.9110 -0.4840  0.5405
  183SLPC  H14C20949   0.229   1.207   9.732 -0.7073 -0.2179 -0.1494
  183SLPC   C1520950   0.090   1.164  10.027  0.0766 -0.3679  0.4596
  183SLPC  H15A20951   0.184   1.163  10.081  0.1754 -0.5182  0.2882
  183SLPC  H15B20952   0.007   1.203  10.085 -0.7474 -0.7344 -0.4575
  183SLPC  H15C20953   0.066   1.060  10.014  0.3501 -0.9186  3.5928
  183SLPC   C1220954   0.136   1.382   9.917  0.5080  0.6818 -0.5265
  183SLPC  H12A20955   0.229   1.380   9.972 -0.3086 -4.6618  1.2923
  183SLPC  H12B20956   0.066   1.416   9.992  1.0066  0.3654  0.0890
  183SLPC   C1120957   0.140   1.469   9.787 -0.6005 -0.4734  0.0280
  183SLPC  H11A20958   0.175   1.572   9.812 -1.9716 -0.6270  3.0374
  183SLPC  H11B20959   0.045   1.485   9.732  0.7984  0.5762 -2.2183
  183SLPC     P20960   0.400   1.440   9.733 -0.0754 -0.0158 -0.1056
  183SLPC   O1320961   0.449   1.566   9.672  0.0306 -0.3549  0.5506
  183SLPC   O1420962   0.409   1.433   9.882  0.2575  0.7847 -0.2624
  183SLPC   O1220963   0.244   1.422   9.695 -0.1018 -0.4751  0.4233
  183SLPC   O1120964   0.474   1.316   9.669 -0.5325  0.8076  0.3596
  183SLPC    C120965   0.463   1.269   9.535 -1.0674  0.6587  0.3040
  183SLPC    HA20966   0.433   1.162   9.531 -0.2534  0.4591 -2.8269
  183SLPC    HB20967   0.384   1.321   9.477  0.0712  1.0229 -0.9577
  183SLPC    C220968   0.590   1.286   9.451 -0.3105 -0.2208 -0.2601
  183SLPC    HS20969   0.675   1.246   9.510  0.2703  1.9301  0.4435
  183SLPC   O2120970   0.604   1.430   9.425  0.7078 -0.3262 -0.1437
  183SLPC   C2120971   0.716   1.484   9.473 -0.0369  0.6144  0.1439
  183SLPC   O2220972   0.802   1.428   9.535 -0.1590 -0.3695  0.2535
  183SLPC   C2220973   0.732   1.632   9.446 -0.2080  0.0221 -0.1993
  183SLPC   H2R20974   0.642   1.668   9.391 -0.2592  3.4091  1.8042
  183SLPC   H2S20975   0.734   1.679   9.547 -0.1248  1.2589 -0.7532
  183SLPC    C320976   0.600   1.210   9.320 -0.4061  0.4903  0.0581
  183SLPC    HX20977   0.510   1.225   9.256 -0.0185 -1.4270 -1.0184
  183SLPC    HY20978   0.596   1.104   9.354  1.4679  0.8182  1.4445
  183SLPC   O3120979   0.720   1.236   9.246  0.5231 -0.3167  0.5052
  183SLPC   C3120980   0.729   1.174   9.128  0.9455 -0.2829  0.0329
  183SLPC   O3220981   0.649   1.091   9.081 -0.2397 -0.1589  0.0643
  183SLPC   C3220982   0.866   1.201   9.065  0.2751 -0.5380 -0.2425
  183SLPC   H2X20983   0.942   1.138   9.115 -0.9909 -0.7268  1.5276
  183SLPC   H2Y20984   0.892   1.309   9.076 -1.3726  0.0478 -1.7400
  183SLPC   C2320985   0.867   1.672   9.386 -0.4090 -0.7200 -0.1477
  183SLPC   H3R20986   0.956   1.633   9.440  0.3222  0.0570 -0.7570
  183SLPC   H3S20987   0.873   1.782   9.370 -1.4526 -0.5847  0.3438
  183SLPC   C2420988   0.883   1.616   9.243  0.0944 -0.6805 -0.0578
  183SLPC   H4R20989   0.892   1.506   9.238  0.8448 -0.5976 -0.7826
  183SLPC   H4S20990   0.986   1.649   9.217  0.4552  0.5814  2.5814
  183SLPC   C2520991   0.783   1.671   9.139 -0.0819  0.3361 -0.3201
  183SLPC   H5R20992   0.768   1.780   9.155 -0.9881  0.5356 -2.2292
  183SLPC   H5S20993   0.693   1.616   9.174  0.5156 -0.0316  0.6933
  183SLPC   C2620994   0.821   1.638   8.992 -0.5270 -0.0165 -0.2464
  183SLPC   H6R20995   0.728   1.609   8.939 -0.1070 -2.0901  0.0556
  183SLPC   H6S20996   0.878   1.543   9.005 -0.3176  0.4099  2.6758
  183SLPC   C2720997   0.902   1.743   8.920 -0.4012 -0.6141  0.2158
  183SLPC   H7R20998   0.998   1.762   8.973 -0.0450  0.5536 -0.8130
  183SLPC   H7S20999   0.856   1.844   8.920  1.3451  0.2358  1.4153
  183SLPC   C2821000   0.932   1.707   8.775  0.3907 -0.1229  0.0396
  183SLPC   H8R21001   0.957   1.599   8.764 -0.1531 -0.3604  1.0421
  183SLPC   H8S21002   1.022   1.770   8.756  0.3318 -0.0299  0.0693
  183SLPC   C2921003   0.817   1.737   8.681  0.7285 -0.7702  0.1246
  183SLPC   H9R21004   0.725   1.692   8.721  1.6622 -3.1952 -0.3053
  183SLPC  C21021005   0.814   1.805   8.563 -0.3192  0.9373  0.2994
  183SLPC  H10R21006   0.722   1.818   8.504 -0.4392 -0.8998  0.0298
  183SLPC  C21121007   0.939   1.858   8.492 -0.1674  0.3361 -0.0563
  183SLPC  H11R21008   0.977   1.939   8.558 -1.2009  0.1399  0.8120
  183SLPC  H11S21009   0.907   1.910   8.399 -1.7771 -0.3014  0.1050
  183SLPC  C21221010   1.047   1.755   8.462  0.1292 -0.0487 -0.4120
  183SLPC  H12R21011   1.005   1.660   8.426 -2.3922  1.0454 -0.5650
  183SLPC  C21321012   1.176   1.775   8.424 -0.4621 -0.2494 -0.5166
  183SLPC  H13R21013   1.244   1.691   8.406 -0.4438 -0.7063  1.5067
  183SLPC  C21421014   1.243   1.910   8.425 -0.2272  0.7818 -0.0632
  183SLPC  H14R21015   1.175   1.980   8.372 -1.5439 -0.6192 -0.3009
  183SLPC  H14S21016   1.336   1.895   8.366  0.4285  0.7810  0.9410
  183SLPC  C21521017   1.281   1.966   8.564 -0.1375  0.3469 -0.5279
  183SLPC  H15R21018   1.193   1.950   8.630  0.2898 -1.0494 -0.2800
  183SLPC  H15S21019   1.298   2.075   8.551 -1.2546  0.7782  1.2475
  183SLPC  C21621020   1.400   1.891   8.623 -0.1510 -0.2260 -0.6091
  183SLPC  H16R21021   1.366   1.789   8.647  1.4471 -0.8932 -1.0386
  183SLPC  H16S21022   1.425   1.946   8.717  1.2771  2.2187 -2.2993
  183SLPC  C21721023   1.523   1.893   8.538  0.5385  0.4824 -0.0765
  183SLPC  H17R21024   1.558   1.997   8.521 -0.5219  1.0006  0.8071
  183SLPC  H17S21025   1.508   1.836   8.444  0.3984 -1.7955  1.2588
  183SLPC  C21821026   1.637   1.826   8.610 -0.0292 -0.4485 -0.2337
  183SLPC  H18R21027   1.717   1.791   8.541  2.9222 -0.8072  3.0931
  183SLPC  H18S21028   1.609   1.733   8.663 -1.7488 -0.0762 -0.4389
  183SLPC  H18T21029   1.680   1.897   8.683 -0.5769 -1.1329  0.7714
  183SLPC   C3321030   0.866   1.170   8.915  0.0717 -0.6930 -0.1309
  183SLPC   H3X21031   0.814   1.080   8.877  0.0072 -0.5438 -0.3952
  183SLPC   H3Y21032   0.973   1.163   8.884  0.3860 -0.6135  0.8889
  183SLPC   C3421033   0.800   1.278   8.823 -0.0134  0.4037 -0.2255
  183SLPC   H4X21034   0.868   1.365   8.806 -2.5529  2.2593 -1.4975
  183SLPC   H4Y21035   0.715   1.313   8.885  0.1502 -3.2053  2.3239
  183SLPC   C3521036   0.732   1.224   8.687 -0.0151  0.4918 -0.3842
  183SLPC   H5X21037   0.642   1.166   8.718  0.6503 -0.2955  0.1205
  183SLPC   H5Y21038   0.798   1.163   8.622 -2.4677 -2.8812  0.0499
  183SLPC   C3621039   0.682   1.344   8.600 -1.1261 -0.7148 -0.3275
  183SLPC   H6X21040   0.654   1.424   8.672  0.7346  1.2316 -1.6518
  183SLPC   H6Y21041   0.587   1.312   8.551 -1.0350 -1.1282 -0.2364
  183SLPC   C3721042   0.780   1.410   8.503 -0.2866  0.8162  0.3796
  183SLPC   H7X21043   0.845   1.337   8.450 -1.1614  1.2067 -1.2952
  183SLPC   H7Y21044   0.841   1.480   8.563  1.6126 -0.3219 -0.1224
  183SLPC   C3821045   0.706   1.504   8.403 -0.0360  0.6297  0.3235
  183SLPC   H8X21046   0.779   1.566   8.348  0.4591  0.2192  0.5027
  183SLPC   H8Y21047   0.649   1.576   8.465  0.8231  3.1043 -1.5914
  183SLPC   C3921048   0.609   1.434   8.306 -0.2761 -0.1680  0.1454
  183SLPC   H9X21049   0.520   1.399   8.363 -0.7577  1.3683  0.3928
  183SLPC   H9Y21050   0.647   1.343   8.257  1.1189  0.4063  0.1293
  183SLPC  C31021051   0.561   1.536   8.193  0.2619  0.1726 -0.0855
  183SLPC  H10X21052   0.493   1.478   8.128  1.7960  1.3472 -2.9113
  183SLPC  H10Y21053   0.652   1.559   8.134  0.0753  0.3725 -0.2958
  183SLPC  C31121054   0.488   1.661   8.234  0.6042  0.9252  0.0684
  183SLPC  H11X21055   0.442   1.691   8.137  0.8656  0.9918 -0.0361
  183SLPC  H11Y21056   0.567   1.729   8.273  1.5723  0.2141 -0.5953
  183SLPC  C31221057   0.371   1.655   8.330 -0.1952  0.1086  0.1470
  183SLPC  H12X21058   0.403   1.588   8.413 -1.8946  0.7048  1.3407
  183SLPC  H12Y21059   0.283   1.603   8.284 -0.0934  0.8925 -0.9626
  183SLPC  C31321060   0.330   1.788   8.386 -0.1143  0.1049  0.1148
  183SLPC  H13X21061   0.288   1.850   8.304  0.1037  0.5747  0.3513
  183SLPC  H13Y21062   0.417   1.844   8.426  0.3704 -0.2975 -0.3502
  183SLPC  C31421063   0.228   1.775   8.501 -0.0702  0.0027 -0.9803
  183SLPC  H14X21064   0.137   1.731   8.455 -0.2608  0.0695 -0.6710
  183SLPC  H14Y21065   0.188   1.875   8.531 -0.9181 -0.9226  1.1938
  183SLPC  C31521066   0.269   1.686   8.625 -0.6282 -0.3040 -0.0782
  183SLPC  H15X21067   0.295   1.588   8.580 -1.7943 -0.2505 -0.9299
  183SLPC  H15Y21068   0.182   1.684   8.695 -0.1351 -2.6884  0.5541
  183SLPC  C31621069   0.384   1.736   8.715  0.5675  0.8034  0.0441
  183SLPC  H16X21070   0.342   1.815   8.781  1.4713  0.6841  0.7834
  183SLPC  H16Y21071   0.456   1.786   8.646 -0.1519 -0.6606 -1.8391
  183SLPC  C31721072   0.441   1.632   8.799  0.3604 -0.3419 -0.2969
  183SLPC  H17X21073   0.530   1.597   8.743 -0.0905  0.6209 -1.6436
  183SLPC  H17Y21074   0.358   1.557   8.802 -0.4605  0.2887 -3.6350
  183SLPC  C31821075   0.478   1.669   8.941  0.6309  0.6521 -0.2278
  183SLPC  H18X21076   0.533   1.582   8.983  0.5581  0.8013  0.1897
  183SLPC  H18Y21077   0.392   1.692   9.008  1.6930 -0.6598  1.6814
  183SLPC  H18Z21078   0.548   1.755   8.947  1.3336  0.0168  0.9843
  184SLPC     N21079   0.236   7.159   9.804 -0.1583  0.5834  0.4114
  184SLPC   C1321080   0.085   7.198   9.785  0.2522 -0.0494 -0.1630
  184SLPC  H13A21081   0.022   7.180   9.871 -1.3965 -1.1835 -1.5645
  184SLPC  H13B21082   0.074   7.305   9.775 -2.3154 -0.0316  1.8801
  184SLPC  H13C21083   0.056   7.148   9.694  3.3298 -0.1183 -1.2151
  184SLPC   C1421084   0.244   7.013   9.840  0.6109  0.4278  0.5267
  184SLPC  H14A21085   0.231   6.945   9.757  1.1545 -0.7951  1.4081
  184SLPC  H14B21086   0.346   6.991   9.870  1.0490  0.6196 -0.7571
  184SLPC  H14C21087   0.171   7.000   9.919 -0.8669 -1.2518 -1.0189
  184SLPC   C1521088   0.294   7.230   9.915 -0.1226  0.4829 -0.3995
  184SLPC  H15A21089   0.250   7.192  10.007  0.5188  1.7386  0.4553
  184SLPC  H15B21090   0.399   7.220   9.936 -0.3944  0.9493  1.3897
  184SLPC  H15C21091   0.256   7.332   9.917  0.5621  0.7447  1.8980
  184SLPC   C1221092   0.324   7.192   9.684 -1.2850  0.0586 -0.1839
  184SLPC  H12A21093   0.425   7.159   9.701 -0.9744 -0.3327 -2.4601
  184SLPC  H12B21094   0.313   7.300   9.680 -0.0644  0.2548  1.0418
  184SLPC   C1121095   0.297   7.120   9.547 -0.2974  0.1753  0.8207
  184SLPC  H11A21096   0.370   7.160   9.474 -2.0238  0.2785 -0.9303
  184SLPC  H11B21097   0.198   7.157   9.514 -0.6676  0.8082  2.5026
  184SLPC     P21098   0.443   6.898   9.566 -0.2558 -0.0177  0.1902
  184SLPC   O1321099   0.553   6.984   9.603 -0.7219  0.1750  0.3525
  184SLPC   O1421100   0.415   6.789   9.653 -0.3328  0.0185  0.5831
  184SLPC   O1221101   0.310   6.979   9.545 -0.1662  0.0510 -0.6012
  184SLPC   O1121102   0.467   6.831   9.422  0.7546  0.5898 -0.0963
  184SLPC    C121103   0.365   6.784   9.341 -0.1260 -0.5523  0.1773
  184SLPC    HA21104   0.390   6.690   9.288  2.3349  0.5952 -0.8479
  184SLPC    HB21105   0.270   6.763   9.393 -0.3994  1.8611  0.7758
  184SLPC    C221106   0.338   6.898   9.235  0.4789 -0.1675 -0.1336
  184SLPC    HS21107   0.326   6.993   9.291  0.9980 -1.1632  1.7311
  184SLPC   O2121108   0.230   6.863   9.145 -0.7313 -0.1902 -0.3209
  184SLPC   C2121109   0.109   6.894   9.187 -0.1315 -0.1008 -0.1399
  184SLPC   O2221110   0.084   6.968   9.280  0.6823 -0.0757  0.5690
  184SLPC   C2221111   0.004   6.815   9.109  0.7027  0.8962  0.5027
  184SLPC   H2R21112   0.019   6.717   9.158  1.1680  1.8084  2.2990
  184SLPC   H2S21113  -0.096   6.860   9.130 -0.5681 -1.0177 -1.1483
  184SLPC    C321114   0.457   6.917   9.135 -0.1650  0.1314 -0.3720
  184SLPC    HX21115   0.431   6.996   9.061 -1.1080  2.1152  1.9396
  184SLPC    HY21116   0.461   6.827   9.069 -0.9741 -1.1150  1.2047
  184SLPC   O3121117   0.591   6.935   9.192  0.7334 -0.3393  1.0157
  184SLPC   C3121118   0.609   7.063   9.229 -0.3011 -0.9398  0.0042
  184SLPC   O3221119   0.528   7.155   9.231 -0.5241  0.4148 -0.1447
  184SLPC   C3221120   0.755   7.084   9.268  0.5899 -0.3359  0.0337
  184SLPC   H2X21121   0.806   6.988   9.291  0.2402 -0.2704  1.1195
  184SLPC   H2Y21122   0.756   7.145   9.361 -1.3670 -1.0300  0.5449
  184SLPC   C2321123   0.030   6.800   8.957 -0.2580  1.6502  0.0006
  184SLPC   H3R21124  -0.049   6.731   8.918  0.8773  0.0907  0.3704
  184SLPC   H3S21125   0.125   6.744   8.943 -2.3400 -1.5569 -3.2414
  184SLPC   C2421126   0.019   6.928   8.873 -0.8238  0.3116 -0.4439
  184SLPC   H4R21127   0.100   6.997   8.906 -0.2802  0.0417 -1.1814
  184SLPC   H4S21128  -0.081   6.974   8.887 -0.1462  1.5924  0.2800
  184SLPC   C2521129   0.040   6.888   8.720 -0.1700 -0.1992 -1.0013
  184SLPC   H5R21130  -0.034   6.815   8.681 -0.3099 -0.2240 -0.6950
  184SLPC   H5S21131   0.143   6.849   8.702  1.3494  2.4842  1.1284
  184SLPC   C2621132   0.007   7.010   8.633 -0.6049 -0.1696  0.6323
  184SLPC   H6R21133   0.076   7.093   8.658 -1.5539  0.9073 -0.2199
  184SLPC   H6S21134  -0.102   7.026   8.641 -0.6271 -0.4532  0.9342
  184SLPC   C2721135   0.037   6.976   8.484  0.3542 -0.6183 -0.6666
  184SLPC   H7R21136  -0.002   6.877   8.452 -0.4029 -0.7574  0.6299
  184SLPC   H7S21137   0.148   6.969   8.474  0.3037 -0.4920 -1.3725
  184SLPC   C2821138  -0.034   7.076   8.385  0.3845 -0.0688 -0.3983
  184SLPC   H8R21139  -0.131   7.100   8.434  0.4679 -0.8382  0.1555
  184SLPC   H8S21140  -0.055   7.017   8.293  0.8607  0.3523 -0.7860
  184SLPC   C2921141   0.035   7.213   8.371 -0.4038 -0.3590  0.9828
  184SLPC   H9R21142   0.124   7.209   8.435  0.7174  1.9175 -0.2927
  184SLPC  C21021143   0.017   7.303   8.269 -0.0463 -0.1373  0.7251
  184SLPC  H10R21144   0.069   7.397   8.293  0.9919 -0.8606  1.3885
  184SLPC  C21121145  -0.079   7.306   8.154  0.2244  0.0448  0.1880
  184SLPC  H11R21146  -0.079   7.209   8.100  0.8385 -0.0307  0.3189
  184SLPC  H11S21147  -0.047   7.382   8.080 -1.9917 -0.5909 -1.5517
  184SLPC  C21221148  -0.213   7.350   8.194 -0.0234  0.1457 -0.8342
  184SLPC  H12R21149  -0.245   7.310   8.291 -0.2261 -1.1332 -1.4016
  184SLPC  C21321150  -0.303   7.409   8.113 -0.3568 -0.0241 -0.5403
  184SLPC  H13R21151  -0.396   7.450   8.155  0.2597  1.6490 -0.7239
  184SLPC  C21421152  -0.275   7.442   7.966  0.7439  0.0418 -0.7022
  184SLPC  H14R21153  -0.345   7.381   7.906  1.9351 -0.3097 -1.7894
  184SLPC  H14S21154  -0.175   7.406   7.933  1.2348 -1.0395  1.7536
  184SLPC  C21521155  -0.295   7.592   7.918  0.0800  0.4684  0.2449
  184SLPC  H15R21156  -0.263   7.591   7.812  0.0664 -0.8638  0.2361
  184SLPC  H15S21157  -0.229   7.656   7.981  2.1131 -2.0279  0.8322
  184SLPC  C21621158  -0.447   7.638   7.910  0.0956 -0.8648 -0.4773
  184SLPC  H16R21159  -0.446   7.748   7.889 -0.0635 -0.8959 -0.6429
  184SLPC  H16S21160  -0.476   7.636   8.017 -1.1377 -0.8273 -0.8044
  184SLPC  C21721161  -0.535   7.562   7.811  0.3181  0.1078 -0.0197
  184SLPC  H17R21162  -0.549   7.459   7.848  1.6395  0.0274  0.2764
  184SLPC  H17S21163  -0.491   7.561   7.709 -0.3240  4.0154 -0.5043
  184SLPC  C21821164  -0.676   7.613   7.802  0.0507 -0.0742 -0.1857
  184SLPC  H18R21165  -0.721   7.563   7.714  2.0548 -2.8789  0.2660
  184SLPC  H18S21166  -0.683   7.724   7.790  0.5127  0.1693  1.5313
  184SLPC  H18T21167  -0.732   7.579   7.892 -2.5766  1.0698 -1.2991
  184SLPC   C3321168   0.831   7.151   9.152 -0.1792 -0.0171  0.3463
  184SLPC   H3X21169   0.927   7.166   9.207 -0.9056 -0.3705  1.7421
  184SLPC   H3Y21170   0.785   7.243   9.108 -0.1004 -0.5634 -0.9413
  184SLPC   C3421171   0.850   7.066   9.026 -0.6078  0.2085  1.2175
  184SLPC   H4X21172   0.756   7.059   8.967 -1.2447 -1.2288  2.3473
  184SLPC   H4Y21173   0.871   6.962   9.059 -0.3257 -1.2098 -2.8446
  184SLPC   C3521174   0.960   7.130   8.936 -0.1531  0.0658  0.3318
  184SLPC   H5X21175   1.048   7.150   9.001  0.1608 -1.4609  0.4049
  184SLPC   H5Y21176   0.931   7.227   8.889  2.0728  0.7305  0.2352
  184SLPC   C3621177   0.998   7.029   8.827 -0.1664  0.1457  0.3828
  184SLPC   H6X21178   1.009   6.926   8.868 -0.3759 -0.2890 -0.6324
  184SLPC   H6Y21179   1.094   7.062   8.781 -1.0875  2.6928  0.1209
  184SLPC   C3721180   0.895   7.022   8.716 -0.8832 -0.8836  0.1739
  184SLPC   H7X21181   0.867   7.125   8.683  1.4878 -0.2598 -0.0613
  184SLPC   H7Y21182   0.799   6.977   8.750 -0.2368 -1.6334  1.0425
  184SLPC   C3821183   0.941   6.940   8.590  0.5938  0.4669 -0.0034
  184SLPC   H8X21184   1.034   6.981   8.545 -0.0301  1.5049 -0.3875
  184SLPC   H8Y21185   0.856   6.949   8.519 -0.8820  0.7248  1.7236
  184SLPC   C3921186   0.955   6.790   8.617 -0.1690  0.4807  0.0070
  184SLPC   H9X21187   0.858   6.755   8.657  0.5918 -1.0491  0.5850
  184SLPC   H9Y21188   1.033   6.782   8.696 -0.1105  0.8387 -0.0124
  184SLPC  C31021189   0.993   6.715   8.492 -0.1279 -0.0936 -0.2882
  184SLPC  H10X21190   1.073   6.774   8.443  1.0758 -1.8536 -0.5089
  184SLPC  H10Y21191   0.901   6.699   8.431 -0.3305 -0.9127  0.2235
  184SLPC  C31121192   1.063   6.574   8.505 -0.8580 -0.6936 -0.4442
  184SLPC  H11X21193   1.036   6.527   8.408  1.3210 -1.8691 -0.5252
  184SLPC  H11Y21194   1.022   6.505   8.582  1.7000 -2.4239 -0.5421
  184SLPC  C31221195   1.213   6.598   8.528  0.2116  0.0408 -0.0195
  184SLPC  H12X21196   1.227   6.676   8.606 -1.6711 -0.4655  0.8965
  184SLPC  H12Y21197   1.258   6.623   8.430  0.1824 -1.2265 -0.3692
  184SLPC  C31321198   1.295   6.477   8.576  0.5835 -0.5824  0.2179
  184SLPC  H13X21199   1.289   6.454   8.685 -2.9679  1.5077  0.6576
  184SLPC  H13Y21200   1.400   6.504   8.554  0.4442 -1.0415 -1.1121
  184SLPC  C31421201   1.263   6.345   8.502 -0.1448 -0.2807 -0.8500
  184SLPC  H14X21202   1.158   6.316   8.519  0.1281 -1.5467 -1.2118
  184SLPC  H14Y21203   1.336   6.265   8.528  0.3581  0.5498  0.3718
  184SLPC  C31521204   1.281   6.352   8.348  0.7755 -0.0064  0.0897
  184SLPC  H15X21205   1.220   6.432   8.301  0.7379  0.0481  0.2283
  184SLPC  H15Y21206   1.257   6.252   8.306 -0.2391  1.2405 -2.4809
  184SLPC  C31621207   1.420   6.388   8.304 -0.1107  0.7493  0.8331
  184SLPC  H16X21208   1.505   6.372   8.373 -0.4873 -0.2050  1.0832
  184SLPC  H16Y21209   1.420   6.499   8.290  0.2464  0.3902 -3.4208
  184SLPC  C31721210   1.463   6.328   8.168 -0.2313  0.0670  0.1643
  184SLPC  H17X21211   1.420   6.226   8.161 -1.2625  0.3033  2.2918
  184SLPC  H17Y21212   1.570   6.321   8.137 -0.5980 -1.3912 -0.8645
  184SLPC  C31821213   1.394   6.404   8.057 -0.0815  0.5579  0.3331
  184SLPC  H18X21214   1.426   6.511   8.054 -2.1141  1.2460  1.2241
  184SLPC  H18Y21215   1.285   6.387   8.065  0.5266 -4.1633  1.2836
  184SLPC  H18Z21216   1.422   6.364   7.957  0.8528  1.7179  0.1042
  185SLPC     N21217   3.262   1.944   5.617  0.7996 -0.2227  0.1273
  185SLPC   C1321218   3.372   1.976   5.523  0.4689 -0.2251  0.1937
  185SLPC  H13A21219   3.334   2.025   5.434 -2.7227  1.7600  2.4120
  185SLPC  H13B21220   3.436   2.045   5.575  0.3585 -1.1247  1.5654
  185SLPC  H13C21221   3.436   1.894   5.493 -0.3541 -0.3945 -1.1705
  185SLPC   C1421222   3.152   1.864   5.541  0.1912  0.3978 -0.2282
  185SLPC  H14A21223   3.179   1.769   5.500 -1.8241 -0.6180  0.6212
  185SLPC  H14B21224   3.067   1.848   5.607  0.4098  1.8292  0.4591
  185SLPC  H14C21225   3.108   1.926   5.464 -1.4089 -0.6925 -0.2375
  185SLPC   C1521226   3.201   2.072   5.674 -0.4447  0.3802 -0.4109
  185SLPC  H15A21227   3.171   2.142   5.597 -0.7377 -1.1866 -1.7667
  185SLPC  H15B21228   3.121   2.051   5.744 -1.5309 -0.4010 -1.8314
  185SLPC  H15C21229   3.270   2.128   5.735 -2.9667 -0.2939  3.4353
  185SLPC   C1221230   3.305   1.858   5.730 -0.3709  0.7698 -0.0128
  185SLPC  H12A21231   3.324   1.759   5.689  1.8665  1.8769 -1.9010
  185SLPC  H12B21232   3.224   1.850   5.801  1.3925 -1.9806  1.8880
  185SLPC   C1121233   3.435   1.897   5.803 -0.2607  0.1255  0.3497
  185SLPC  H11A21234   3.449   1.843   5.900  0.2158  0.2884  0.3753
  185SLPC  H11B21235   3.422   2.002   5.837  0.4575 -0.2577  1.9319
  185SLPC     P21236   3.687   1.966   5.732  0.2901  0.1692 -0.4175
  185SLPC   O1321237   3.798   1.887   5.675  0.5504  0.0458 -0.0300
  185SLPC   O1421238   3.666   2.104   5.675  0.2093  0.0048  0.7803
  185SLPC   O1221239   3.553   1.880   5.718 -0.4185  0.2003 -0.0624
  185SLPC   O1121240   3.713   1.988   5.889 -0.1153 -0.3526 -0.5411
  185SLPC    C121241   3.700   2.118   5.952 -0.4120 -0.2137  0.2535
  185SLPC    HA21242   3.755   2.194   5.892 -2.2651  0.0464 -1.1874
  185SLPC    HB21243   3.598   2.162   5.954 -0.8313 -1.1305 -0.2429
  185SLPC    C221244   3.755   2.119   6.102 -0.1540 -0.0897  0.2758
  185SLPC    HS21245   3.858   2.084   6.084  1.5186  3.2789  2.1979
  185SLPC   O2121246   3.682   2.020   6.179 -0.0009 -0.4641  0.1467
  185SLPC   C2121247   3.739   1.974   6.286 -0.0176 -0.0686  0.6681
  185SLPC   O2221248   3.851   2.001   6.323 -0.2236  0.4380 -0.2172
  185SLPC   C2221249   3.649   1.875   6.364  0.1823  0.8024 -0.5138
  185SLPC   H2R21250   3.542   1.902   6.359  0.4378  2.3903  1.4047
  185SLPC   H2S21251   3.667   1.776   6.319 -1.9732  0.5493 -0.9239
  185SLPC    C321252   3.776   2.261   6.164 -0.2939  0.3201  0.1415
  185SLPC    HX21253   3.865   2.308   6.116 -0.1711 -1.2963 -1.3166
  185SLPC    HY21254   3.813   2.260   6.269 -1.9601  2.6228  0.8257
  185SLPC   O3121255   3.657   2.336   6.157 -0.1066  0.6405  0.3465
  185SLPC   C3121256   3.576   2.323   6.269  0.0121 -0.3644 -0.5336
  185SLPC   O3221257   3.596   2.257   6.369 -0.6894 -0.0978 -0.0667
  185SLPC   C3221258   3.488   2.443   6.277  0.4738  0.3244  0.0399
  185SLPC   H2X21259   3.496   2.500   6.182  1.2532 -1.0961 -0.7863
  185SLPC   H2Y21260   3.506   2.511   6.363  0.8913 -0.4205  0.5520
  185SLPC   C2321261   3.693   1.879   6.516  0.6504 -0.6206 -0.3960
  185SLPC   H3R21262   3.657   1.975   6.557  0.2588 -1.0028  0.1636
  185SLPC   H3S21263   3.804   1.869   6.509  0.6672  0.1282 -1.4205
  185SLPC   C2421264   3.646   1.756   6.590 -0.0554 -0.5906 -0.2877
  185SLPC   H4R21265   3.689   1.658   6.560  1.8912 -0.5066  1.9176
  185SLPC   H4S21266   3.537   1.735   6.585  0.0592 -1.3554  0.1996
  185SLPC   C2521267   3.699   1.761   6.739  0.4180  0.2702 -0.3886
  185SLPC   H5R21268   3.810   1.770   6.741  0.7140 -2.4594 -0.6057
  185SLPC   H5S21269   3.680   1.661   6.781  1.6635  1.0027  2.0805
  185SLPC   C2621270   3.653   1.881   6.823 -0.2454 -0.0082  0.7359
  185SLPC   H6R21271   3.551   1.901   6.785 -0.2927  1.5034  1.5854
  185SLPC   H6S21272   3.723   1.966   6.807 -0.3735  0.7696  3.7247
  185SLPC   C2721273   3.655   1.862   6.976  0.6243 -0.4812  0.1510
  185SLPC   H7R21274   3.612   1.954   7.021  0.4439  0.0039 -0.9866
  185SLPC   H7S21275   3.761   1.858   7.009  0.2067 -2.1706  1.3984
  185SLPC   C2821276   3.566   1.739   7.023 -0.4792 -0.1910  0.7287
  185SLPC   H8R21277   3.571   1.746   7.134 -0.2129  4.6968  0.6392
  185SLPC   H8S21278   3.618   1.649   6.984  2.1945  2.1576 -1.6264
  185SLPC   C2921279   3.429   1.745   6.969 -0.5592 -0.0499 -0.0441
  185SLPC   H9R21280   3.432   1.735   6.860  0.8165 -0.9593  0.0523
  185SLPC  C21021281   3.318   1.787   7.033  0.2464 -0.5683  0.2513
  185SLPC  H10R21282   3.221   1.786   6.982  1.0606  0.7881 -1.4335
  185SLPC  C21121283   3.309   1.832   7.179  0.9637  0.2205  0.0759
  185SLPC  H11R21284   3.208   1.877   7.186 -0.2471 -2.3457  0.4605
  185SLPC  H11S21285   3.385   1.908   7.205  0.8334  0.4584 -0.2287
  185SLPC  C21221286   3.308   1.728   7.291  0.8978 -0.3292 -0.6461
  185SLPC  H12R21287   3.338   1.626   7.266 -1.3482 -1.5054  1.1061
  185SLPC  C21321288   3.277   1.749   7.421 -0.0069  0.9752  0.1548
  185SLPC  H13R21289   3.272   1.662   7.488 -2.3736 -0.3219 -1.5250
  185SLPC  C21421290   3.238   1.879   7.488  0.1126 -0.8114  1.2072
  185SLPC  H14R21291   3.204   1.860   7.592  2.0259 -0.2694  1.9599
  185SLPC  H14S21292   3.158   1.925   7.427  2.2770 -0.5050 -1.6055
  185SLPC  C21521293   3.348   1.989   7.492 -0.6802 -0.3144  0.7957
  185SLPC  H15R21294   3.373   2.032   7.392 -0.5018 -2.4427 -0.1243
  185SLPC  H15S21295   3.444   1.947   7.529  0.3839  1.4245  0.1353
  185SLPC  C21621296   3.310   2.111   7.579 -0.1529  0.1108  0.4491
  185SLPC  H16R21297   3.381   2.194   7.560 -1.2366  0.5721 -1.9462
  185SLPC  H16S21298   3.327   2.079   7.684 -1.7016 -1.2331  0.3305
  185SLPC  C21721299   3.160   2.156   7.562  0.0832 -0.4534  0.4148
  185SLPC  H17R21300   3.146   2.247   7.625  0.1947  1.0386 -1.6025
  185SLPC  H17S21301   3.089   2.083   7.605 -1.0001  0.7793  0.7772
  185SLPC  C21821302   3.134   2.207   7.416  0.2107 -0.4429 -0.1408
  185SLPC  H18R21303   3.224   2.182   7.355 -0.8263  0.3059 -2.0753
  185SLPC  H18S21304   3.145   2.317   7.408  0.5981 -0.5483 -1.3546
  185SLPC  H18T21305   3.037   2.173   7.373 -0.0246  0.1553 -0.0835
  185SLPC   C3321306   3.338   2.404   6.299  0.5793  0.1785 -0.0182
  185SLPC   H3X21307   3.312   2.322   6.229 -1.6350 -0.7521  1.7902
  185SLPC   H3Y21308   3.287   2.499   6.270  2.3395  0.4445 -2.6004
  185SLPC   C3421309   3.297   2.367   6.442 -0.1732 -0.2927 -0.1559
  185SLPC   H4X21310   3.328   2.438   6.522  0.0581 -2.8046  2.1505
  185SLPC   H4Y21311   3.344   2.270   6.470 -0.5734 -0.2202  0.7922
  185SLPC   C3521312   3.143   2.350   6.459 -0.2884  0.3881 -0.2092
  185SLPC   H5X21313   3.102   2.288   6.376  4.4773 -1.6240 -1.4273
  185SLPC   H5Y21314   3.109   2.454   6.443  1.9159  0.9364 -1.7358
  185SLPC   C3621315   3.095   2.297   6.599 -0.0978 -0.7641 -0.1474
  185SLPC   H6X21316   3.102   2.187   6.612  1.7788 -0.4842  1.8700
  185SLPC   H6Y21317   2.987   2.318   6.611 -0.1738 -2.1999  2.1920
  185SLPC   C3721318   3.172   2.371   6.713 -0.1887  0.4528 -0.4384
  185SLPC   H7X21319   3.194   2.473   6.677  0.4066  0.4420 -0.1138
  185SLPC   H7Y21320   3.273   2.326   6.727  0.0744  1.1624 -0.0599
  185SLPC   C3821321   3.097   2.373   6.836 -0.6904  0.0932 -0.6179
  185SLPC   H8X21322   3.056   2.272   6.859  1.1961 -0.5080  0.3115
  185SLPC   H8Y21323   3.015   2.449   6.834 -2.1824 -1.4089  0.3499
  185SLPC   C3921324   3.187   2.403   6.959 -0.3231  0.1016  0.6996
  185SLPC   H9X21325   3.258   2.485   6.937  0.2214 -0.3377  0.8084
  185SLPC   H9Y21326   3.243   2.314   6.994  0.2000  0.3023  0.3832
  185SLPC  C31021327   3.103   2.451   7.076  0.5274 -0.1385  0.0167
  185SLPC  H10X21328   3.078   2.362   7.137  0.7243 -0.7728 -0.8151
  185SLPC  H10Y21329   3.008   2.493   7.035  0.7456  0.3451 -0.0060
  185SLPC  C31121330   3.173   2.548   7.173 -0.7719 -0.0703 -0.1883
  185SLPC  H11X21331   3.203   2.643   7.125 -0.0761 -0.4099 -0.4304
  185SLPC  H11Y21332   3.268   2.504   7.210  0.2140  0.5741 -1.8874
  185SLPC  C31221333   3.073   2.589   7.288 -0.1532  0.2777  0.3646
  185SLPC  H12X21334   3.009   2.502   7.314 -0.2887  0.3067  0.1289
  185SLPC  H12Y21335   3.003   2.667   7.249 -0.0539 -0.6795 -1.8490
  185SLPC  C31321336   3.150   2.636   7.415  0.2204  0.3503 -0.2949
  185SLPC  H13X21337   3.200   2.731   7.389  2.8378 -1.1027 -1.0343
  185SLPC  H13Y21338   3.233   2.571   7.453  0.1600  0.8918  0.7975
  185SLPC  C31421339   3.057   2.650   7.538  0.0122  0.6697  0.7716
  185SLPC  H14X21340   2.993   2.740   7.526 -1.7899 -0.3214  2.3656
  185SLPC  H14Y21341   3.118   2.676   7.626 -0.4103 -1.2908  1.7104
  185SLPC  C31521342   2.975   2.528   7.577 -0.2958  0.4349  0.0048
  185SLPC  H15X21343   3.050   2.449   7.556  3.0853  3.4333 -0.2679
  185SLPC  H15Y21344   2.888   2.528   7.508 -0.6333 -0.0551  0.4242
  185SLPC  C31621345   2.923   2.530   7.722  0.6687  0.5998 -0.4936
  185SLPC  H16X21346   2.873   2.629   7.730  2.0319  1.1921  1.5595
  185SLPC  H16Y21347   3.005   2.527   7.797  0.0387  1.2517  0.2465
  185SLPC  C31721348   2.814   2.427   7.756 -0.4242  0.1494 -0.4911
  185SLPC  H17X21349   2.860   2.328   7.736 -2.0449 -0.7229 -0.0624
  185SLPC  H17Y21350   2.736   2.431   7.676  0.9614  0.3643 -1.8832
  185SLPC  C31821351   2.754   2.432   7.896 -0.0497 -0.1833  0.1411
  185SLPC  H18X21352   2.706   2.528   7.926 -1.5782 -1.4156  1.8422
  185SLPC  H18Y21353   2.822   2.399   7.978  1.0857  0.7873 -0.3769
  185SLPC  H18Z21354   2.671   2.358   7.894 -2.1005  1.9952 -0.2122
  186SLPC     N21355   3.139   4.835   5.633  0.3310 -0.4732  0.2184
  186SLPC   C1321356   3.030   4.807   5.729  0.9402 -0.4852 -0.6679
  186SLPC  H13A21357   3.056   4.815   5.833 -0.0302 -0.2988 -0.4285
  186SLPC  H13B21358   2.942   4.866   5.710 -0.2769 -1.7169  0.8653
  186SLPC  H13C21359   3.013   4.701   5.718  3.8754 -1.0096 -1.1085
  186SLPC   C1421360   3.085   4.804   5.502 -0.6255 -0.7000  0.2470
  186SLPC  H14A21361   2.985   4.844   5.497 -0.6355 -0.6143  1.0011
  186SLPC  H14B21362   3.150   4.837   5.422 -0.4215 -0.5133  0.4913
  186SLPC  H14C21363   3.064   4.700   5.483 -1.8481 -0.2656 -0.8934
  186SLPC   C1521364   3.251   4.749   5.650  0.1749 -0.2840  0.3812
  186SLPC  H15A21365   3.231   4.645   5.674 -2.9942 -0.0277 -0.7089
  186SLPC  H15B21366   3.317   4.763   5.566 -2.1638 -0.0827 -1.5337
  186SLPC  H15C21367   3.293   4.783   5.743 -2.8811 -1.1828  2.2229
  186SLPC   C1221368   3.177   4.989   5.640  0.4163 -0.0716  0.2764
  186SLPC  H12A21369   3.092   5.042   5.599  2.0140  0.0287 -3.2737
  186SLPC  H12B21370   3.263   4.997   5.575  1.0314  1.0865  1.2093
  186SLPC   C1121371   3.218   5.033   5.788 -0.2561  0.4582 -0.0213
  186SLPC  H11A21372   3.130   5.038   5.856 -0.2391  2.1915 -0.0631
  186SLPC  H11B21373   3.240   5.141   5.772 -0.7491  0.0030 -5.4995
  186SLPC     P21374   3.470   5.005   5.835 -0.1649  0.5281 -0.1282
  186SLPC   O1321375   3.552   4.905   5.907  0.1371 -0.2563 -0.4829
  186SLPC   O1421376   3.510   5.025   5.694 -0.2426  0.6370 -0.0551
  186SLPC   O1221377   3.324   4.954   5.839 -0.3566 -0.4745  0.1929
  186SLPC   O1121378   3.467   5.133   5.928 -0.6313 -0.6806  0.3868
  186SLPC    C121379   3.419   5.120   6.061  0.5021  0.2104  0.1147
  186SLPC    HA21380   3.308   5.127   6.061  0.3776  0.2985  4.1302
  186SLPC    HB21381   3.452   5.028   6.113  0.3794 -1.4278 -2.5075
  186SLPC    C221382   3.491   5.221   6.155  0.0848  0.1553 -0.4083
  186SLPC    HS21383   3.491   5.186   6.260  1.0367 -0.1254 -0.4963
  186SLPC   O2121384   3.433   5.345   6.141  0.0953  0.0124 -0.5367
  186SLPC   C2121385   3.409   5.414   6.253 -0.5993  0.0012 -0.6529
  186SLPC   O2221386   3.419   5.368   6.368  0.3493  0.1694  0.2141
  186SLPC   C2221387   3.348   5.551   6.225  0.8845 -0.3967  0.3080
  186SLPC   H2R21388   3.428   5.619   6.187  0.1907  0.4588  0.3373
  186SLPC   H2S21389   3.268   5.545   6.148 -1.5519  0.4528  2.5983
  186SLPC    C321390   3.643   5.236   6.134 -0.2218 -0.2048  0.0041
  186SLPC    HX21391   3.653   5.296   6.041  3.4048  0.7130  0.8201
  186SLPC    HY21392   3.672   5.130   6.120  0.9534  0.1061  0.0383
  186SLPC   O3121393   3.720   5.291   6.249  0.4496  0.1029  0.2952
  186SLPC   C3121394   3.723   5.425   6.262 -0.5608  0.3528 -0.4866
  186SLPC   O3221395   3.670   5.502   6.183  0.7431 -0.3427 -0.3053
  186SLPC   C3221396   3.804   5.460   6.386  0.3259 -0.1070 -0.1899
  186SLPC   H2X21397   3.896   5.508   6.346 -2.3816  2.3623 -4.2571
  186SLPC   H2Y21398   3.826   5.373   6.451  2.5392  0.6857  0.2099
  186SLPC   C2321399   3.282   5.631   6.341 -0.3115  0.0159 -0.4630
  186SLPC   H3R21400   3.341   5.611   6.434 -2.2618  1.1092  1.0962
  186SLPC   H3S21401   3.181   5.586   6.344 -0.5607  0.5527 -0.7630
  186SLPC   C2421402   3.272   5.779   6.307  0.4571  0.3062 -0.3145
  186SLPC   H4R21403   3.227   5.794   6.207  2.0185 -0.7053 -1.2127
  186SLPC   H4S21404   3.377   5.818   6.307  0.0379  1.5429 -1.7069
  186SLPC   C2521405   3.183   5.866   6.397 -0.0814 -0.2334  0.2380
  186SLPC   H5R21406   3.198   5.975   6.382 -2.2176 -0.0282 -0.7918
  186SLPC   H5S21407   3.206   5.846   6.504 -0.1133  3.0526  0.9540
  186SLPC   C2621408   3.028   5.829   6.399  0.1538 -0.2127  0.3576
  186SLPC   H6R21409   2.963   5.898   6.457 -0.8501  0.2065 -1.1985
  186SLPC   H6S21410   3.003   5.730   6.445 -2.4738  0.4731  0.5606
  186SLPC   C2721411   2.962   5.815   6.256  0.1795  0.1948  0.7191
  186SLPC   H7R21412   3.012   5.732   6.201  0.5449  1.4273 -0.9084
  186SLPC   H7S21413   2.978   5.906   6.195  0.7689  1.0548  2.1268
  186SLPC   C2821414   2.814   5.767   6.269  0.1244 -0.3845  0.1009
  186SLPC   H8R21415   2.781   5.742   6.166 -0.0240  4.6752 -1.3584
  186SLPC   H8S21416   2.748   5.857   6.268 -0.4686 -0.8107 -1.0417
  186SLPC   C2921417   2.776   5.665   6.373 -0.2283 -0.3602  0.1372
  186SLPC   H9R21418   2.831   5.572   6.354  0.4504  0.1178 -0.3136
  186SLPC  C21021419   2.702   5.694   6.476  0.6492 -0.8433  0.2944
  186SLPC  H10R21420   2.679   5.601   6.531  1.3453 -0.9162  0.4837
  186SLPC  C21121421   2.635   5.820   6.526  0.0998  0.1775 -0.2248
  186SLPC  H11R21422   2.529   5.823   6.493 -0.8768 -1.0695  2.4841
  186SLPC  H11S21423   2.677   5.911   6.478 -0.5615  0.5983 -0.0241
  186SLPC  C21221424   2.621   5.837   6.673  0.5667  0.3402 -0.0451
  186SLPC  H12R21425   2.523   5.876   6.707  1.4930  2.5451  0.3077
  186SLPC  C21321426   2.720   5.831   6.768  0.1620  0.1511 -0.0323
  186SLPC  H13R21427   2.691   5.850   6.872  0.2968  0.3087 -0.0218
  186SLPC  C21421428   2.859   5.779   6.763 -0.7125  0.0902 -0.1426
  186SLPC  H14R21429   2.926   5.852   6.813  2.4245 -1.1100 -2.2713
  186SLPC  H14S21430   2.897   5.754   6.662  2.3194 -1.9567  1.3282
  186SLPC  C21521431   2.882   5.646   6.840 -0.3183 -0.6096 -0.7451
  186SLPC  H15R21432   2.983   5.609   6.813  0.5842 -0.1587  1.8148
  186SLPC  H15S21433   2.796   5.579   6.823  0.1504 -1.5411  0.4669
  186SLPC  C21621434   2.892   5.663   6.994  0.1242 -0.1945  0.1510
  186SLPC  H16R21435   2.806   5.721   7.035  0.1826 -2.4939  4.1558
  186SLPC  H16S21436   2.979   5.730   7.009 -0.9232  0.9760  1.2588
  186SLPC  C21721437   2.888   5.528   7.076 -0.4207  0.3700 -0.2460
  186SLPC  H17R21438   2.971   5.467   7.033  0.5582  1.0143  0.6820
  186SLPC  H17S21439   2.792   5.475   7.058  0.3112 -1.2017  0.3133
  186SLPC  C21821440   2.907   5.537   7.232  0.2273  0.3298  0.3523
  186SLPC  H18R21441   2.932   5.435   7.270  1.8489  0.7075  0.3751
  186SLPC  H18S21442   2.806   5.556   7.274 -1.9600 -0.8632 -3.7571
  186SLPC  H18T21443   2.985   5.608   7.265 -0.2649  0.7250  0.6744
  186SLPC   C3321444   3.745   5.571   6.480  0.5286  0.5913  0.5865
  186SLPC   H3X21445   3.652   5.527   6.521  0.2873 -0.2028 -0.7305
  186SLPC   H3Y21446   3.724   5.661   6.419  0.7449  0.7240  0.7069
  186SLPC   C3421447   3.842   5.603   6.592 -1.0665 -0.4029 -0.3287
  186SLPC   H4X21448   3.943   5.628   6.553 -0.7200  0.6017  1.1281
  186SLPC   H4Y21449   3.842   5.510   6.652  0.8793 -1.7020 -2.2078
  186SLPC   C3521450   3.799   5.729   6.677  0.0304  0.3732  0.0893
  186SLPC   H5X21451   3.700   5.697   6.716  0.8072 -0.3926  1.5211
  186SLPC   H5Y21452   3.792   5.815   6.607  1.1632  1.4579  1.2471
  186SLPC   C3621453   3.898   5.752   6.792 -0.7877 -0.2678 -0.2086
  186SLPC   H6X21454   3.999   5.780   6.756 -0.5095 -0.4478  0.4170
  186SLPC   H6Y21455   3.925   5.663   6.853  1.0353  1.7085  2.0385
  186SLPC   C3721456   3.854   5.863   6.891  0.8848  0.3584  0.6084
  186SLPC   H7X21457   3.755   5.828   6.929  0.5685  0.5972  0.0181
  186SLPC   H7Y21458   3.847   5.953   6.825 -0.5579  1.1329  1.7528
  186SLPC   C3821459   3.945   5.901   7.003 -0.4768 -0.1611  0.2047
  186SLPC   H8X21460   3.931   6.004   7.043  1.5134  1.3042 -2.5148
  186SLPC   H8Y21461   4.039   5.915   6.945 -0.6693  0.0922 -0.0497
  186SLPC   C3921462   3.948   5.796   7.117  0.4743 -0.2438 -0.1429
  186SLPC   H9X21463   3.959   5.697   7.068  0.2415  0.0438 -0.7823
  186SLPC   H9Y21464   3.856   5.790   7.180  0.9245 -2.0177  0.3911
  186SLPC  C31021465   4.052   5.853   7.220 -0.2403  0.1316  0.5398
  186SLPC  H10X21466   4.010   5.945   7.264 -1.9518 -0.4675  0.2208
  186SLPC  H10Y21467   4.151   5.875   7.175  1.4956 -3.3221  2.2140
  186SLPC  C31121468   4.087   5.753   7.335 -0.1657  0.4079  0.6322
  186SLPC  H11X21469   4.147   5.667   7.300 -2.0306 -0.6106 -0.2223
  186SLPC  H11Y21470   3.984   5.727   7.370 -0.7059  2.1589  0.4836
  186SLPC  C31221471   4.167   5.825   7.451  0.0677  0.2716 -0.2061
  186SLPC  H12X21472   4.107   5.918   7.464  0.2106  0.4602 -0.8377
  186SLPC  H12Y21473   4.270   5.845   7.416  0.9998  0.2502  2.3315
  186SLPC  C31321474   4.164   5.753   7.582  0.1453 -1.1038 -0.4797
  186SLPC  H13X21475   4.209   5.653   7.568  1.1028 -0.6417 -0.7798
  186SLPC  H13Y21476   4.057   5.733   7.602  0.1174 -0.3040  0.2406
  186SLPC  C31421477   4.233   5.845   7.683 -0.1682  0.1655  0.4282
  186SLPC  H14X21478   4.196   5.949   7.674 -2.8050 -0.5691  1.6642
  186SLPC  H14Y21479   4.337   5.834   7.646 -1.1481 -3.2427 -1.8330
  186SLPC  C31521480   4.217   5.809   7.837  0.5689  0.4222 -0.5257
  186SLPC  H15X21481   4.260   5.892   7.897 -0.6321  1.0936 -0.5531
  186SLPC  H15Y21482   4.263   5.708   7.841  0.0060  0.1753 -0.1904
  186SLPC  C31621483   4.080   5.810   7.889  0.2490 -0.3371  0.2563
  186SLPC  H16X21484   4.025   5.727   7.839  1.4643 -0.7363 -0.4489
  186SLPC  H16Y21485   4.023   5.899   7.855  0.2478 -0.5278 -0.2455
  186SLPC  C31721486   4.065   5.798   8.039 -0.2186 -0.1182  0.0155
  186SLPC  H17X21487   4.049   5.892   8.096 -2.3641  1.2004 -2.5274
  186SLPC  H17Y21488   4.152   5.745   8.083  0.2738  0.2983 -0.4383
  186SLPC  C31821489   3.947   5.706   8.065 -0.1332 -0.3428 -0.2613
  186SLPC  H18X21490   3.952   5.606   8.017  0.6830  0.0448 -0.9997
  186SLPC  H18Y21491   3.849   5.748   8.033 -1.7219 -0.8998  3.3085
  186SLPC  H18Z21492   3.933   5.675   8.171 -0.6612  2.5885  0.6093
  187SLPC     N21493   3.586   1.198   5.421 -0.1378  0.1367  0.1350
  187SLPC   C1321494   3.457   1.212   5.352  0.3518 -0.4876 -0.2132
  187SLPC  H13A21495   3.428   1.121   5.301  1.5139  0.2457 -2.2655
  187SLPC  H13B21496   3.381   1.246   5.421  1.5095  1.8430 -0.0143
  187SLPC  H13C21497   3.466   1.292   5.280  1.0658 -0.5689 -0.2172
  187SLPC   C1421498   3.624   1.335   5.463  0.0656 -0.0775  0.1057
  187SLPC  H14A21499   3.542   1.369   5.524 -0.7526  0.0844 -1.0440
  187SLPC  H14B21500   3.718   1.328   5.516 -0.1822  0.0229  0.5659
  187SLPC  H14C21501   3.646   1.401   5.381  1.9442 -0.1047  0.5305
  187SLPC   C1521502   3.696   1.153   5.335 -0.1671 -0.1051  0.5035
  187SLPC  H15A21503   3.675   1.056   5.293  1.3303  0.3533 -1.4482
  187SLPC  H15B21504   3.702   1.226   5.255  0.9773 -0.0613  0.6054
  187SLPC  H15C21505   3.790   1.152   5.389  0.7486 -0.5640 -1.0233
  187SLPC   C1221506   3.586   1.119   5.555 -0.0038  0.7648 -0.2829
  187SLPC  H12A21507   3.687   1.124   5.593 -0.5771 -1.1531  1.6068
  187SLPC  H12B21508   3.568   1.016   5.529  0.3795  0.4910  0.5019
  187SLPC   C1121509   3.489   1.151   5.668  0.1613 -0.3013  0.5001
  187SLPC  H11A21510   3.517   1.253   5.702 -1.5525  0.0535  0.9058
  187SLPC  H11B21511   3.499   1.080   5.752 -1.1939  1.4489  2.2204
  187SLPC     P21512   3.264   1.031   5.638  0.2737 -0.4679 -0.3038
  187SLPC   O1321513   3.118   1.058   5.623 -0.1131  0.4066 -0.1794
  187SLPC   O1421514   3.315   0.920   5.557  0.1327  0.2985  0.1665
  187SLPC   O1221515   3.352   1.160   5.614 -0.4101  0.5229 -0.5466
  187SLPC   O1121516   3.286   0.997   5.793 -0.3993 -0.2730 -0.2533
  187SLPC    C121517   3.220   1.061   5.897  0.0345  0.4075 -0.2570
  187SLPC    HA21518   3.111   1.047   5.879  0.0020  2.1509 -1.6862
  187SLPC    HB21519   3.255   1.003   5.985  1.4131 -0.5808 -1.4195
  187SLPC    C221520   3.225   1.215   5.916  0.2118  0.5228  0.0248
  187SLPC    HS21521   3.242   1.266   5.819 -0.2092  1.8398  0.6166
  187SLPC   O2121522   3.339   1.246   5.991  0.4235 -0.6207 -0.0880
  187SLPC   C2121523   3.381   1.371   5.994  0.5121  0.1388  0.5303
  187SLPC   O2221524   3.320   1.466   5.943 -0.1071 -0.6101  0.6818
  187SLPC   C2221525   3.517   1.366   6.065 -0.6262 -1.2798 -0.4357
  187SLPC   H2R21526   3.541   1.278   6.128  1.9368 -1.2279 -1.2205
  187SLPC   H2S21527   3.599   1.373   5.991  0.6380 -2.1741  0.8287
  187SLPC    C321528   3.095   1.267   5.989  0.6812  0.7156  0.2229
  187SLPC    HX21529   3.012   1.234   5.922  1.0545  0.3801 -0.0838
  187SLPC    HY21530   3.090   1.378   5.985  2.4524  0.7968 -0.7014
  187SLPC   O3121531   3.071   1.208   6.122  0.1184  0.6722  0.0096
  187SLPC   C3121532   3.094   1.303   6.216  0.7253  0.0162 -0.1888
  187SLPC   O3221533   3.115   1.422   6.195 -0.3863  0.4487 -0.3880
  187SLPC   C3221534   3.074   1.245   6.356  0.1465 -0.2540 -0.0262
  187SLPC   H2X21535   3.139   1.154   6.363  1.7556  0.9227  1.2920
  187SLPC   H2Y21536   2.969   1.213   6.370  0.3542 -0.7771  0.3721
  187SLPC   C2321537   3.532   1.494   6.155  0.1135  0.0426 -0.4646
  187SLPC   H3R21538   3.496   1.577   6.091  0.2905 -0.4049 -1.1509
  187SLPC   H3S21539   3.641   1.508   6.173  0.2731 -0.7475 -0.7836
  187SLPC   C2421540   3.466   1.484   6.298 -0.5576 -0.6654  0.0651
  187SLPC   H4R21541   3.365   1.438   6.300 -2.0440  2.3490  1.9423
  187SLPC   H4S21542   3.442   1.591   6.316  0.6455 -0.6255  1.6226
  187SLPC   C2521543   3.565   1.432   6.399 -0.1494 -0.6121 -0.4090
  187SLPC   H5R21544   3.653   1.498   6.414  0.6335 -1.6878 -0.1850
  187SLPC   H5S21545   3.598   1.336   6.353 -1.4332 -1.5140  0.5050
  187SLPC   C2621546   3.494   1.419   6.536 -0.5362  0.4571 -0.4279
  187SLPC   H6R21547   3.404   1.353   6.531 -0.0906 -0.0986 -1.3365
  187SLPC   H6S21548   3.462   1.520   6.571 -0.9721  1.3165 -3.1015
  187SLPC   C2721549   3.595   1.370   6.643 -0.8397 -0.2449 -0.2786
  187SLPC   H7R21550   3.671   1.450   6.661 -1.3226 -0.0717  1.1447
  187SLPC   H7S21551   3.648   1.287   6.591 -1.3332 -0.2656 -0.7599
  187SLPC   C2821552   3.539   1.333   6.781  0.6483 -0.3258  0.2795
  187SLPC   H8R21553   3.478   1.420   6.814  3.0645  2.2199 -1.5349
  187SLPC   H8S21554   3.627   1.329   6.848  1.6117  2.2122 -0.7209
  187SLPC   C2921555   3.461   1.206   6.792 -0.1267  0.6336  0.3512
  187SLPC   H9R21556   3.423   1.173   6.694  0.0905  1.6683 -0.0920
  187SLPC  C21021557   3.452   1.135   6.902 -0.5299  0.7917 -0.9746
  187SLPC  H10R21558   3.377   1.055   6.911 -1.0623  1.0458 -2.6741
  187SLPC  C21121559   3.515   1.157   7.032 -0.3825 -0.1395  0.6002
  187SLPC  H11R21560   3.576   1.250   7.044 -0.4990  0.3424 -1.8573
  187SLPC  H11S21561   3.588   1.076   7.055 -0.9402 -0.4042  1.4609
  187SLPC  C21221562   3.425   1.154   7.146  0.0029  0.1696  0.4686
  187SLPC  H12R21563   3.331   1.097   7.134  0.5834 -0.6784 -0.1155
  187SLPC  C21321564   3.445   1.214   7.265  0.4898  0.2804 -0.1839
  187SLPC  H13R21565   3.381   1.180   7.348 -0.0916  0.4363 -0.5655
  187SLPC  C21421566   3.565   1.283   7.319 -0.2664  0.2582 -0.2411
  187SLPC  H14R21567   3.649   1.264   7.249 -0.7510  0.9863 -1.0401
  187SLPC  H14S21568   3.603   1.242   7.415  0.2972 -2.3812 -1.4812
  187SLPC  C21521569   3.559   1.436   7.302  0.3371  0.8352 -0.3203
  187SLPC  H15R21570   3.499   1.477   7.387  0.1900 -0.2065  0.0923
  187SLPC  H15S21571   3.507   1.475   7.212 -0.7675  2.0001  0.7760
  187SLPC  C21621572   3.697   1.503   7.306 -0.3523  0.7898 -1.6256
  187SLPC  H16R21573   3.684   1.613   7.317 -0.3395  0.7018 -0.6204
  187SLPC  H16S21574   3.744   1.481   7.208 -1.2590  0.0052 -1.9042
  187SLPC  C21721575   3.800   1.457   7.415  0.2688 -0.3192 -0.5914
  187SLPC  H17R21576   3.891   1.513   7.384 -0.9661  0.6475 -2.5943
  187SLPC  H17S21577   3.815   1.347   7.410  1.2279 -0.2518  0.3181
  187SLPC  C21821578   3.759   1.488   7.565  0.0713 -1.1002  0.5445
  187SLPC  H18R21579   3.657   1.453   7.594  1.3092 -1.8212  4.5783
  187SLPC  H18S21580   3.762   1.599   7.575  0.9166 -0.9462 -1.0754
  187SLPC  H18T21581   3.819   1.443   7.647  1.0606 -3.6826 -1.4559
  187SLPC   C3321582   3.109   1.348   6.460  0.1106 -0.1768 -0.3453
  187SLPC   H3X21583   3.037   1.430   6.439 -0.4372 -1.0052 -1.8263
  187SLPC   H3Y21584   3.216   1.381   6.459 -0.4348  1.9949  1.7970
  187SLPC   C3421585   3.095   1.304   6.605 -0.1846 -0.3478 -0.4576
  187SLPC   H4X21586   3.178   1.231   6.622  0.1920  0.3938  1.0256
  187SLPC   H4Y21587   3.001   1.250   6.630 -1.3039  2.2489  1.3522
  187SLPC   C3521588   3.125   1.417   6.713  0.1873  0.1468 -0.5082
  187SLPC   H5X21589   3.047   1.495   6.704 -0.7215 -0.8319 -1.3773
  187SLPC   H5Y21590   3.229   1.450   6.693  0.9166 -1.6333  0.0612
  187SLPC   C3621591   3.122   1.364   6.859  0.4041 -0.2471  0.0877
  187SLPC   H6X21592   3.200   1.294   6.896  0.6219  1.0475  2.2411
  187SLPC   H6Y21593   3.024   1.314   6.878  0.5264  0.0653  1.6651
  187SLPC   C3721594   3.113   1.482   6.962 -0.7571 -0.2668  0.5133
  187SLPC   H7X21595   3.207   1.541   6.954 -1.4675  0.6620 -1.6489
  187SLPC   H7Y21596   3.032   1.553   6.936  0.8639  1.7236  0.5776
  187SLPC   C3821597   3.112   1.431   7.110 -0.4879 -1.0590  0.2794
  187SLPC   H8X21598   3.140   1.507   7.185 -0.5086 -1.1102  0.3395
  187SLPC   H8Y21599   3.177   1.343   7.130 -0.8108 -0.6983  3.3583
  187SLPC   C3921600   2.967   1.398   7.150  0.5572  0.7411 -0.1037
  187SLPC   H9X21601   2.939   1.310   7.088 -1.0466  1.2703 -0.1594
  187SLPC   H9Y21602   2.897   1.478   7.120  1.9882  1.7196 -0.9629
  187SLPC  C31021603   2.951   1.350   7.296 -0.0184  0.0110 -0.6105
  187SLPC  H10X21604   3.034   1.277   7.304  0.6144  0.9291  3.2460
  187SLPC  H10Y21605   2.857   1.291   7.295  1.1800 -1.9663 -0.2683
  187SLPC  C31121606   2.958   1.454   7.408 -0.3860 -0.1668 -0.7557
  187SLPC  H11X21607   2.883   1.535   7.393 -1.8128 -1.2326  0.3475
  187SLPC  H11Y21608   3.053   1.510   7.395 -2.3264  3.4735 -0.5974
  187SLPC  C31221609   2.946   1.401   7.548  0.1882 -0.4984 -0.3805
  187SLPC  H12X21610   2.840   1.372   7.563  0.5315 -1.5319  0.0963
  187SLPC  H12Y21611   2.964   1.482   7.622 -3.0313 -0.3549  0.3715
  187SLPC  C31321612   3.037   1.288   7.594  0.4289  0.0027 -0.1573
  187SLPC  H13X21613   3.027   1.204   7.522 -0.3386  0.2281 -0.3215
  187SLPC  H13Y21614   3.012   1.256   7.698 -0.6227 -0.6245 -0.5864
  187SLPC  C31421615   3.188   1.328   7.597 -0.3948  0.4712 -0.5647
  187SLPC  H14X21616   3.214   1.358   7.493 -2.4115  1.4112 -0.8504
  187SLPC  H14Y21617   3.247   1.240   7.631 -1.3006  1.1024  3.1044
  187SLPC  C31521618   3.229   1.432   7.703 -0.3990 -0.3522 -0.1447
  187SLPC  H15X21619   3.206   1.396   7.806  0.9577 -0.9843 -0.0477
  187SLPC  H15Y21620   3.183   1.527   7.669  1.3229  0.7020  0.3691
  187SLPC  C31621621   3.381   1.463   7.708  0.4296  0.4420  0.3192
  187SLPC  H16X21622   3.414   1.492   7.606  1.8826 -1.3864  0.2084
  187SLPC  H16Y21623   3.441   1.374   7.738 -1.3412 -0.2127  2.1778
  187SLPC  C31721624   3.415   1.571   7.809 -0.4010 -0.7717 -0.2168
  187SLPC  H17X21625   3.526   1.585   7.806 -0.7516  3.2007 -0.0890
  187SLPC  H17Y21626   3.409   1.545   7.917  0.7764  1.8388  0.5628
  187SLPC  C31821627   3.353   1.708   7.790 -0.3014 -0.6739 -0.1492
  187SLPC  H18X21628   3.384   1.768   7.702 -0.2830 -0.7231 -0.1766
  187SLPC  H18Y21629   3.379   1.768   7.880  1.6433  1.4155 -1.9676
  187SLPC  H18Z21630   3.242   1.707   7.787 -0.3029 -0.6480 -0.0982
  188SLPC     N21631   5.616   3.508   5.908 -0.4263  0.1621  0.3652
  188SLPC   C1321632   5.541   3.461   6.032 -0.2125  0.6823  0.0778
  188SLPC  H13A21633   5.437   3.467   6.002  0.4149  0.2639 -2.4528
  188SLPC  H13B21634   5.560   3.355   6.043 -1.0947  0.7373  2.6413
  188SLPC  H13C21635   5.556   3.513   6.125 -1.0497 -0.2433  0.7579
  188SLPC   C1421636   5.761   3.477   5.927  0.4157 -1.0933 -0.5026
  188SLPC  H14A21637   5.814   3.502   5.836  1.7799  0.6431  0.6932
  188SLPC  H14B21638   5.810   3.544   5.996 -2.9935 -0.2290  1.3503
  188SLPC  H14C21639   5.787   3.377   5.956 -0.0223 -0.6758  1.4692
  188SLPC   C1521640   5.604   3.656   5.876 -0.2936  0.3127 -0.3444
  188SLPC  H15A21641   5.505   3.695   5.858 -0.1400  0.5366 -0.7359
  188SLPC  H15B21642   5.640   3.711   5.962  0.1581  2.0372 -1.5729
  188SLPC  H15C21643   5.663   3.684   5.789  0.2815  1.3282  0.3418
  188SLPC   C1221644   5.566   3.424   5.791  0.1322  0.0206 -0.5875
  188SLPC  H12A21645   5.576   3.319   5.812  3.2975  0.3822  0.2034
  188SLPC  H12B21646   5.642   3.432   5.714  1.5345 -1.4341  0.5807
  188SLPC   C1121647   5.420   3.442   5.737  0.0439  0.1917 -0.1092
  188SLPC  H11A21648   5.399   3.387   5.643 -1.1315 -1.7915  1.2155
  188SLPC  H11B21649   5.407   3.551   5.720  1.5730  0.1700 -1.7343
  188SLPC     P21650   5.265   3.252   5.831  0.3440 -0.5407 -0.5590
  188SLPC   O1321651   5.161   3.247   5.935  0.5245  0.4319 -0.4505
  188SLPC   O1421652   5.224   3.225   5.696  0.3711 -0.1098  0.0144
  188SLPC   O1221653   5.323   3.397   5.833  0.3225  0.5190  0.0527
  188SLPC   O1121654   5.392   3.159   5.857  0.0899  0.0904  0.4073
  188SLPC    C121655   5.390   3.043   5.940  0.3608  0.4158 -0.8208
  188SLPC    HA21656   5.284   3.033   5.972 -0.8080  0.2759 -4.2935
  188SLPC    HB21657   5.418   2.954   5.880  0.6269 -1.6581  2.1836
  188SLPC    C221658   5.487   3.060   6.058  0.2590  0.5641  0.2939
  188SLPC    HS21659   5.484   2.965   6.115 -1.4953 -1.3261 -2.6861
  188SLPC   O2121660   5.460   3.176   6.135 -0.0737 -0.2910  0.3812
  188SLPC   C2121661   5.364   3.163   6.217  0.1977  0.6513 -0.4988
  188SLPC   O2221662   5.283   3.068   6.221  0.1274  0.2582 -0.3836
  188SLPC   C2221663   5.359   3.286   6.309  0.7463  0.1423  0.7611
  188SLPC   H2R21664   5.459   3.295   6.356  0.8689 -0.2166  0.5762
  188SLPC   H2S21665   5.329   3.372   6.246 -2.3435 -1.4590 -0.1542
  188SLPC    C321666   5.630   3.084   6.005 -0.4797 -0.2481  0.3259
  188SLPC    HX21667   5.648   3.183   5.958  2.5341 -0.1279  1.5377
  188SLPC    HY21668   5.634   3.008   5.924 -2.8510  0.0456 -0.1518
  188SLPC   O3121669   5.725   3.045   6.110  0.3475 -0.6669 -0.1001
  188SLPC   C3121670   5.786   3.148   6.170  0.3313 -0.7236 -0.7126
  188SLPC   O3221671   5.752   3.264   6.142 -0.1297  0.2565  0.1352
  188SLPC   C3221672   5.893   3.106   6.270 -0.4891  0.3244  0.5263
  188SLPC   H2X21673   5.984   3.162   6.238  0.1500 -0.9503  0.0514
  188SLPC   H2Y21674   5.914   2.999   6.246  0.8240  0.8806 -1.0570
  188SLPC   C2321675   5.252   3.280   6.428 -0.8174 -0.3086  0.4655
  188SLPC   H3R21676   5.269   3.180   6.473 -2.5354 -1.1225 -0.5455
  188SLPC   H3S21677   5.149   3.282   6.384 -0.3564 -0.1460 -0.6310
  188SLPC   C2421678   5.282   3.383   6.533  0.2636 -0.2466 -0.2754
  188SLPC   H4R21679   5.265   3.484   6.488 -1.7108  0.0582  1.0198
  188SLPC   H4S21680   5.389   3.387   6.563  0.2655  2.1142 -0.3618
  188SLPC   C2521681   5.182   3.361   6.646  0.2394 -0.3270 -0.4062
  188SLPC   H5R21682   5.193   3.264   6.700 -0.6847 -1.4546 -2.1663
  188SLPC   H5S21683   5.080   3.367   6.602  0.6592  1.3051 -1.2046
  188SLPC   C2621684   5.192   3.464   6.764 -0.3125  0.0251  0.7330
  188SLPC   H6R21685   5.181   3.568   6.727 -0.0549 -0.2444 -0.1077
  188SLPC   H6S21686   5.298   3.458   6.798 -0.2626 -1.3698  0.4020
  188SLPC   C2721687   5.096   3.432   6.873 -0.7096 -0.2101 -1.0550
  188SLPC   H7R21688   5.129   3.346   6.935  0.3245  1.3091  0.5883
  188SLPC   H7S21689   5.003   3.397   6.824 -0.0527 -1.2038 -1.6392
  188SLPC   C2821690   5.061   3.555   6.967  0.1244  0.1231  0.7191
  188SLPC   H8R21691   4.958   3.530   7.001 -1.3945  1.3021 -2.5730
  188SLPC   H8S21692   5.052   3.641   6.897 -1.1427  0.3819  1.1627
  188SLPC   C2921693   5.166   3.582   7.071 -0.0135  0.3097 -0.0953
  188SLPC   H9R21694   5.270   3.602   7.042 -0.0121  2.2364  1.0612
  188SLPC  C21021695   5.147   3.592   7.203  0.6890 -0.3364  0.4907
  188SLPC  H10R21696   5.233   3.602   7.271  0.8220  1.4620  0.1058
  188SLPC  C21121697   5.011   3.556   7.265 -0.6746 -0.0871  1.3094
  188SLPC  H11R21698   4.937   3.519   7.191 -0.2838  3.4356 -1.0584
  188SLPC  H11S21699   4.969   3.652   7.300 -0.7362 -0.5488  2.5916
  188SLPC  C21221700   5.020   3.459   7.379 -0.4423 -0.5765 -0.1514
  188SLPC  H12R21701   5.032   3.354   7.348  0.7618 -0.4792 -0.0600
  188SLPC  C21321702   5.003   3.481   7.510 -0.7387 -0.2553  0.2974
  188SLPC  H13R21703   5.019   3.402   7.585 -1.4577 -1.5368 -0.8532
  188SLPC  C21421704   4.985   3.624   7.566  0.3656  0.2097 -0.5839
  188SLPC  H14R21705   4.976   3.702   7.487  2.6476  0.5501 -0.5672
  188SLPC  H14S21706   5.078   3.651   7.619  1.1915 -0.8150 -1.4698
  188SLPC  C21521707   4.851   3.633   7.651 -0.7204  0.4567  0.2175
  188SLPC  H15R21708   4.860   3.724   7.715  0.6865  0.6084 -0.1526
  188SLPC  H15S21709   4.859   3.542   7.714  1.4451  0.7772  0.4912
  188SLPC  C21621710   4.723   3.634   7.575 -0.2026  0.2731 -0.1350
  188SLPC  H16R21711   4.726   3.569   7.485  2.4111  0.2537 -0.1196
  188SLPC  H16S21712   4.700   3.736   7.537  0.3766  0.1132 -0.9525
  188SLPC  C21721713   4.596   3.592   7.657 -0.8669 -0.2664 -0.1618
  188SLPC  H17R21714   4.594   3.656   7.748  0.4758 -0.6126  0.1374
  188SLPC  H17S21715   4.610   3.486   7.684 -0.7886 -0.8268 -2.2180
  188SLPC  C21821716   4.473   3.605   7.565 -0.1232  0.3777 -0.7963
  188SLPC  H18R21717   4.506   3.551   7.474  3.5223  1.3164 -0.1587
  188SLPC  H18S21718   4.444   3.711   7.544 -2.0101 -0.0209 -0.4114
  188SLPC  H18T21719   4.386   3.560   7.617  1.0697  1.3584  2.2475
  188SLPC   C3321720   5.858   3.118   6.422  0.0959  0.1451  0.4582
  188SLPC   H3X21721   5.776   3.056   6.464  0.2281  0.5594  1.3442
  188SLPC   H3Y21722   5.824   3.222   6.443 -0.0064  0.1019  0.5088
  188SLPC   C3421723   5.983   3.104   6.517  0.2973 -0.0887  0.7063
  188SLPC   H4X21724   6.055   3.185   6.491 -1.2221  1.1277  0.1869
  188SLPC   H4Y21725   6.038   3.008   6.507  2.4697  1.0142  1.3468
  188SLPC   C3521726   5.946   3.121   6.664 -0.5510  0.3766 -0.5696
  188SLPC   H5X21727   5.875   3.042   6.699  0.4859 -0.1074  0.5115
  188SLPC   H5Y21728   5.891   3.217   6.677 -1.0185 -0.1672  1.9879
  188SLPC   C3621729   6.071   3.102   6.757  0.3377 -0.4390  0.8668
  188SLPC   H6X21730   6.134   3.194   6.752  0.4589 -0.5586  0.0127
  188SLPC   H6Y21731   6.117   3.011   6.714 -0.9214 -0.1219 -1.3407
  188SLPC   C3721732   6.014   3.078   6.898 -0.0342  0.2755 -0.3575
  188SLPC   H7X21733   5.963   2.979   6.904  1.0629 -0.2370  1.5369
  188SLPC   H7Y21734   5.942   3.158   6.927 -0.6640  0.0607 -1.2829
  188SLPC   C3821735   6.137   3.066   6.991  0.0721 -0.4494 -0.3257
  188SLPC   H8X21736   6.206   3.149   6.963  0.0705 -0.9901 -2.0754
  188SLPC   H8Y21737   6.196   2.975   6.967 -1.2088 -1.1760 -0.8555
  188SLPC   C3921738   6.099   3.094   7.139  0.2982 -0.2321 -0.4285
  188SLPC   H9X21739   6.033   3.183   7.145  0.1434 -0.2515 -1.5623
  188SLPC   H9Y21740   6.187   3.121   7.201  0.1125  1.4100 -0.8256
  188SLPC  C31021741   6.026   2.974   7.202  0.4427 -0.1359  0.6257
  188SLPC  H10X21742   6.090   2.884   7.195  1.1324  0.3207  0.9594
  188SLPC  H10Y21743   5.926   2.949   7.160  0.9227 -0.2299 -0.4902
  188SLPC  C31121744   6.008   3.006   7.352 -0.0914 -0.0403  0.5417
  188SLPC  H11X21745   5.943   3.094   7.373  1.6591  1.3695  0.2899
  188SLPC  H11Y21746   6.106   3.049   7.380 -0.3190 -0.3273  1.8355
  188SLPC  C31221747   5.972   2.878   7.439 -0.5156 -0.7171  0.2387
  188SLPC  H12X21748   6.014   2.793   7.382  1.2752 -0.4216  1.0462
  188SLPC  H12Y21749   5.861   2.870   7.443 -0.6156  0.0465 -0.7268
  188SLPC  C31321750   6.027   2.882   7.583  0.1926 -0.1036  0.5909
  188SLPC  H13X21751   6.134   2.854   7.572 -0.1719 -1.0626 -0.7764
  188SLPC  H13Y21752   5.966   2.816   7.648 -0.4359 -0.1545 -0.0369
  188SLPC  C31421753   6.011   3.014   7.651 -0.1922 -0.7556 -0.0509
  188SLPC  H14X21754   5.907   3.052   7.645 -0.8350 -2.5536 -1.2215
  188SLPC  H14Y21755   6.074   3.093   7.605 -0.7588 -1.0216 -1.3058
  188SLPC  C31521756   6.070   3.018   7.797 -0.4200 -0.0319  0.1115
  188SLPC  H15X21757   6.004   2.963   7.867  0.7517  0.8878  2.0266
  188SLPC  H15Y21758   6.058   3.127   7.816 -2.2109 -0.2141  0.1549
  188SLPC  C31621759   6.212   2.971   7.819  0.3142  0.6865  0.2150
  188SLPC  H16X21760   6.287   3.022   7.755  1.7647 -1.1426  0.3858
  188SLPC  H16Y21761   6.218   2.865   7.785  0.3961  0.9599 -0.6569
  188SLPC  C31721762   6.252   2.976   7.962 -0.0468 -0.2478 -0.0487
  188SLPC  H17X21763   6.253   3.078   8.006  3.3264 -0.0037 -0.4185
  188SLPC  H17Y21764   6.363   2.965   7.957 -0.1361 -1.3910  0.1317
  188SLPC  C31821765   6.194   2.872   8.049 -0.2331 -0.5875 -0.0336
  188SLPC  H18X21766   6.233   2.873   8.153 -1.1373 -2.5592  0.3792
  188SLPC  H18Y21767   6.219   2.771   8.010 -0.2049  0.1026 -1.9385
  188SLPC  H18Z21768   6.083   2.868   8.048 -0.2667 -2.6570  2.4520
  189SLPC     N21769   6.343   3.781   5.781 -0.2950  0.2012  0.3270
  189SLPC   C1321770   6.432   3.653   5.795  0.3601 -0.4204  0.1427
  189SLPC  H13A21771   6.514   3.673   5.862  0.5973  3.2471 -1.0022
  189SLPC  H13B21772   6.373   3.564   5.805 -0.2477  0.0724  1.0360
  189SLPC  H13C21773   6.483   3.635   5.701 -1.8490 -0.5458 -1.1098
  189SLPC   C1421774   6.233   3.750   5.684 -0.0683  0.5259 -0.5896
  189SLPC  H14A21775   6.273   3.727   5.586 -0.7996 -0.0404 -0.7700
  189SLPC  H14B21776   6.175   3.666   5.719 -0.2700  0.3926 -1.2247
  189SLPC  H14C21777   6.163   3.832   5.678  0.5704  1.3399  1.8828
  189SLPC   C1521778   6.420   3.904   5.726 -0.4002 -0.0509  0.2845
  189SLPC  H15A21779   6.496   3.868   5.659  1.1874 -1.8255  2.8277
  189SLPC  H15B21780   6.352   3.967   5.670  1.1180 -0.2273 -1.8603
  189SLPC  H15C21781   6.461   3.955   5.812 -1.5092  0.0931  0.7478
  189SLPC   C1221782   6.285   3.823   5.917  0.5002  0.0974 -0.1970
  189SLPC  H12A21783   6.241   3.919   5.892 -0.2905 -0.6814 -1.9861
  189SLPC  H12B21784   6.365   3.845   5.986 -0.9377  1.0843  1.2387
  189SLPC   C1121785   6.183   3.729   5.988 -0.1127  0.1084 -0.5898
  189SLPC  H11A21786   6.086   3.740   5.935  0.8064 -0.3433 -2.4375
  189SLPC  H11B21787   6.158   3.757   6.093  2.2810 -0.2409  0.1335
  189SLPC     P21788   6.165   3.471   5.930  0.4250 -0.1872  0.3020
  189SLPC   O1321789   6.067   3.505   5.823 -0.3371  0.2375 -0.1413
  189SLPC   O1421790   6.280   3.386   5.890  0.4960 -0.2889  0.0808
  189SLPC   O1221791   6.223   3.597   6.006  0.0736 -0.6582 -0.3114
  189SLPC   O1121792   6.067   3.393   6.030 -0.4641  0.0784 -1.2288
  189SLPC    C121793   6.023   3.447   6.151  0.3987  0.5146 -0.1943
  189SLPC    HA21794   5.979   3.548   6.137 -0.5335  0.0974 -0.3571
  189SLPC    HB21795   5.942   3.389   6.199  1.3886 -1.7482 -1.1282
  189SLPC    C221796   6.140   3.446   6.252  0.2496  0.4749 -0.4581
  189SLPC    HS21797   6.205   3.536   6.236  0.4056  0.2670 -1.0205
  189SLPC   O2121798   6.205   3.316   6.249  0.2372 -0.3406  0.4713
  189SLPC   C2121799   6.332   3.334   6.287 -0.1438 -0.4326 -0.4829
  189SLPC   O2221800   6.394   3.439   6.293  0.8092  0.1895 -0.6844
  189SLPC   C2221801   6.392   3.203   6.326 -0.0162  0.6572  0.2593
  189SLPC   H2R21802   6.341   3.118   6.275  3.3263 -0.7476 -0.9840
  189SLPC   H2S21803   6.501   3.203   6.308  0.3611 -3.0633  1.6506
  189SLPC    C321804   6.087   3.480   6.394  0.0562 -0.6893  0.0435
  189SLPC    HX21805   6.019   3.402   6.434 -0.6093 -0.9264 -1.4844
  189SLPC    HY21806   6.030   3.574   6.380 -2.1011 -2.1015 -1.3297
  189SLPC   O3121807   6.197   3.490   6.484  0.2161 -0.2869 -0.1930
  189SLPC   C3121808   6.215   3.596   6.552  0.4517  0.1601  0.4996
  189SLPC   O3221809   6.148   3.699   6.546 -0.2089 -0.3740  0.1044
  189SLPC   C3221810   6.338   3.578   6.638  0.2259 -0.1405  0.4015
  189SLPC   H2X21811   6.342   3.669   6.702  1.5920 -0.5768  0.9728
  189SLPC   H2Y21812   6.426   3.593   6.572 -0.2648 -3.1716 -1.1079
  189SLPC   C2321813   6.377   3.180   6.481  1.0869  0.8417  0.0499
  189SLPC   H3R21814   6.274   3.142   6.496  1.8628 -2.1777 -1.4854
  189SLPC   H3S21815   6.394   3.263   6.553 -2.8093 -0.0439  2.2928
  189SLPC   C2421816   6.470   3.071   6.535  0.3729  0.0414  0.2363
  189SLPC   H4R21817   6.573   3.103   6.510  0.6392 -1.5913 -0.9187
  189SLPC   H4S21818   6.447   2.978   6.477 -1.8008 -1.0337  2.6079
  189SLPC   C2521819   6.464   3.012   6.678 -0.0894 -0.9109 -0.9275
  189SLPC   H5R21820   6.519   2.916   6.671  1.8640  0.1955 -1.6533
  189SLPC   H5S21821   6.356   2.989   6.691 -0.1753 -0.6753 -1.2080
  189SLPC   C2621822   6.522   3.100   6.795 -0.3431  0.0578  0.8342
  189SLPC   H6R21823   6.447   3.178   6.820 -0.1927  0.5320 -0.1578
  189SLPC   H6S21824   6.617   3.140   6.754 -1.6948  0.2069 -2.4342
  189SLPC   C2721825   6.534   3.011   6.920 -0.5786  0.0861  0.7203
  189SLPC   H7R21826   6.585   2.913   6.900  2.1684  1.3591  1.0254
  189SLPC   H7S21827   6.440   3.006   6.977  0.2897  0.5859  2.2345
  189SLPC   C2821828   6.626   3.079   7.022 -0.3189 -0.2390 -0.0957
  189SLPC   H8R21829   6.582   3.178   7.045 -0.2037 -0.0413 -0.7062
  189SLPC   H8S21830   6.726   3.104   6.981 -1.0592  0.9825 -1.2373
  189SLPC   C2921831   6.640   2.996   7.152 -0.2815  0.8154  0.1593
  189SLPC   H9R21832   6.688   2.898   7.138 -0.2940  0.8303  0.0093
  189SLPC  C21021833   6.614   3.030   7.285 -0.3200 -0.1499 -0.2367
  189SLPC  H10R21834   6.619   2.949   7.360  3.3913  1.5699  1.6520
  189SLPC  C21121835   6.563   3.162   7.336 -0.0100 -0.5474  0.1149
  189SLPC  H11R21836   6.518   3.217   7.251  0.8799 -0.9337 -0.6242
  189SLPC  H11S21837   6.646   3.228   7.368 -1.5804  2.4624 -1.5879
  189SLPC  C21221838   6.458   3.150   7.444  0.2928  0.0782  0.5245
  189SLPC  H12R21839   6.379   3.076   7.429  0.6131  0.1715 -2.0600
  189SLPC  C21321840   6.458   3.209   7.568 -0.2918  1.0360 -0.0350
  189SLPC  H13R21841   6.363   3.200   7.624  0.5242 -1.4047  1.0896
  189SLPC  C21421842   6.557   3.314   7.629  0.0503  0.2122  0.1377
  189SLPC  H14R21843   6.648   3.320   7.566  0.7060 -1.1734  0.8963
  189SLPC  H14S21844   6.590   3.269   7.725 -3.1825 -0.5331  1.0260
  189SLPC  C21521845   6.509   3.454   7.654 -0.2670  0.5392  0.1337
  189SLPC  H15R21846   6.583   3.521   7.704  0.5394 -0.8463  0.8383
  189SLPC  H15S21847   6.424   3.464   7.725  0.6400  0.0522  1.3277
  189SLPC  C21621848   6.469   3.523   7.517  0.0214  0.4715 -0.4104
  189SLPC  H16R21849   6.366   3.490   7.490 -0.6803  0.6840  1.8345
  189SLPC  H16S21850   6.534   3.485   7.435  0.2214 -0.8275  0.3304
  189SLPC  C21721851   6.451   3.680   7.530 -0.2146  0.1401 -0.1885
  189SLPC  H17R21852   6.551   3.724   7.551  0.1071  0.3847 -2.0948
  189SLPC  H17S21853   6.379   3.714   7.607 -0.6685  0.5332 -0.7824
  189SLPC  C21821854   6.412   3.755   7.402 -0.7119 -0.5680 -0.9692
  189SLPC  H18R21855   6.453   3.858   7.395 -1.6139  0.2312  3.1916
  189SLPC  H18S21856   6.302   3.747   7.395 -0.8204 -2.1481  1.2092
  189SLPC  H18T21857   6.450   3.705   7.310  3.8352  0.4401  0.1110
  189SLPC   C3321858   6.341   3.448   6.729  0.7007  0.1732  0.7214
  189SLPC   H3X21859   6.446   3.414   6.740  1.3472  1.3481 -1.3038
  189SLPC   H3Y21860   6.283   3.367   6.679  1.9883  0.0677 -0.6543
  189SLPC   C3421861   6.283   3.473   6.872 -0.0178 -0.5301 -0.9049
  189SLPC   H4X21862   6.337   3.554   6.926 -1.1406 -1.0193  1.0692
  189SLPC   H4Y21863   6.292   3.381   6.934  0.7661 -0.2373 -0.5815
  189SLPC   C3521864   6.135   3.516   6.862 -0.0780  1.1261  0.4022
  189SLPC   H5X21865   6.082   3.457   6.785  1.0963  0.9420 -0.2957
  189SLPC   H5Y21866   6.147   3.622   6.832  1.3522  0.6294 -0.9092
  189SLPC   C3621867   6.062   3.526   6.996  0.6704  0.0880 -0.1007
  189SLPC   H6X21868   6.073   3.430   7.052  1.1968  0.0730 -0.2211
  189SLPC   H6Y21869   5.954   3.534   6.970  1.5149 -0.0435 -4.3445
  189SLPC   C3721870   6.106   3.644   7.083  0.2749  0.8654 -0.1932
  189SLPC   H7X21871   6.093   3.738   7.025 -0.0151  0.4094 -0.8921
  189SLPC   H7Y21872   6.214   3.633   7.104 -0.5041 -2.5059  3.0660
  189SLPC   C3821873   6.042   3.665   7.223 -0.5335 -0.3668  0.0247
  189SLPC   H8X21874   5.945   3.718   7.213 -0.4422 -0.0773  0.6232
  189SLPC   H8Y21875   6.109   3.740   7.270 -2.4286  1.7300 -0.3941
  189SLPC   C3921876   6.027   3.541   7.311 -0.1172  0.7347 -0.2453
  189SLPC   H9X21877   6.119   3.479   7.297 -0.0073  1.0170 -0.7934
  189SLPC   H9Y21878   5.943   3.484   7.265  0.2335  0.0997 -0.1145
  189SLPC  C31021879   5.999   3.544   7.469 -0.0931 -0.3960 -0.0310
  189SLPC  H10X21880   5.904   3.599   7.487  0.2991 -0.3138  1.9941
  189SLPC  H10Y21881   6.078   3.603   7.520 -0.9014  0.4175  0.3043
  189SLPC  C31121882   5.995   3.405   7.534  0.0047 -1.1440  0.3629
  189SLPC  H11X21883   6.093   3.362   7.505 -0.1337  0.7603 -3.8049
  189SLPC  H11Y21884   5.914   3.346   7.486  0.7550 -2.0221  0.1533
  189SLPC  C31221885   5.980   3.397   7.689  0.2521  0.3301 -0.1016
  189SLPC  H12X21886   5.982   3.291   7.721 -0.2806  0.2819 -0.2238
  189SLPC  H12Y21887   5.883   3.436   7.725 -0.0556 -0.5263  0.0135
  189SLPC  C31321888   6.079   3.478   7.763  0.4419 -0.0865  0.1711
  189SLPC  H13X21889   6.094   3.579   7.719  0.2608 -0.7302 -1.4156
  189SLPC  H13Y21890   6.179   3.434   7.742 -0.2172 -2.0620  0.9403
  189SLPC  C31421891   6.063   3.490   7.920  0.3683 -0.4243  0.1521
  189SLPC  H14X21892   5.972   3.550   7.940  1.3546  1.1033  0.1972
  189SLPC  H14Y21893   6.157   3.540   7.952  1.1201 -1.2958 -0.6265
  189SLPC  C31521894   6.057   3.356   8.002  0.6132 -0.0963 -0.1577
  189SLPC  H15X21895   6.143   3.292   7.975  1.5795  0.3771  1.6376
  189SLPC  H15Y21896   5.961   3.303   7.984  1.1805 -0.7876 -1.2472
  189SLPC  C31621897   6.057   3.391   8.150 -0.4330 -0.1291 -0.0655
  189SLPC  H16X21898   5.962   3.435   8.187 -0.2942 -0.1204  0.2883
  189SLPC  H16Y21899   6.136   3.467   8.167  0.0649 -1.1918  2.9370
  189SLPC  C31721900   6.107   3.271   8.238  0.6459 -0.0721  0.5185
  189SLPC  H17X21901   6.131   3.313   8.338  0.0278  2.0431 -0.1623
  189SLPC  H17Y21902   6.201   3.233   8.193  0.4274  0.9884 -0.8899
  189SLPC  C31821903   6.002   3.156   8.241 -0.1334  0.2476  0.5257
  189SLPC  H18X21904   6.053   3.059   8.261 -3.3449 -1.5906  0.5910
  189SLPC  H18Y21905   5.959   3.135   8.141  0.7442  0.4328  0.1070
  189SLPC  H18Z21906   5.923   3.185   8.314 -0.3031 -0.5631  0.6796
  190SLPC     N21907   6.377   3.125   5.595  0.6288  0.4444 -0.1165
  190SLPC   C1321908   6.332   3.269   5.573  0.4365 -0.2057  0.3328
  190SLPC  H13A21909   6.317   3.318   5.668 -3.1698  4.6431 -2.2499
  190SLPC  H13B21910   6.412   3.322   5.524  0.8146 -1.6281 -0.6625
  190SLPC  H13C21911   6.239   3.274   5.518  0.3258 -2.0285  0.2798
  190SLPC   C1421912   6.409   3.048   5.465  0.5585  0.0356 -0.1998
  190SLPC  H14A21913   6.332   3.057   5.389  0.2698  0.9909  0.1917
  190SLPC  H14B21914   6.491   3.106   5.426 -0.7878  1.4591 -1.0642
  190SLPC  H14C21915   6.437   2.947   5.488 -2.3324 -1.2729 -1.8141
  190SLPC   C1521916   6.264   3.060   5.671  0.2760 -0.2787 -0.1960
  190SLPC  H15A21917   6.175   3.045   5.611 -0.9961 -0.1041  1.5503
  190SLPC  H15B21918   6.289   2.962   5.709 -1.3814 -1.0759 -1.0470
  190SLPC  H15C21919   6.235   3.123   5.754  0.4463  1.9059 -1.7047
  190SLPC   C1221920   6.500   3.121   5.682  0.6704 -0.0394  0.0051
  190SLPC  H12A21921   6.496   3.033   5.744  1.3833  0.1634  0.3521
  190SLPC  H12B21922   6.485   3.192   5.761 -0.1598 -1.4401  1.1544
  190SLPC   C1121923   6.639   3.134   5.622  0.1359 -0.3389 -0.6481
  190SLPC  H11A21924   6.666   3.050   5.555 -1.9624 -0.5733 -1.2896
  190SLPC  H11B21925   6.707   3.115   5.708 -1.3174 -0.4262  0.5291
  190SLPC     P21926   6.687   3.395   5.644  0.3571 -0.0415 -0.6099
  190SLPC   O1321927   6.832   3.416   5.648  0.0306  0.2660 -0.1046
  190SLPC   O1421928   6.600   3.507   5.598 -0.2635 -0.4320 -0.3943
  190SLPC   O1221929   6.662   3.260   5.561  0.1213  0.0202 -0.5797
  190SLPC   O1121930   6.635   3.353   5.793 -0.2809  0.4262  0.2862
  190SLPC    C121931   6.698   3.405   5.906  0.2658  0.3346 -0.4101
  190SLPC    HA21932   6.754   3.499   5.890 -4.2789  3.7253  1.4097
  190SLPC    HB21933   6.624   3.420   5.988  1.4601 -2.0024  1.2408
  190SLPC    C221934   6.806   3.292   5.951  0.7880  0.2416  0.2115
  190SLPC    HS21935   6.867   3.278   5.859 -2.0392  0.0812 -1.7569
  190SLPC   O2121936   6.728   3.175   5.982  0.4269  0.7077 -0.4523
  190SLPC   C2121937   6.798   3.064   5.990 -0.7246  0.2438 -0.3181
  190SLPC   O2221938   6.914   3.053   5.952 -0.0201  0.4457 -0.0834
  190SLPC   C2221939   6.728   2.951   6.076 -0.2848  0.8374  0.7760
  190SLPC   H2R21940   6.631   2.931   6.026  0.8225  1.0987 -1.5929
  190SLPC   H2S21941   6.782   2.855   6.066  0.8768  1.6191 -1.1199
  190SLPC    C321942   6.883   3.328   6.077  0.4818 -0.8524 -0.0861
  190SLPC    HX21943   6.933   3.424   6.053  0.1395 -0.9133 -1.0797
  190SLPC    HY21944   6.956   3.248   6.103 -0.3996 -1.3033  1.0941
  190SLPC   O3121945   6.793   3.354   6.187 -0.3360  0.3854 -0.1896
  190SLPC   C3121946   6.835   3.442   6.273  0.0869  0.1015  0.4929
  190SLPC   O3221947   6.944   3.497   6.270  0.2063  0.2999  0.1638
  190SLPC   C3221948   6.732   3.453   6.392  0.4993 -0.3710 -0.2144
  190SLPC   H2X21949   6.686   3.353   6.407  1.1454 -0.8494 -1.3070
  190SLPC   H2Y21950   6.655   3.528   6.365 -0.0903 -0.2622  1.6000
  190SLPC   C2321951   6.713   2.974   6.229 -0.0663  0.4006  0.0388
  190SLPC   H3R21952   6.649   2.894   6.271 -0.2529 -0.2201 -1.3664
  190SLPC   H3S21953   6.670   3.076   6.245 -0.6871 -0.1551  2.1200
  190SLPC   C2421954   6.844   2.947   6.306 -0.2138  0.1286  0.2821
  190SLPC   H4R21955   6.919   3.009   6.252 -1.7362  0.6236 -1.3568
  190SLPC   H4S21956   6.889   2.849   6.278  0.2448 -0.1661  1.9400
  190SLPC   C2521957   6.831   2.962   6.460  0.1900  0.3543  0.8181
  190SLPC   H5R21958   6.753   2.897   6.506 -1.5833  1.8571  0.0570
  190SLPC   H5S21959   6.804   3.069   6.474  2.0180  1.0434 -0.5586
  190SLPC   C2621960   6.961   2.925   6.534 -0.1814 -0.8199  0.1848
  190SLPC   H6R21961   7.048   2.948   6.470 -1.0975  3.2714  0.0903
  190SLPC   H6S21962   6.960   2.817   6.559  1.5192 -0.8690  0.1203
  190SLPC   C2721963   6.963   2.994   6.676  0.6112 -0.9368  0.0498
  190SLPC   H7R21964   6.863   2.977   6.722  1.5486  0.5980  2.9172
  190SLPC   H7S21965   6.970   3.102   6.655 -3.3067 -0.3113  1.1603
  190SLPC   C2821966   7.056   2.944   6.776  0.5679  0.3582  0.3476
  190SLPC   H8R21967   7.157   2.975   6.743 -0.1268  1.0137 -1.2861
  190SLPC   H8S21968   7.057   2.833   6.777 -0.5209  0.3198 -0.6023
  190SLPC   C2921969   7.011   2.987   6.917 -0.1631 -0.2772 -0.2664
  190SLPC   H9R21970   6.937   2.924   6.969 -2.2304  1.9008 -0.4026
  190SLPC  C21021971   7.044   3.100   6.983 -0.4640 -0.1224 -0.4612
  190SLPC  H10R21972   7.019   3.106   7.090  0.4334  0.9860 -0.2851
  190SLPC  C21121973   7.121   3.215   6.929 -0.0024  0.0670 -0.9185
  190SLPC  H11R21974   7.061   3.262   6.849 -1.4068  2.0662  1.1683
  190SLPC  H11S21975   7.214   3.177   6.882  0.2745 -0.9430  0.3895
  190SLPC  C21221976   7.161   3.322   7.027 -0.7965  0.1577 -1.0566
  190SLPC  H12R21977   7.112   3.311   7.125 -2.2841  1.1581 -1.6477
  190SLPC  C21321978   7.242   3.428   7.005 -0.5402 -0.5943 -0.3714
  190SLPC  H13R21979   7.293   3.473   7.092 -0.9819  1.9504 -1.3318
  190SLPC  C21421980   7.310   3.444   6.867  0.6778 -0.3899  0.5267
  190SLPC  H14R21981   7.257   3.532   6.824  1.5986 -0.1144 -0.0866
  190SLPC  H14S21982   7.279   3.364   6.796  1.4378 -0.4211  0.2148
  190SLPC  C21521983   7.459   3.486   6.868  0.1974 -0.8056  0.5064
  190SLPC  H15R21984   7.515   3.401   6.912  0.5676 -1.1087 -0.5349
  190SLPC  H15S21985   7.477   3.570   6.939  0.0668 -1.4832  1.3577
  190SLPC  C21621986   7.517   3.526   6.732 -0.0853  1.0598  0.0637
  190SLPC  H16R21987   7.626   3.545   6.742 -0.0439  1.1559 -0.5723
  190SLPC  H16S21988   7.451   3.609   6.701 -1.5903  0.3288  1.1505
  190SLPC  C21721989   7.512   3.410   6.636 -0.0412  0.6324 -0.4807
  190SLPC  H17R21990   7.411   3.362   6.639 -0.2609  1.1122  0.5826
  190SLPC  H17S21991   7.581   3.335   6.680 -1.1985  1.1373  2.4286
  190SLPC  C21821992   7.558   3.435   6.491 -0.2819 -0.1159 -0.0540
  190SLPC  H18R21993   7.497   3.511   6.438 -0.2664 -1.0114 -1.4170
  190SLPC  H18S21994   7.538   3.342   6.433 -2.0452  0.5533 -0.5797
  190SLPC  H18T21995   7.666   3.459   6.487 -0.5911  1.4651  0.5553
  190SLPC   C3321996   6.795   3.499   6.524  0.0315  0.7243 -0.0303
  190SLPC   H3X21997   6.806   3.609   6.535  0.8123  0.6519 -0.0723
  190SLPC   H3Y21998   6.898   3.459   6.517 -0.6816 -1.0647 -1.0246
  190SLPC   C3421999   6.735   3.435   6.650  0.8762 -0.4758  0.7148
  190SLPC   H4X22000   6.723   3.326   6.638 -4.1187 -0.0923  0.2409
  190SLPC   H4Y22001   6.632   3.475   6.666  1.5003  0.9187  1.4949
  190SLPC   C3522002   6.821   3.466   6.773 -0.0791  0.7913  0.4066
  190SLPC   H5X22003   6.852   3.572   6.785 -0.4244  1.1063 -1.2119
  190SLPC   H5Y22004   6.917   3.410   6.766  0.0646  0.9524  1.0094
  190SLPC   C3622005   6.744   3.428   6.898 -0.2438  0.3638 -0.4674
  190SLPC   H6X22006   6.742   3.317   6.910  1.5564  0.3103 -0.4718
  190SLPC   H6Y22007   6.642   3.470   6.887 -0.0517  1.0213  0.1918
  190SLPC   C3722008   6.811   3.481   7.023 -0.2634  0.1468 -0.4714
  190SLPC   H7X22009   6.795   3.590   7.038  0.6371  0.1079  0.8606
  190SLPC   H7Y22010   6.920   3.463   7.018 -0.6614 -2.5345 -1.0418
  190SLPC   C3822011   6.756   3.426   7.163  0.3848 -0.6414  0.5286
  190SLPC   H8X22012   6.764   3.315   7.169  1.9861 -0.5449  0.7327
  190SLPC   H8Y22013   6.649   3.454   7.170  0.1958 -1.4605  1.0910
  190SLPC   C3922014   6.826   3.484   7.282  0.3373 -0.0745  0.0070
  190SLPC   H9X22015   6.931   3.447   7.284  1.2130  2.2683  0.8485
  190SLPC   H9Y22016   6.775   3.440   7.371 -0.8586  0.4434 -0.4001
  190SLPC  C31022017   6.829   3.636   7.300  0.3331 -0.0217  0.1399
  190SLPC  H10X22018   6.722   3.664   7.285  0.2988 -0.6564 -0.9413
  190SLPC  H10Y22019   6.885   3.680   7.215 -0.3630 -0.0831 -0.3675
  190SLPC  C31122020   6.878   3.670   7.444  0.7112  0.1206  0.4018
  190SLPC  H11X22021   6.812   3.607   7.508 -0.4020  1.7278  0.8742
  190SLPC  H11Y22022   6.855   3.776   7.465  0.3094 -0.0698  0.9419
  190SLPC  C31222023   7.029   3.639   7.460  0.4503 -0.2591  0.8321
  190SLPC  H12X22024   7.087   3.692   7.381 -2.5735 -0.5516 -1.7935
  190SLPC  H12Y22025   7.047   3.532   7.437  0.3888 -0.6665  2.5603
  190SLPC  C31322026   7.081   3.657   7.600  0.2510  0.9154  0.5354
  190SLPC  H13X22027   7.007   3.611   7.669  0.7219  1.4132  1.3950
  190SLPC  H13Y22028   7.097   3.765   7.624 -1.0232  1.5443 -1.2438
  190SLPC  C31422029   7.211   3.592   7.637 -0.0843 -0.7197 -0.2916
  190SLPC  H14X22030   7.205   3.484   7.612  0.7156 -0.8254 -0.0374
  190SLPC  H14Y22031   7.223   3.614   7.745  1.6035 -0.3554 -0.5303
  190SLPC  C31522032   7.323   3.655   7.555 -0.0484 -0.4731 -0.1098
  190SLPC  H15X22033   7.341   3.764   7.573 -0.3890 -0.3259 -0.6463
  190SLPC  H15Y22034   7.290   3.650   7.449 -0.8169  1.7192 -0.0442
  190SLPC  C31622035   7.463   3.594   7.563  0.2223  0.7003  0.8167
  190SLPC  H16X22036   7.463   3.483   7.549 -0.6058  1.0501 -2.8296
  190SLPC  H16Y22037   7.501   3.608   7.667  2.5536  1.4592 -0.0912
  190SLPC  C31722038   7.565   3.645   7.464 -0.8075  0.4181 -0.1968
  190SLPC  H17X22039   7.665   3.616   7.503 -1.3915  2.0213  2.8198
  190SLPC  H17Y22040   7.572   3.755   7.475 -2.0503  0.3491  1.9524
  190SLPC  C31822041   7.552   3.613   7.311 -0.0796 -0.4068  0.1028
  190SLPC  H18X22042   7.529   3.507   7.288 -0.4919 -0.9371  2.6697
  190SLPC  H18Y22043   7.638   3.645   7.248 -0.1170 -0.6299 -0.0612
  190SLPC  H18Z22044   7.456   3.663   7.285 -0.4979  1.6368  4.6179
  191SLPC     N22045   0.003   7.151   5.879 -0.0166 -0.3468  0.0965
  191SLPC   C1322046  -0.128   7.121   5.809 -0.3559  0.1303  0.4054
  191SLPC  H13A22047  -0.212   7.161   5.865 -0.6549 -1.3148  1.0263
  191SLPC  H13B22048  -0.127   7.151   5.706  1.4170  0.0675  0.3810
  191SLPC  H13C22049  -0.135   7.013   5.811  1.7765 -0.0862  3.3800
  191SLPC   C1422050  -0.021   7.140   6.027 -0.1723 -0.1102  0.8043
  191SLPC  H14A22051   0.073   7.152   6.078 -1.1418 -0.4622  2.7609
  191SLPC  H14B22052  -0.090   7.211   6.070  2.0478  2.1391  0.8643
  191SLPC  H14C22053  -0.055   7.040   6.051 -0.5764  0.1668  1.3968
  191SLPC   C1522054   0.035   7.292   5.853 -0.7738 -0.6455  0.3227
  191SLPC  H15A22055   0.126   7.323   5.903  0.9048 -0.5893 -2.5666
  191SLPC  H15B22056   0.066   7.307   5.751  1.7677  3.8092  1.4440
  191SLPC  H15C22057  -0.053   7.354   5.870 -1.1615 -1.2874  0.7004
  191SLPC   C1222058   0.109   7.058   5.822  0.2514  0.0697  0.3655
  191SLPC  H12A22059   0.199   7.092   5.872  0.7313  1.4816 -1.3588
  191SLPC  H12B22060   0.117   7.086   5.718  0.1240  1.4214  0.6974
  191SLPC   C1122061   0.092   6.902   5.843 -0.2186  0.2219  0.6027
  191SLPC  H11A22062   0.089   6.891   5.953  0.6844  1.3468  0.7522
  191SLPC  H11B22063   0.179   6.857   5.790 -0.7125  2.3598 -2.2767
  191SLPC     P22064  -0.043   6.696   5.770 -0.2452 -0.2676  0.2631
  191SLPC   O1322065  -0.189   6.664   5.751 -0.3338  0.0813  0.0713
  191SLPC   O1422066   0.054   6.639   5.673 -0.0530  0.3619 -0.0312
  191SLPC   O1222067  -0.025   6.855   5.774 -0.2836  0.3389  0.0397
  191SLPC   O1122068   0.008   6.649   5.918 -0.6214 -0.2620  0.3230
  191SLPC    C122069  -0.086   6.615   6.019 -0.7246 -0.3698 -0.2612
  191SLPC    HA22070  -0.191   6.616   5.984  0.0457 -0.2660 -2.7087
  191SLPC    HB22071  -0.064   6.516   6.064  0.9086 -0.8030 -1.9008
  191SLPC    C222072  -0.066   6.712   6.141 -0.1637  0.2083  0.3158
  191SLPC    HS22073  -0.094   6.810   6.098  0.3579  0.1304 -0.2147
  191SLPC   O2122074   0.077   6.693   6.169  0.3112 -0.2476 -0.0388
  191SLPC   C2122075   0.126   6.786   6.248 -0.7573  0.4035 -0.3145
  191SLPC   O2222076   0.070   6.886   6.284 -0.3256 -0.6641  0.1580
  191SLPC   C2222077   0.259   6.739   6.307 -0.2171  0.0720  0.3901
  191SLPC   H2R22078   0.229   6.633   6.326 -0.6332 -0.2206 -1.6345
  191SLPC   H2S22079   0.329   6.742   6.221  0.8562 -0.0455  1.2384
  191SLPC    C322080  -0.164   6.689   6.260  0.3898 -0.2560  0.0094
  191SLPC    HX22081  -0.266   6.721   6.230 -1.2815 -1.1205  4.0546
  191SLPC    HY22082  -0.140   6.752   6.348  0.2125 -0.0248 -0.1063
  191SLPC   O3122083  -0.174   6.552   6.291  0.8605  1.1236 -0.0224
  191SLPC   C3122084  -0.099   6.508   6.393  0.0388 -0.2375  0.4303
  191SLPC   O3222085  -0.020   6.578   6.455  0.2463 -0.1296  0.0063
  191SLPC   C3222086  -0.122   6.356   6.412  0.4120  0.0616  0.1624
  191SLPC   H2X22087  -0.105   6.304   6.316 -0.6900 -0.8919  0.4702
  191SLPC   H2Y22088  -0.221   6.335   6.459  0.8220  0.0985  1.0738
  191SLPC   C2322089   0.325   6.817   6.421  0.0789  0.2799  0.0460
  191SLPC   H3R22090   0.301   6.924   6.400  2.3841  0.6447 -0.9782
  191SLPC   H3S22091   0.436   6.812   6.424  0.1206  1.3949  1.1457
  191SLPC   C2422092   0.266   6.778   6.564  0.1508  0.5612  0.4123
  191SLPC   H4R22093   0.156   6.785   6.550  0.0765 -1.5394 -0.6424
  191SLPC   H4S22094   0.295   6.857   6.636 -3.1100  0.7528  1.6605
  191SLPC   C2522095   0.323   6.643   6.618 -0.0297  1.2801  0.1808
  191SLPC   H5R22096   0.432   6.664   6.620 -0.0750  1.5131  0.3327
  191SLPC   H5S22097   0.304   6.555   6.553  1.0874 -0.0731  1.6078
  191SLPC   C2622098   0.274   6.618   6.762  0.3643 -0.2992 -0.3094
  191SLPC   H6R22099   0.170   6.580   6.755 -0.0917  0.7829  0.3733
  191SLPC   H6S22100   0.271   6.717   6.811 -1.9858 -0.7664  0.5805
  191SLPC   C2722101   0.347   6.510   6.840 -0.5952 -0.6057  0.0135
  191SLPC   H7R22102   0.363   6.420   6.777 -1.2662 -1.5267  1.1168
  191SLPC   H7S22103   0.279   6.474   6.920 -0.9520 -4.2780 -1.7285
  191SLPC   C2822104   0.485   6.558   6.902 -0.7397 -0.2227 -0.0329
  191SLPC   H8R22105   0.479   6.654   6.957  1.0364  0.1568 -0.4352
  191SLPC   H8S22106   0.557   6.584   6.821  1.3133 -2.5624  0.9160
  191SLPC   C2922107   0.547   6.457   6.993  0.1697  0.4996  0.0288
  191SLPC   H9R22108   0.590   6.366   6.949 -0.8794 -0.1261  0.2623
  191SLPC  C21022109   0.579   6.470   7.127  0.8057  0.3715 -0.2033
  191SLPC  H10R22110   0.616   6.381   7.179  0.4409  1.2309  1.5863
  191SLPC  C21122111   0.537   6.583   7.206  0.3934  0.0869  0.3807
  191SLPC  H11R22112   0.428   6.594   7.223  0.0841 -2.0010  0.0158
  191SLPC  H11S22113   0.559   6.681   7.158 -1.7015  1.8299  2.7171
  191SLPC  C21222114   0.612   6.578   7.335  0.1124 -0.1284 -0.4376
  191SLPC  H12R22115   0.607   6.479   7.384  2.9838 -0.5358 -0.8197
  191SLPC  C21322116   0.685   6.677   7.393  0.4673  0.7760  0.6512
  191SLPC  H13R22117   0.716   6.660   7.497  1.0221 -1.3541  0.1887
  191SLPC  C21422118   0.694   6.814   7.334  0.1663  0.0751 -0.4153
  191SLPC  H14R22119   0.692   6.882   7.421 -0.7408  0.5534 -0.7965
  191SLPC  H14S22120   0.600   6.844   7.284  0.2195  2.3468  0.7276
  191SLPC  C21522121   0.818   6.835   7.245  0.3125 -0.2546  0.4242
  191SLPC  H15R22122   0.822   6.944   7.224  1.1626 -0.4812 -0.6873
  191SLPC  H15S22123   0.803   6.788   7.145 -0.9287  0.8798  0.0599
  191SLPC  C21622124   0.948   6.796   7.322 -0.3045  0.4994  0.0195
  191SLPC  H16R22125   0.946   6.685   7.318 -1.7237  0.5057 -0.1478
  191SLPC  H16S22126   0.934   6.838   7.424  0.3413  3.8913 -1.1665
  191SLPC  C21722127   1.085   6.826   7.262 -0.0583  1.1613  0.1090
  191SLPC  H17R22128   1.108   6.932   7.240 -1.2687  1.3577 -0.2559
  191SLPC  H17S22129   1.085   6.784   7.159  0.1356  1.1430  0.1168
  191SLPC  C21822130   1.196   6.754   7.343  0.3078 -0.4783  0.2957
  191SLPC  H18R22131   1.291   6.739   7.287 -0.4569 -3.1471 -0.3957
  191SLPC  H18S22132   1.166   6.649   7.360  1.3284 -0.4301  2.8089
  191SLPC  H18T22133   1.210   6.804   7.442 -2.5177  1.3496 -0.1233
  191SLPC   C3322134  -0.018   6.294   6.506  0.2516 -0.0352  0.1485
  191SLPC   H3X22135   0.073   6.357   6.512  1.5642 -1.5666 -1.8264
  191SLPC   H3Y22136   0.008   6.199   6.454 -1.4871  0.1485 -1.1737
  191SLPC   C3422137  -0.076   6.263   6.639  0.4458  0.8270 -0.0485
  191SLPC   H4X22138   0.001   6.197   6.683  0.6305  1.2316  0.2435
  191SLPC   H4Y22139  -0.174   6.210   6.637  0.4855  0.7492  0.0795
  191SLPC   C3522140  -0.086   6.392   6.715  0.3347 -0.0249 -0.3644
  191SLPC   H5X22141  -0.180   6.447   6.696 -1.3089 -1.1429  3.5149
  191SLPC   H5Y22142   0.003   6.455   6.694  1.3161 -0.8838  0.9921
  191SLPC   C3622143  -0.075   6.380   6.869  0.0276  0.1381 -0.4491
  191SLPC   H6X22144   0.016   6.436   6.897  0.6941 -0.6392 -0.9859
  191SLPC   H6Y22145  -0.059   6.276   6.905  0.0675  0.4737  0.5174
  191SLPC   C3722146  -0.200   6.437   6.940  0.3756  0.1026  0.1464
  191SLPC   H7X22147  -0.282   6.362   6.944  0.2178  0.0695 -2.3209
  191SLPC   H7Y22148  -0.244   6.527   6.891  2.8354  0.9708 -0.5920
  191SLPC   C3822149  -0.164   6.476   7.084  0.6341 -0.2818  0.5544
  191SLPC   H8X22150  -0.086   6.412   7.132  0.2023 -0.5113  0.9592
  191SLPC   H8Y22151  -0.258   6.455   7.139 -0.5487 -0.6868 -1.5055
  191SLPC   C3922152  -0.151   6.623   7.101 -0.0993 -0.1524  0.3665
  191SLPC   H9X22153  -0.176   6.653   7.205 -0.1751 -0.2536  0.3782
  191SLPC   H9Y22154  -0.214   6.683   7.033  1.2441 -0.5853 -1.3276
  191SLPC  C31022155  -0.006   6.668   7.091 -0.2899 -0.8241  0.6380
  191SLPC  H10X22156  -0.022   6.778   7.084 -1.7601 -1.0871 -0.6343
  191SLPC  H10Y22157   0.051   6.629   7.004  0.6761  0.0862  0.8415
  191SLPC  C31122158   0.077   6.642   7.214  0.7973 -0.4145  0.8359
  191SLPC  H11X22159   0.174   6.595   7.185 -0.6053 -3.1685  0.2560
  191SLPC  H11Y22160   0.028   6.562   7.273  1.2938 -1.3324  0.0428
  191SLPC  C31222161   0.105   6.773   7.288 -0.8513 -0.0219  0.5882
  191SLPC  H12X22162   0.018   6.837   7.316 -0.8852 -0.5193  1.7018
  191SLPC  H12Y22163   0.164   6.834   7.217 -1.7095 -0.8354 -0.8783
  191SLPC  C31322164   0.206   6.752   7.400  0.4302 -0.0864  0.4391
  191SLPC  H13X22165   0.292   6.686   7.378  1.7100  1.6636 -0.0490
  191SLPC  H13Y22166   0.146   6.690   7.469 -0.9696  1.0878  0.3251
  191SLPC  C31422167   0.263   6.883   7.453  0.0580  0.5302 -0.2918
  191SLPC  H14X22168   0.184   6.956   7.482  0.6231  0.3193  1.9958
  191SLPC  H14Y22169   0.323   6.934   7.375  1.3018  0.4304  0.5702
  191SLPC  C31522170   0.359   6.850   7.568  1.1270  0.0326 -0.1566
  191SLPC  H15X22171   0.436   6.776   7.540  1.0539 -0.8153  1.7393
  191SLPC  H15Y22172   0.303   6.814   7.657 -0.1356  1.7959 -0.1824
  191SLPC  C31622173   0.428   6.985   7.606  0.2194  0.6558  0.3488
  191SLPC  H16X22174   0.344   7.047   7.642  0.3671  0.6863  0.6458
  191SLPC  H16Y22175   0.487   7.036   7.527  1.2716  0.7168  1.1409
  191SLPC  C31722176   0.528   6.953   7.713  0.0482  0.7994 -0.1882
  191SLPC  H17X22177   0.602   6.880   7.675 -1.1811 -0.5088 -0.1391
  191SLPC  H17Y22178   0.476   6.902   7.797 -0.5116 -0.0238 -1.0117
  191SLPC  C31822179   0.601   7.076   7.757  0.0318  0.2109  0.0082
  191SLPC  H18X22180   0.675   7.100   7.678 -1.1355 -2.2573 -1.9482
  191SLPC  H18Y22181   0.650   7.061   7.856 -0.4929  0.3916  0.2977
  191SLPC  H18Z22182   0.529   7.156   7.784  0.3972 -0.5031  3.7096
  192SLPC     N22183   5.970   6.228   5.520 -0.0490  0.1912 -0.2401
  192SLPC   C1322184   5.906   6.353   5.456 -0.1613 -0.2184 -0.0116
  192SLPC  H13A22185   5.916   6.439   5.521  1.0404  0.1964 -0.7141
  192SLPC  H13B22186   5.963   6.366   5.366  3.2450  0.2074  2.0380
  192SLPC  H13C22187   5.800   6.346   5.437 -0.2081 -0.8916  0.4661
  192SLPC   C1422188   5.997   6.131   5.410  0.2302  0.0754 -0.0235
  192SLPC  H14A22189   5.905   6.115   5.356 -0.1115  2.2039 -0.1412
  192SLPC  H14B22190   6.074   6.166   5.343  2.1286 -1.1240  1.4282
  192SLPC  H14C22191   6.027   6.031   5.438 -4.6043 -1.7559 -0.3554
  192SLPC   C1522192   5.886   6.166   5.625  0.4071 -0.6252  0.5630
  192SLPC  H15A22193   5.933   6.081   5.672  0.0740 -1.2492 -0.2193
  192SLPC  H15B22194   5.853   6.244   5.692 -0.2482 -0.1470 -0.2933
  192SLPC  H15C22195   5.800   6.117   5.580  1.4669 -1.4702 -0.5951
  192SLPC   C1222196   6.095   6.261   5.583 -0.9485 -0.2611  0.6737
  192SLPC  H12A22197   6.160   6.174   5.579  0.1127  0.4382  2.0403
  192SLPC  H12B22198   6.069   6.288   5.684 -3.1814  0.0611  0.0677
  192SLPC   C1122199   6.178   6.377   5.520 -0.4229 -0.4930 -0.0638
  192SLPC  H11A22200   6.175   6.353   5.412 -1.2832  0.2993 -0.2224
  192SLPC  H11B22201   6.282   6.368   5.560 -1.3144 -2.5548  2.0467
  192SLPC     P22202   6.168   6.576   5.692 -0.1515  0.0317  0.1223
  192SLPC   O1322203   6.312   6.610   5.684  0.0364 -0.3763  0.6179
  192SLPC   O1422204   6.075   6.688   5.697  0.6330 -0.9151 -0.4764
  192SLPC   O1222205   6.133   6.509   5.556 -0.5954  0.6189 -0.1151
  192SLPC   O1122206   6.138   6.476   5.808  0.4560  0.4853  0.0135
  192SLPC    C122207   6.048   6.512   5.915 -0.2366 -0.2188  0.3960
  192SLPC    HA22208   5.968   6.579   5.878  0.6158  1.0648  0.8407
  192SLPC    HB22209   6.018   6.421   5.972  0.6436 -0.3590  0.6373
  192SLPC    C222210   6.121   6.589   6.031 -0.3153  0.0975 -0.5749
  192SLPC    HS22211   6.153   6.682   5.979 -0.2362  0.3256 -0.1190
  192SLPC   O2122212   6.234   6.506   6.074  0.2042  0.3982 -0.4464
  192SLPC   C2122213   6.341   6.574   6.086 -0.6576 -0.2727  0.4074
  192SLPC   O2222214   6.359   6.695   6.083  0.1991  0.1908  0.4369
  192SLPC   C2222215   6.451   6.479   6.111  0.0098  0.4959  0.3405
  192SLPC   H2R22216   6.427   6.382   6.062 -0.6482  0.8348 -0.0342
  192SLPC   H2S22217   6.546   6.512   6.064  0.7790 -0.3873  1.2301
  192SLPC    C322218   6.019   6.616   6.147  0.3694  0.5492  0.0716
  192SLPC    HX22219   5.979   6.515   6.171 -2.6307  1.7069  0.4195
  192SLPC    HY22220   5.940   6.683   6.108 -1.4983 -1.2619  0.5613
  192SLPC   O3122221   6.084   6.658   6.267 -0.0181 -0.2619  0.4207
  192SLPC   C3122222   6.096   6.789   6.288  0.7807 -0.1825  0.1074
  192SLPC   O3222223   6.062   6.874   6.210 -1.4353 -0.4017 -0.5963
  192SLPC   C3222224   6.152   6.822   6.426  0.3289  1.1093  0.2999
  192SLPC   H2X22225   6.079   6.869   6.496  0.2827 -1.3414  2.0486
  192SLPC   H2Y22226   6.232   6.897   6.408  1.7578 -0.3005  0.5583
  192SLPC   C2322227   6.472   6.458   6.262  0.0945  0.2924  0.5045
  192SLPC   H3R22228   6.383   6.413   6.312  0.9806 -1.8814  0.2351
  192SLPC   H3S22229   6.487   6.550   6.323  0.5298 -0.1305  1.0416
  192SLPC   C2422230   6.592   6.366   6.302  0.7414 -0.5953  0.9725
  192SLPC   H4R22231   6.673   6.404   6.236 -0.0557  0.3567  0.5293
  192SLPC   H4S22232   6.567   6.264   6.267  1.6194  0.3013 -2.7072
  192SLPC   C2522233   6.635   6.376   6.443  0.8085 -0.5074 -0.9142
  192SLPC   H5R22234   6.667   6.478   6.474  3.2601 -1.7094  0.8993
  192SLPC   H5S22235   6.721   6.307   6.457 -0.2853 -1.8978 -0.7622
  192SLPC   C2622236   6.525   6.329   6.544  0.0155  0.9236 -0.6755
  192SLPC   H6R22237   6.476   6.242   6.494  1.5644  0.5093 -1.5406
  192SLPC   H6S22238   6.460   6.419   6.550 -0.4633  0.6124 -1.0138
  192SLPC   C2722239   6.566   6.285   6.676  0.2529 -0.1319 -0.1392
  192SLPC   H7R22240   6.652   6.216   6.662  2.4970  2.2051  1.1581
  192SLPC   H7S22241   6.478   6.232   6.718  0.2908  0.2088  0.3941
  192SLPC   C2822242   6.616   6.401   6.766 -0.0236 -0.5116  1.0026
  192SLPC   H8R22243   6.691   6.456   6.704 -0.1335 -1.9427 -0.4619
  192SLPC   H8S22244   6.666   6.365   6.859  0.6198  1.0125  1.2797
  192SLPC   C2922245   6.500   6.492   6.805 -0.1004  0.1873 -0.4798
  192SLPC   H9R22246   6.487   6.576   6.735 -1.5507 -0.4766 -1.0571
  192SLPC  C21022247   6.411   6.464   6.905 -0.0403 -0.4886 -0.2746
  192SLPC  H10R22248   6.324   6.529   6.920 -1.0190 -1.8630  0.2526
  192SLPC  C21122249   6.421   6.346   6.996 -0.2800  0.6712 -0.1696
  192SLPC  H11R22250   6.445   6.259   6.932 -1.2998  0.7077 -0.6312
  192SLPC  H11S22251   6.318   6.315   7.023 -0.0492 -0.6850 -0.7625
  192SLPC  C21222252   6.516   6.344   7.113  0.2605  0.6822 -0.1374
  192SLPC  H12R22253   6.624   6.353   7.095  1.0322 -1.8971  2.4465
  192SLPC  C21322254   6.477   6.353   7.237 -0.5481  0.2491 -0.7655
  192SLPC  H13R22255   6.551   6.332   7.316 -0.4493  0.9126 -0.6829
  192SLPC  C21422256   6.338   6.366   7.290 -0.8137  0.1933 -0.8394
  192SLPC  H14R22257   6.284   6.428   7.215 -0.6530 -0.4470 -1.4962
  192SLPC  H14S22258   6.341   6.437   7.375  2.2773 -0.6852 -0.0702
  192SLPC  C21522259   6.259   6.239   7.328 -0.2891 -0.4001  0.8198
  192SLPC  H15R22260   6.251   6.169   7.242 -0.2419  0.8011 -0.1905
  192SLPC  H15S22261   6.157   6.281   7.344  0.0794  0.4429  1.0362
  192SLPC  C21622262   6.318   6.182   7.456  0.3772  0.6574  0.2926
  192SLPC  H16R22263   6.287   6.247   7.542  0.3627  0.4888  0.4147
  192SLPC  H16S22264   6.429   6.184   7.455  0.4454 -0.8039  1.3824
  192SLPC  C21722265   6.246   6.046   7.495 -0.5629  0.2623  0.4662
  192SLPC  H17R22266   6.136   6.053   7.479 -0.4742 -1.1896 -0.9854
  192SLPC  H17S22267   6.292   5.971   7.427 -1.9521  2.1009 -2.7650
  192SLPC  C21822268   6.259   6.002   7.640  0.2966  0.2044 -0.6320
  192SLPC  H18R22269   6.241   6.081   7.716 -1.4940 -0.6537 -0.1170
  192SLPC  H18S22270   6.346   5.935   7.659  0.6795  0.5822 -1.0268
  192SLPC  H18T22271   6.164   5.948   7.659 -0.0003  0.4504 -1.3912
  192SLPC   C3322272   6.206   6.689   6.493 -0.0080 -0.8713  0.1223
  192SLPC   H3X22273   6.306   6.671   6.447  0.3647  2.8256 -0.8327
  192SLPC   H3Y22274   6.137   6.603   6.480 -0.9864 -0.4890  2.4253
  192SLPC   C3422275   6.230   6.705   6.646  0.1376 -0.0887  0.5919
  192SLPC   H4X22276   6.301   6.623   6.671  1.1969  0.4170 -0.6682
  192SLPC   H4Y22277   6.145   6.681   6.714  1.3242 -1.7135  1.5680
  192SLPC   C3522278   6.298   6.841   6.679  1.3310  0.6384 -0.7472
  192SLPC   H5X22279   6.222   6.919   6.658  0.2667  0.0961  0.8923
  192SLPC   H5Y22280   6.384   6.866   6.612  0.6749  2.5767 -0.9381
  192SLPC   C3622281   6.346   6.843   6.823 -0.1376 -0.0487 -0.0587
  192SLPC   H6X22282   6.391   6.742   6.839  2.6193  1.3127  1.4539
  192SLPC   H6Y22283   6.273   6.867   6.903  1.0952 -1.0666  1.4253
  192SLPC   C3722284   6.459   6.943   6.839  0.0220 -0.3744 -0.9246
  192SLPC   H7X22285   6.431   7.035   6.783 -1.8466 -0.9402 -0.9643
  192SLPC   H7Y22286   6.557   6.917   6.794  0.0239 -1.4797 -0.3189
  192SLPC   C3822287   6.482   6.966   6.987 -0.3812 -0.2520  0.7334
  192SLPC   H8X22288   6.480   6.868   7.038 -1.1934 -0.6712 -0.0765
  192SLPC   H8Y22289   6.395   7.021   7.029 -0.4372 -0.5636  1.0277
  192SLPC   C3922290   6.602   7.060   7.006  0.1589 -0.0394 -0.1178
  192SLPC   H9X22291   6.562   7.145   6.946  0.2157  0.8748  1.0950
  192SLPC   H9Y22292   6.690   7.021   6.952 -1.0235 -0.2479 -1.9636
  192SLPC  C31022293   6.639   7.096   7.145  0.2735 -0.0346 -0.3551
  192SLPC  H10X22294   6.551   7.140   7.194  1.6220  1.9824  0.3767
  192SLPC  H10Y22295   6.715   7.177   7.138 -0.3143  0.5148 -0.3958
  192SLPC  C31122296   6.708   6.974   7.212 -0.1038 -0.3736  0.0592
  192SLPC  H11X22297   6.781   6.928   7.142 -1.7657 -2.3781 -0.4321
  192SLPC  H11Y22298   6.638   6.893   7.240 -0.1808 -0.3239  0.0103
  192SLPC  C31222299   6.790   7.019   7.337  0.1197 -0.2884  0.6980
  192SLPC  H12X22300   6.732   7.085   7.405  1.2875 -0.8239  2.2652
  192SLPC  H12Y22301   6.872   7.080   7.294  2.2192 -2.9660  0.6232
  192SLPC  C31322302   6.859   6.902   7.402 -0.6320  0.4988 -0.6156
  192SLPC  H13X22303   6.927   6.848   7.333  0.8692 -0.6037  1.6106
  192SLPC  H13Y22304   6.793   6.823   7.444  0.4953 -0.8497 -1.3348
  192SLPC  C31422305   6.935   6.949   7.529 -0.0700 -0.1971 -0.1467
  192SLPC  H14X22306   6.853   6.977   7.598 -0.7387 -0.3747 -0.8559
  192SLPC  H14Y22307   6.991   7.041   7.503 -1.0169  0.8490  1.3261
  192SLPC  C31522308   7.019   6.837   7.600  0.5653  0.0499  0.0717
  192SLPC  H15X22309   7.091   6.809   7.520 -1.6318 -1.8539 -1.3593
  192SLPC  H15Y22310   6.950   6.751   7.611 -2.8618  1.5993 -5.1936
  192SLPC  C31622311   7.117   6.881   7.717  0.0842  0.1662 -0.5444
  192SLPC  H16X22312   7.203   6.929   7.664  1.1465 -1.0370  0.0215
  192SLPC  H16Y22313   7.158   6.792   7.770 -3.5224 -0.8585  0.8208
  192SLPC  C31722314   7.049   6.973   7.815  0.4868 -0.1376  0.3230
  192SLPC  H17X22315   6.957   6.923   7.853  0.7236 -0.9043 -0.0987
  192SLPC  H17Y22316   7.015   7.062   7.758 -1.5569 -0.9730  0.1502
  192SLPC  C31822317   7.148   7.000   7.915 -0.6115 -0.7566  0.0064
  192SLPC  H18X22318   7.230   7.064   7.876 -0.2163 -1.5179 -0.4220
  192SLPC  H18Y22319   7.201   6.904   7.933 -2.0877 -1.7771 -0.8707
  192SLPC  H18Z22320   7.115   7.025   8.019  0.5176 -1.4245  0.5447
  193SOD    SOD22321   6.050   7.091  15.344  0.4054 -0.1006  0.2623
  194SOD    SOD22322   3.260   3.020   0.434 -0.2934 -0.3723  0.0977
  195SOD    SOD22323   4.127   1.103  12.802  0.3571 -0.2088 -0.8043
  196SOD    SOD22324   2.921   3.703  12.800 -0.0053  0.2672 -0.0193
  197SOD    SOD22325   0.871   3.726   4.314 -0.6010 -0.0616  0.4027
  198SOD    SOD22326   2.678   3.910  15.241 -0.5707  0.4708 -0.0096
  199SOD    SOD22327   0.044   6.132   5.736  0.1963 -0.2340 -0.1179
  200SOD    SOD22328   5.515   6.657   4.625 -0.0605 -0.3438 -0.1239
  201SOD    SOD22329   5.294   5.176   2.475  0.0916  0.0419  0.3714
  202SOD    SOD22330   4.034   1.803   2.030 -0.3207 -0.0305 -0.6267
  203SOD    SOD22331   2.185   4.055  10.031  0.0723 -0.0277 -0.3753
  204SOD    SOD22332   5.134   1.841   4.129 -0.4196 -0.1114 -0.0052
  205SOD    SOD22333   2.213   3.797   2.414 -0.3628 -0.1472 -0.6426
  206SOD    SOD22334   3.558   1.120   3.635 -0.4619  0.0803  0.5907
  207SOD    SOD22335   4.516   5.961   0.967  0.2187 -0.0305 -0.0581
  208SOD    SOD22336   5.753   5.499  11.815  0.8179  0.1425 -0.0134
  209SOD    SOD22337   0.802   3.118   4.379  0.0803  0.1855  0.0502
  210SOD    SOD22338   4.843   4.875  15.193  0.2274 -0.1631 -0.0335
  211SOD    SOD22339   3.158   5.634  10.451  0.0852  0.2582 -0.1434
  212SOD    SOD22340   4.402   5.716   1.540  0.1775 -0.3090  0.3790
  213SOD    SOD22341   1.892   5.524   1.590  0.4072 -0.1567 -0.3042
  214SOD    SOD22342   6.986   1.753  13.320 -0.3491 -0.0345 -0.0009
  215SOD    SOD22343   2.311   6.317  10.436 -0.1569  0.1912  0.1277
  216SOD    SOD22344   6.244   5.450   5.560  0.5051  0.2716  0.3071
  217SOD    SOD22345   5.471   4.804  11.433 -0.1452  0.1421 -0.6215
  218SOD    SOD22346   2.609   6.675   3.107 -0.0672  0.1933  0.0830
  219SOD    SOD22347   0.250   0.699   4.062 -0.3735 -0.0281  0.3018
  220SOD    SOD22348   6.426   3.858   4.208  0.1269  0.2124  0.0839
  221SOD    SOD22349   5.209   3.212   3.814  0.0699 -0.0458 -0.1509
  222SOD    SOD22350   3.431   5.265  10.352  0.0607 -0.8745 -0.2043
  223SOD    SOD22351   1.673   5.426   4.949  0.0555 -0.2171 -0.2264
  224SOD    SOD22352   5.349   3.071  11.984  0.0072 -0.0513 -0.2505
  225SOD    SOD22353   0.379   5.576   2.476 -0.0156 -0.3336  0.0196
  226SOD    SOD22354   3.592   5.518   5.693  0.0360 -0.3049  0.1642
  227SOD    SOD22355   4.985   5.476   2.063 -0.0662 -0.0647 -0.0638
  228SOD    SOD22356   5.461   3.145  10.165  0.1708 -0.1901  0.2546
  229SOD    SOD22357   2.802   6.055  10.460 -0.6268 -0.0467 -0.5731
  230SOD    SOD22358   5.952   3.438   5.653  0.0974  0.0361 -0.0768
  231SOD    SOD22359   7.058   2.995   0.169  0.4215  0.2800  0.2750
  232SOD    SOD22360   4.751   3.855   4.818 -0.7754 -0.1407 -0.2392
  233SOD    SOD22361   5.194   6.955   4.912  0.2586  0.3407  0.3485
  234SOD    SOD22362   6.498   5.953  15.192  0.2954  0.7092  0.2305
  235SOD    SOD22363   3.470   1.503   3.023  0.5794  0.0569 -0.5573
  236SOD    SOD22364   4.814   2.915   1.370  0.0617 -0.1246 -0.1851
  237SOD    SOD22365   6.785   5.688  10.686  0.1105 -0.3131 -0.5333
  238SOD    SOD22366   2.281   2.706   5.352 -0.0276  0.3525 -0.2414
  239SOD    SOD22367   0.420   4.839  12.689 -0.4194 -0.2346 -0.2240
  240SOD    SOD22368   6.199   1.331  10.511  0.5469 -0.4715  0.3002
  241SOD    SOD22369   1.101   6.067   5.403  0.1667 -0.0472 -0.1749
  242SOD    SOD22370   2.519   3.414  15.054  0.2899 -0.2002  0.1813
  243SOD    SOD22371   6.591   1.070   3.331 -0.4647  0.5732  0.1994
  244SOD    SOD22372   0.270   3.077   2.659  0.0126  0.2225  0.2951
  245SOD    SOD22373   5.496   1.874  12.085 -0.1520  0.4435 -0.1669
  246SOD    SOD22374   5.618   5.156  14.208  0.0093  0.4635 -0.0478
  247SOD    SOD22375   1.775   4.109  13.335 -0.2798  0.6002  0.4504
  248SOD    SOD22376   0.123   1.239   3.835  0.3179 -0.0764  0.3084
  249SOD    SOD22377   2.111   0.207  13.812 -0.0214 -0.5820  0.5920
  250SOD    SOD22378   0.518   0.442   2.801 -0.1662  0.4067  0.1251
  251SOD    SOD22379   6.088   0.783   9.866 -0.0424 -0.1153  0.1240
  252SOD    SOD22380   2.990   6.555  10.193  0.2337  0.1487 -0.1479
  253SOD    SOD22381   5.557   4.980  10.251 -0.0762  0.5006 -0.2459
  254SOD    SOD22382   6.167   4.090  10.109  0.5113  0.3259  0.4377
  255SOD    SOD22383   2.154   6.785  14.981 -0.5425 -0.0363  0.2031
  256SOD    SOD22384   6.712   0.327   4.445 -0.0411  0.1758 -0.6441
  257SOD    SOD22385   3.584   6.390  11.950 -0.5216 -0.2618  0.0694
  258SOD    SOD22386   0.130   4.913   5.100 -0.5471  0.4248  0.1483
  259SOD    SOD22387   0.682   4.143   9.781 -0.3688  0.2938 -0.1135
  260SOD    SOD22388   2.260   3.711   0.312  0.2152 -0.2149  0.3027
  261SOD    SOD22389   6.875   2.151  12.274 -0.3223  0.2360  0.6310
  262SOD    SOD22390   6.079   5.657   1.447  0.0685 -0.0876 -0.1968
  263SOD    SOD22391   1.178   6.840  10.589  0.6101  0.0958  0.1956
  264SOD    SOD22392   4.550   6.889   2.120  0.6447 -0.9981 -0.0535
  265SOD    SOD22393   4.129   2.200  14.451 -0.0968  0.1038 -0.1587
  266CLA    CLA22394   3.164   2.353   1.482  0.3753 -0.2835 -0.6199
  267CLA    CLA22395   5.921   5.750  15.594 -0.0922 -0.2841 -0.0098
  268CLA    CLA22396   1.371   2.885  13.035  0.3144  0.2539  0.2075
  269CLA    CLA22397   2.793   3.005   4.365  0.0905 -0.0346 -0.1823
  270CLA    CLA22398   3.955   1.572   2.483  0.1815  0.5018 -0.1709
  271CLA    CLA22399   3.975   6.231   2.399  0.0514 -0.3483 -0.2149
  272CLA    CLA22400   5.780   5.925  11.685  0.0108 -0.1379  0.6076
  273CLA    CLA22401   6.230   6.788   4.646  0.1470 -0.3109  0.2183
  274CLA    CLA22402   2.048   3.562  15.492  0.2014  0.4483  0.0406
  275CLA    CLA22403   0.429   4.610   3.728  0.0121 -0.1843 -0.5915
  276CLA    CLA22404   6.481   4.114  14.281  0.5520  0.3051  0.2031
  277CLA    CLA22405   2.769   5.488   0.313  0.0836 -0.1429 -0.2835
  278CLA    CLA22406   6.105   1.242  11.934  0.5335  0.2792 -0.2987
  279CLA    CLA22407   6.033   2.056  14.457  0.1110 -0.4445 -0.0847
  280CLA    CLA22408   4.521   3.941  14.248 -0.1929 -0.1060 -0.1445
  281CLA    CLA22409   0.431   3.192  13.385  0.0787 -0.4585 -0.1624
  282CLA    CLA22410   3.361   5.478  13.900  0.2520  0.1028  0.3640
  283CLA    CLA22411   6.876   1.133   3.696 -0.1320 -0.2619 -0.2972
  284CLA    CLA22412   3.268   5.933  11.952  0.2523 -0.1041 -0.1790
  285CLA    CLA22413   3.359   2.067   4.158  0.0177  0.0827  0.1801
  286CLA    CLA22414   5.556   6.374  14.922 -0.1463  0.0696 -0.0155
  287CLA    CLA22415   0.521   0.079  12.742  0.2564  0.2082 -0.0434
  288CLA    CLA22416   1.120   0.906  10.147  0.0800  0.1506  0.3529
  289CLA    CLA22417   4.535   5.513   2.141 -0.1448 -0.4169 -0.0669
  290CLA    CLA22418   2.346   5.194   4.609 -0.0959  0.0226  0.2764
  291CLA    CLA22419   3.374   6.147  10.687  0.0355 -0.4816 -0.4012
  292CLA    CLA22420   5.076   6.369  15.319 -0.1768  0.0162 -0.1986
  293CLA    CLA22421   0.548   0.009   3.444 -0.3328  0.2179  0.0878
  294CLA    CLA22422   4.794   2.407   0.627 -0.3086 -0.3980 -0.0936
  295CLA    CLA22423   3.674   5.260   4.688 -0.0508  0.1034  0.0833
  296CLA    CLA22424   3.735   6.375  14.381  0.0571  0.3691  0.7166
  297CLA    CLA22425   5.454   2.612  12.101  0.2146 -0.0553  0.0122
  298CLA    CLA22426   0.682   0.881   3.094  0.2451 -0.3613  0.2993
  299CLA    CLA22427   0.708   1.185   1.721 -0.0760 -0.0286 -0.1658
  300CLA    CLA22428   3.987   6.037   1.069 -0.0359  0.3078 -0.1056
  301CLA    CLA22429   6.026   5.297   0.665 -0.2969  0.4102 -0.0826
  302CLA    CLA22430   0.628   0.416   4.944 -0.3215  0.2078 -0.3649
  303CLA    CLA22431   3.526   0.139   3.466  0.0429  0.1458 -0.2271
  304CLA    CLA22432   0.264   2.316   2.403  0.5637 -0.5410 -0.1017
  305CLA    CLA22433   6.683   4.097   2.445  0.1254  0.4655 -0.1812
  306CLA    CLA22434   1.689   3.878  12.077  0.8562 -0.2493 -0.2234
  307CLA    CLA22435   6.762   4.829   3.664 -0.6720 -0.1614 -0.3246
  308CLA    CLA22436   3.752   6.797  11.484 -0.1643 -0.4635  0.3418
  309CLA    CLA22437   5.194   5.792  10.555  0.0487 -0.2534 -0.2950
  310CLA    CLA22438   3.403   5.738   3.166 -0.0213 -0.0610  0.2419
  311CLA    CLA22439   5.992   0.265   0.482 -0.0603 -0.0727 -0.1551
  312CLA    CLA22440   5.002   3.197   3.999  0.0044 -0.2371  0.2656
  313CLA    CLA22441   3.034   3.280  10.984  0.1541 -0.0658 -0.1111
  314CLA    CLA22442   1.372   4.613  11.362 -0.2330 -0.0277  0.2214
  315CLA    CLA22443   4.409   6.823   1.894 -0.0065  0.3588 -0.4729
  316CLA    CLA22444   2.819   3.770   1.868  0.0892 -0.6229  0.1177
  317CLA    CLA22445   5.503   4.016  12.240  0.0381 -0.0062 -0.1624
  318CLA    CLA22446   3.436   5.638  15.428 -0.2890  0.0859 -0.0113
  319TIP3   OH222447   6.879   0.453   2.121 -0.0458  0.6401 -0.4729
  319TIP3    H122448   6.792   0.495   2.121 -0.1098  0.5073 -0.6495
  319TIP3    H222449   6.873   0.386   2.053 -0.2033 -0.1867  0.3219
  320TIP3   OH222450   1.301   4.665  14.377 -0.7311 -0.6536 -0.5975
  320TIP3    H122451   1.291   4.723  14.301  1.1917 -0.4765 -0.7644
  320TIP3    H222452   1.250   4.587  14.354  0.1815 -0.7932 -2.3045
  321TIP3   OH222453   4.661   2.093  15.476 -0.1886 -0.5504 -0.1231
  321TIP3    H122454   4.753   2.071  15.461  0.9557  2.2322  2.0041
  321TIP3    H222455   4.655   2.114  15.569 -2.2060  2.2954 -0.7322
  322TIP3   OH222456   1.071   1.296  14.952  0.1647 -0.1071  0.1212
  322TIP3    H122457   1.017   1.365  14.991  1.4020  1.3746 -0.6830
  322TIP3    H222458   1.128   1.342  14.889  0.7735 -1.9148 -0.7183
  323TIP3   OH222459   4.833   1.788  10.630  0.3597  0.3393  0.0920
  323TIP3    H122460   4.919   1.750  10.644  1.5231  2.4120 -0.8529
  323TIP3    H222461   4.810   1.828  10.714 -1.3566 -3.0413  1.4328
  324TIP3   OH222462   0.124   2.016  10.345 -0.3948 -0.5835 -0.1442
  324TIP3    H122463   0.103   1.954  10.414 -2.4035  1.2178  1.0045
  324TIP3    H222464   0.043   2.024  10.294 -0.1748  0.9469 -0.3262
  325TIP3   OH222465   1.424   5.339   1.077  0.2242  0.3282 -0.4062
  325TIP3    H122466   1.481   5.281   1.026 -0.2346  0.0618 -0.6212
  325TIP3    H222467   1.425   5.303   1.165  0.8366  0.6530 -0.2774
  326TIP3   OH222468   7.094   3.717  13.839 -0.3087  0.3247 -0.3098
  326TIP3    H122469   7.014   3.748  13.796 -1.1254 -1.0915  0.1484
  326TIP3    H222470   7.064   3.654  13.904  0.9692  1.7952  1.8237
  327TIP3   OH222471   6.825   3.138  12.740  0.1450  0.6988 -0.4817
  327TIP3    H122472   6.915   3.106  12.737  0.5424  1.6278  0.7478
  327TIP3    H222473   6.833   3.232  12.757 -1.0464  0.9941 -1.4536
  328TIP3   OH222474   5.187   2.317  12.607  0.2228  0.3830  0.2646
  328TIP3    H122475   5.128   2.391  12.594 -0.3367 -0.3957 -2.1420
  328TIP3    H222476   5.132   2.249  12.645  0.0082  0.2808 -0.2184
  329TIP3   OH222477   3.039   4.108  12.101  0.7221  0.0138  0.0031
  329TIP3    H122478   3.119   4.160  12.089  0.6829 -0.2302 -1.4596
  329TIP3    H222479   3.017   4.120  12.194  2.1808  0.4633  0.3233
  330TIP3   OH222480   4.386   3.045  10.522 -0.0098  0.1145 -0.1643
  330TIP3    H122481   4.353   3.134  10.516 -1.8443 -0.5190 -0.0605
  330TIP3    H222482   4.334   2.995  10.459  0.1733 -1.0946  0.6013
  331TIP3   OH222483   0.598   5.804   2.074 -0.3150  0.1981 -0.2682
  331TIP3    H122484   0.614   5.715   2.103 -3.2005 -0.4240 -0.3280
  331TIP3    H222485   0.599   5.856   2.154 -0.0456 -0.1210 -0.0615
  332TIP3   OH222486   5.341   6.159  14.099  0.3835  0.1893  0.1721
  332TIP3    H122487   5.379   6.197  14.178 -2.0800  2.3132  0.4885
  332TIP3    H222488   5.275   6.097  14.131  0.3827 -0.0435 -0.2599
  333TIP3   OH222489   3.689   4.966   5.309 -0.0933 -0.1811 -0.1713
  333TIP3    H122490   3.689   4.932   5.219  1.4963 -0.9355  0.0702
  333TIP3    H222491   3.647   4.896   5.360  2.6936 -1.6923  0.2431
  334TIP3   OH222492   4.476   4.288  13.572  0.5002 -0.9036 -0.2658
  334TIP3    H122493   4.413   4.253  13.509  0.3019 -0.4220 -0.3441
  334TIP3    H222494   4.499   4.214  13.628  0.6739 -1.3426 -0.9003
  335TIP3   OH222495   0.752   2.745  11.463 -0.4797  0.0533  0.1888
  335TIP3    H122496   0.722   2.817  11.407  1.7693  0.7725 -0.2354
  335TIP3    H222497   0.710   2.667  11.428 -1.1523  0.8588 -0.8446
  336TIP3   OH222498   2.466   5.726  12.038  0.0846  0.1291  0.1965
  336TIP3    H122499   2.381   5.702  12.073  0.3869  0.2737  1.0598
  336TIP3    H222500   2.504   5.783  12.105  1.3066 -0.8055  0.3264
  337TIP3   OH222501   0.259   2.759  12.586  0.1543  0.0312  0.3595
  337TIP3    H122502   0.186   2.745  12.646 -0.6665 -1.7977 -0.9865
  337TIP3    H222503   0.302   2.838  12.619 -1.3906  0.1762  2.1953
  338TIP3   OH222504   6.893   2.619  12.796  0.1035 -0.5935 -0.1005
  338TIP3    H122505   6.845   2.608  12.713 -1.1913 -0.5720  0.6122
  338TIP3    H222506   6.868   2.707  12.826  0.6996 -0.5342  0.2258
  339TIP3   OH222507   6.618   5.141  10.969  0.0433  0.5088  0.3405
  339TIP3    H122508   6.605   5.049  10.948 -2.8154  1.2291 -1.6669
  339TIP3    H222509   6.541   5.165  11.022 -0.0217  2.0375 -0.3856
  340TIP3   OH222510   6.172   2.778   0.549  0.0713  0.4861 -0.1429
  340TIP3    H122511   6.253   2.816   0.516  0.1488  0.9774  0.5986
  340TIP3    H222512   6.188   2.762   0.642 -0.7042  0.6783  0.0332
  341TIP3   OH222513   7.023   6.381  14.997  0.8659 -0.2785 -0.0201
  341TIP3    H122514   7.087   6.352  15.061 -0.3076 -1.3405  0.7221
  341TIP3    H222515   6.974   6.302  14.973  0.0227  0.4384 -0.7674
  342TIP3   OH222516   4.467   5.665  11.297 -0.4258  0.3822  0.6056
  342TIP3    H122517   4.374   5.675  11.317 -0.6780 -0.9504  0.2032
  342TIP3    H222518   4.499   5.754  11.284 -1.9003  0.7979 -0.3498
  343TIP3   OH222519   2.433   0.762   2.538 -0.2989  0.1487  0.3561
  343TIP3    H122520   2.463   0.703   2.468 -2.1741 -0.8040  0.2835
  343TIP3    H222521   2.444   0.849   2.501  1.7936 -0.1417  0.1585
  344TIP3   OH222522   1.527   3.333   9.539 -0.2352 -0.1860  0.1831
  344TIP3    H122523   1.536   3.310   9.447 -0.6717 -2.8981  0.7425
  344TIP3    H222524   1.583   3.270   9.585 -0.1879  0.9699  1.7972
  345TIP3   OH222525   3.278   3.072   5.094 -0.3191  0.1237  0.0693
  345TIP3    H122526   3.356   3.017   5.094 -0.1105  0.3645 -1.5863
  345TIP3    H222527   3.262   3.091   5.001 -0.8866  2.1584  0.5416
  346TIP3   OH222528   5.388   4.524  13.300 -0.2334  0.1262  0.4780
  346TIP3    H122529   5.462   4.583  13.288 -0.2747 -0.1199 -1.2801
  346TIP3    H222530   5.356   4.507  13.212 -1.3609 -1.0914  1.0749
  347TIP3   OH222531   4.884   0.632  12.460 -0.5470 -0.0843  0.5913
  347TIP3    H122532   4.900   0.705  12.400 -1.9692 -0.6596 -0.5558
  347TIP3    H222533   4.951   0.641  12.527  0.5262  1.1379 -0.5791
  348TIP3   OH222534   6.477   5.358  12.398  0.0585 -0.3276 -0.2182
  348TIP3    H122535   6.500   5.265  12.405  3.1278  0.4274  1.0545
  348TIP3    H222536   6.522   5.388  12.320 -0.2563  0.2788 -0.1696
  349TIP3   OH222537   5.828   3.338  10.877 -0.1631  0.2730  0.1905
  349TIP3    H122538   5.807   3.428  10.851 -0.2854 -0.0190 -0.7557
  349TIP3    H222539   5.749   3.288  10.855  0.5289 -0.3679 -0.9718
  350TIP3   OH222540   6.049   5.481   5.690 -0.0219  0.2700  0.1918
  350TIP3    H122541   6.080   5.476   5.781  0.6653 -1.2056 -0.0850
  350TIP3    H222542   5.988   5.407   5.682 -1.1366  1.2094 -0.1856
  351TIP3   OH222543   7.142   0.187   3.069  0.3076  0.2559  0.0191
  351TIP3    H122544   7.067   0.245   3.078 -0.5082 -0.8066  0.2097
  351TIP3    H222545   7.105   0.104   3.042  1.4669 -0.1690 -0.3123
  352TIP3   OH222546   1.431   6.842  11.445  0.4313  0.1899  0.0380
  352TIP3    H122547   1.351   6.802  11.412 -0.2930  1.7387 -0.1698
  352TIP3    H222548   1.462   6.897  11.374  1.5008 -0.1321  0.2431
  353TIP3   OH222549   5.442   5.596  10.508 -0.1766  0.0540 -0.0427
  353TIP3    H122550   5.369   5.648  10.540  0.5804 -0.3028  2.5306
  353TIP3    H222551   5.515   5.619  10.565  1.9691  0.8296 -2.8692
  354TIP3   OH222552   6.943   4.675  11.031 -0.3712  0.0507  0.9355
  354TIP3    H122553   6.981   4.656  11.117 -0.1998 -0.9101  0.6532
  354TIP3    H222554   7.000   4.630  10.969 -0.8017  0.2969  0.3535
  355TIP3   OH222555   2.716   5.002   1.126 -0.0785  0.3678  0.2536
  355TIP3    H122556   2.639   4.949   1.104 -1.1093  0.7731  2.6227
  355TIP3    H222557   2.686   5.061   1.194  1.9201  1.7474  0.0226
  356TIP3   OH222558   3.169   3.750  12.727  0.5321  0.6298 -0.3279
  356TIP3    H122559   3.169   3.757  12.822 -1.3306 -2.0493 -0.0007
  356TIP3    H222560   3.252   3.708  12.706 -0.8783 -3.0957  0.7557
  357TIP3   OH222561   6.383   5.764  12.241 -0.5278 -0.1619  0.0871
  357TIP3    H122562   6.340   5.814  12.171 -2.1941 -0.9007  0.5269
  357TIP3    H222563   6.476   5.773  12.223 -0.7741  2.4850 -0.2526
  358TIP3   OH222564   6.268   1.040  11.109  0.4329 -0.0074 -0.1263
  358TIP3    H122565   6.294   1.125  11.146 -0.3412 -0.1062  0.6998
  358TIP3    H222566   6.250   0.985  11.186  0.7583 -0.8736 -0.6518
  359TIP3   OH222567   0.309   1.825  10.337  0.7679 -0.3821  0.1688
  359TIP3    H122568   0.271   1.786  10.415 -1.4045 -1.5893 -1.3688
  359TIP3    H222569   0.244   1.889  10.308  1.3589 -0.2128 -0.8581
  360TIP3   OH222570   0.996   1.987  10.344 -0.0809 -0.2581  0.2683
  360TIP3    H122571   0.973   1.969  10.253  0.9362 -0.5554  0.0547
  360TIP3    H222572   1.020   2.080  10.344 -0.4415 -0.1656  0.3090
  361TIP3   OH222573   0.573   1.049  14.852  0.6516  0.0097 -0.0299
  361TIP3    H122574   0.552   1.016  14.939 -1.3780  1.1436 -0.0191
  361TIP3    H222575   0.575   0.970  14.797  0.9831 -0.6157  0.8565
  362TIP3   OH222576   3.037   4.191   3.837 -0.6854  0.2465  0.1412
  362TIP3    H122577   3.013   4.195   3.930  1.6264 -0.8539  0.8673
  362TIP3    H222578   3.071   4.102   3.825  0.9368  0.9952 -1.2340
  363TIP3   OH222579   2.664   6.515  12.206 -0.3261  0.0119  0.3843
  363TIP3    H122580   2.651   6.508  12.111  0.3197  0.1323  0.2783
  363TIP3    H222581   2.632   6.603  12.228 -0.0706  0.1559  0.1969
  364TIP3   OH222582   4.492   1.535  11.621  0.1887 -0.1238 -0.7569
  364TIP3    H122583   4.583   1.565  11.617  1.0200 -1.8556  2.1725
  364TIP3    H222584   4.494   1.446  11.585  0.0550 -0.8487  0.9597
  365TIP3   OH222585   0.643   1.143  13.372  0.3559 -0.4250  0.1487
  365TIP3    H122586   0.686   1.065  13.405  1.9722  0.0513 -0.6921
  365TIP3    H222587   0.656   1.209  13.441  0.0091 -0.5799  0.3631
  366TIP3   OH222588   2.976   4.901   0.082  0.5111 -0.1921  0.5027
  366TIP3    H122589   2.911   4.940   0.023  0.3882 -1.1453 -0.0104
  366TIP3    H222590   3.020   4.976   0.121 -1.3807  0.5146  1.4436
  367TIP3   OH222591   2.106   0.007   0.397 -0.6476  0.3453 -0.0141
  367TIP3    H122592   2.111  -0.056   0.324 -0.6916  1.1021 -0.6789
  367TIP3    H222593   2.142  -0.041   0.472 -2.3838 -1.1133 -0.0617
  368TIP3   OH222594   6.367   3.110  14.480 -0.0906  0.0488  0.3369
  368TIP3    H122595   6.444   3.141  14.527 -0.5621  0.9491  0.5503
  368TIP3    H222596   6.397   3.033  14.432  0.4186 -0.8627  2.0539
  369TIP3   OH222597   0.219   4.589   1.971 -0.2125  0.0230 -0.1559
  369TIP3    H122598   0.213   4.581   2.066  1.1918  0.1050 -0.0373
  369TIP3    H222599   0.144   4.643   1.947  0.5464  1.7561  1.1555
  370TIP3   OH222600   0.837   1.070  11.817 -0.3598 -0.3637 -0.3906
  370TIP3    H122601   0.775   1.062  11.889  1.5148 -0.3947  1.3024
  370TIP3    H222602   0.856   0.979  11.792 -1.2960 -0.3492 -1.2425
  371TIP3   OH222603   5.331   5.498  12.754  0.4980  0.1541 -0.0523
  371TIP3    H122604   5.368   5.437  12.818  1.1889  1.4186  0.7748
  371TIP3    H222605   5.273   5.555  12.806 -1.5346 -0.8469 -1.0808
  372TIP3   OH222606   2.083   0.885  12.516 -0.1895  0.0059 -0.4211
  372TIP3    H122607   2.126   0.963  12.481  0.7928 -0.2673  0.1485
  372TIP3    H222608   2.155   0.826  12.540 -0.9032 -0.8751 -0.3805
  373TIP3   OH222609   3.708   6.591  12.357 -0.3108 -0.5837  0.1719
  373TIP3    H122610   3.638   6.593  12.292 -0.8737  0.0289  0.7731
  373TIP3    H222611   3.662   6.600  12.441  0.4415 -0.8287  0.6152
  374TIP3   OH222612   5.329   4.987   4.331 -0.0073 -0.2879 -0.3457
  374TIP3    H122613   5.291   4.947   4.410  0.6874  0.7796  0.5595
  374TIP3    H222614   5.424   4.982   4.346  0.3133 -2.9122 -2.5597
  375TIP3   OH222615   6.508   1.086   4.890 -0.1286  0.0276 -0.0866
  375TIP3    H122616   6.545   1.037   4.963  0.0712 -0.1221 -0.2842
  375TIP3    H222617   6.414   1.089   4.907 -0.0333  0.3609  0.3927
  376TIP3   OH222618   6.051   0.656   0.121 -0.0582  0.3158  0.1978
  376TIP3    H122619   5.973   0.602   0.119 -0.5224  0.9805 -0.0122
  376TIP3    H222620   6.120   0.601   0.083 -0.6299  0.0548 -0.4750
  377TIP3   OH222621   0.102   1.713   4.758  0.1806 -0.2474  0.3337
  377TIP3    H122622   0.156   1.791   4.751  1.5847 -1.1496  0.6758
  377TIP3    H222623   0.164   1.641   4.764 -1.0694 -1.3981  0.1113
  378TIP3   OH222624   3.339   3.502   1.073  0.1940  0.4374 -0.0337
  378TIP3    H122625   3.291   3.571   1.119 -1.5587 -1.5921  1.3939
  378TIP3    H222626   3.398   3.465   1.139  0.9981  0.4400 -0.7321
  379TIP3   OH222627   0.472   0.933  15.067  0.6179 -0.5276  0.2992
  379TIP3    H122628   0.456   0.848  15.026 -0.1461  0.0649 -0.6830
  379TIP3    H222629   0.491   0.913  15.158  0.8776 -1.7816 -0.0151
  380TIP3   OH222630   3.489   0.694   2.120 -0.2174 -0.2913 -0.1284
  380TIP3    H122631   3.460   0.704   2.210 -1.2362  1.1385 -0.5672
  380TIP3    H222632   3.525   0.780   2.097  0.5338 -0.8048 -0.9076
  381TIP3   OH222633   1.158   5.082   3.256  0.4812  0.3996 -0.2343
  381TIP3    H122634   1.116   5.015   3.311  0.4657 -0.1214 -0.8718
  381TIP3    H222635   1.206   5.032   3.190 -0.7576  1.0131 -1.6540
  382TIP3   OH222636   1.786   1.689   1.199 -0.1498  0.6911  0.5207
  382TIP3    H122637   1.860   1.747   1.217  0.4816 -0.7895  3.1736
  382TIP3    H222638   1.709   1.742   1.217  0.1868  2.0749 -1.7260
  383TIP3   OH222639   2.656   3.687   3.632 -0.2816 -0.1647  0.0382
  383TIP3    H122640   2.648   3.754   3.564 -1.8553  0.0183  0.3724
  383TIP3    H222641   2.567   3.677   3.667  0.2182 -1.3208  1.0542
  384TIP3   OH222642   0.318   3.686   1.392 -0.0849  0.3280 -0.9544
  384TIP3    H122643   0.227   3.717   1.395 -0.2862 -0.1069 -2.0297
  384TIP3    H222644   0.350   3.697   1.482 -0.7916  1.6881 -0.8391
  385TIP3   OH222645   3.250   2.876  13.592 -0.0113  0.0062 -0.6600
  385TIP3    H122646   3.240   2.782  13.604 -0.0928 -0.3271 -2.8493
  385TIP3    H222647   3.327   2.885  13.535  0.7779  1.3746  0.5382
  386TIP3   OH222648   3.186   3.449   5.447 -0.2485 -0.1490 -0.1136
  386TIP3    H122649   3.223   3.371   5.406  1.0660 -0.1051  0.9334
  386TIP3    H222650   3.183   3.429   5.541 -2.7255 -0.0594 -0.1005
  387TIP3   OH222651   4.780   3.086   5.511  0.5321 -0.5947  0.1133
  387TIP3    H122652   4.751   3.006   5.468 -0.3835 -0.0119 -0.3825
  387TIP3    H222653   4.716   3.152   5.485  0.7763  0.1082  1.2035
  388TIP3   OH222654   0.874   6.606   3.039  0.3926 -0.4641  0.1542
  388TIP3    H122655   0.893   6.691   3.078  0.3241 -0.4240  0.1016
  388TIP3    H222656   0.897   6.617   2.947 -1.1841  0.0214 -0.2149
  389TIP3   OH222657   3.393   2.051   3.738 -0.3121 -0.1547 -0.5092
  389TIP3    H122658   3.360   1.966   3.767  0.8919 -0.1624  0.9453
  389TIP3    H222659   3.464   2.030   3.677  0.6403 -0.2353  0.6004
  390TIP3   OH222660   3.713   5.313   1.860  0.9444 -0.3432 -0.7003
  390TIP3    H122661   3.663   5.241   1.899  0.5374 -0.3573 -1.2382
  390TIP3    H222662   3.652   5.354   1.799  1.3439  0.1343 -0.7799
  391TIP3   OH222663   5.902   6.770   3.049  0.3541 -0.4041 -0.2567
  391TIP3    H122664   5.841   6.790   3.120  1.3765 -1.5076  0.9836
  391TIP3    H222665   5.989   6.790   3.085  0.8064  0.6384 -1.8033
  392TIP3   OH222666   5.666   4.680   0.411 -0.3331 -0.0713  0.3996
  392TIP3    H122667   5.725   4.745   0.448 -0.9294  1.4749 -1.1943
  392TIP3    H222668   5.678   4.602   0.465  2.2941  0.5348  0.8324
  393TIP3   OH222669   4.349   6.335   4.132  0.1758 -0.4329 -0.2819
  393TIP3    H122670   4.400   6.267   4.178 -1.7517 -0.5064  1.9491
  393TIP3    H222671   4.361   6.413   4.185  0.5305  0.4146 -1.5709
  394TIP3   OH222672   0.836   3.929  14.117  0.1484  0.0181  0.3352
  394TIP3    H122673   0.908   3.991  14.108  1.1368 -1.0867  0.3299
  394TIP3    H222674   0.876   3.852  14.160 -0.7148 -1.1269 -0.8338
  395TIP3   OH222675   4.300   3.680   1.740  0.0617  0.8037  0.4623
  395TIP3    H122676   4.248   3.604   1.767  0.5334  0.6486  0.9325
  395TIP3    H222677   4.370   3.643   1.686 -0.5968  1.0632 -0.6141
  396TIP3   OH222678   3.443   6.277   0.509  0.7042  0.2949  0.1661
  396TIP3    H122679   3.491   6.334   0.569  2.4270  1.0514 -1.8253
  396TIP3    H222680   3.511   6.238   0.453 -0.6698 -1.7570 -0.1827
  397TIP3   OH222681   5.083   4.992   1.210 -0.1442 -0.6985  0.5470
  397TIP3    H122682   5.106   5.020   1.299  0.4758 -1.8161  0.7572
  397TIP3    H222683   5.164   5.005   1.160 -0.9743  1.6311 -0.3305
  398TIP3   OH222684   6.852   2.647   1.944  0.6007  0.1699 -0.0867
  398TIP3    H122685   6.841   2.557   1.913 -0.8438  0.2841  0.0546
  398TIP3    H222686   6.764   2.683   1.948  1.1317  1.5246  0.1134
  399TIP3   OH222687   1.162   2.332   4.508 -0.2046  0.7455 -0.7088
  399TIP3    H122688   1.115   2.411   4.479  0.8927  1.4800 -0.5540
  399TIP3    H222689   1.243   2.332   4.458  0.6837  0.7961  0.6528
  400TIP3   OH222690   6.196   2.309   0.740  0.2098  0.9563  0.1239
  400TIP3    H122691   6.106   2.276   0.737  0.1148  1.1255  0.9144
  400TIP3    H222692   6.232   2.288   0.654 -0.2199 -0.1344  0.2000
  401TIP3   OH222693   4.206   6.094   2.025 -0.9341  0.7920  0.1294
  401TIP3    H122694   4.181   6.026   2.086 -1.8781  0.1074 -0.9836
  401TIP3    H222695   4.141   6.163   2.037 -0.7482  0.9290  0.3433
  402TIP3   OH222696   0.886   1.996   3.750 -0.1596  0.0087  0.0964
  402TIP3    H122697   0.879   1.903   3.769 -0.7176 -0.0148 -0.2031
  402TIP3    H222698   0.840   2.040   3.821  0.4461  0.0827  0.4519
  403TIP3   OH222699   5.098   5.407   4.621  0.2440  0.1830  0.1896
  403TIP3    H122700   5.167   5.379   4.682  0.1820  0.3019  0.3144
  403TIP3    H222701   5.070   5.492   4.654 -1.6554 -0.9005  1.5879
  404TIP3   OH222702   3.747   2.716   6.172 -0.5659 -0.2332  0.6703
  404TIP3    H122703   3.776   2.640   6.222  1.7819  0.2629  0.1536
  404TIP3    H222704   3.820   2.777   6.176 -0.8423  0.4014 -2.1865
  405TIP3   OH222705   4.451   3.141   0.345  0.2054  0.7072 -0.1795
  405TIP3    H122706   4.501   3.104   0.272 -0.4826  1.0106 -0.8160
  405TIP3    H222707   4.518   3.168   0.408  0.8578  1.1414 -1.0323
  406TIP3   OH222708   0.810   5.870   3.965  0.2076  0.0362  0.5805
  406TIP3    H122709   0.735   5.814   3.985 -1.0125  1.7044  0.8054
  406TIP3    H222710   0.886   5.819   3.996 -0.8593 -1.3851  0.9742
  407TIP3   OH222711   2.380   4.155   3.105  0.5309  0.2291  0.1598
  407TIP3    H122712   2.288   4.139   3.124  0.2610  1.1311 -0.3356
  407TIP3    H222713   2.385   4.248   3.084  1.6260  0.2830  0.5852
  408TIP3   OH222714   0.093   2.831   5.736 -0.1089 -0.0562 -0.2638
  408TIP3    H122715   0.055   2.918   5.720 -0.4746 -0.5253 -2.2242
  408TIP3    H222716   0.055   2.803   5.819 -2.9581  0.1165 -1.3885
  409TIP3   OH222717   1.865   0.059   1.221  0.0911 -0.4546 -0.0957
  409TIP3    H122718   1.793   0.119   1.241  1.2657  1.2138 -0.7241
  409TIP3    H222719   1.935   0.086   1.280  1.2538  0.0149 -1.6512
  410TIP3   OH222720   0.697   6.743   3.715 -0.1398  0.0016 -0.2553
  410TIP3    H122721   0.743   6.676   3.664  1.4298  0.9885 -0.2159
  410TIP3    H222722   0.738   6.740   3.801  0.2879  1.2998 -0.3893
  411TIP3   OH222723   3.389   6.951   5.386  0.3254 -0.2140  0.0652
  411TIP3    H122724   3.392   7.030   5.440 -0.0519  0.4048 -0.8005
  411TIP3    H222725   3.325   6.970   5.318 -0.7199 -1.7550  0.5697
  412TIP3   OH222726   1.654   3.537  12.887  0.5945 -0.5979 -0.1953
  412TIP3    H122727   1.669   3.451  12.927 -0.9577 -1.1130 -0.6299
  412TIP3    H222728   1.589   3.579  12.944 -0.3765 -0.6614 -1.2174
  413TIP3   OH222729   5.930   6.974   1.598 -0.1624 -0.1595  0.3836
  413TIP3    H122730   5.862   6.979   1.666  0.8420 -1.4097  1.5422
  413TIP3    H222731   6.005   6.937   1.643  0.6716 -0.6611 -1.3564
  414TIP3   OH222732   2.579   5.732   4.702 -0.3054 -0.6093 -0.4425
  414TIP3    H122733   2.488   5.760   4.687 -0.5251 -1.2211 -0.2647
  414TIP3    H222734   2.573   5.638   4.715  0.3853 -0.6772 -0.6259
  415TIP3   OH222735   3.189   6.144   3.869 -0.0633  0.2732 -0.7781
  415TIP3    H122736   3.280   6.117   3.877 -0.5107 -0.9157  0.9388
  415TIP3    H222737   3.158   6.102   3.788  0.4108 -0.8975 -0.3729
  416TIP3   OH222738   7.013   2.117   1.290  0.1243 -0.3330  0.1106
  416TIP3    H122739   7.038   2.109   1.382  1.5928 -2.8499 -0.4047
  416TIP3    H222740   7.077   2.177   1.253  0.1721 -0.1290  0.5152
  417TIP3   OH222741   3.530   1.307   3.755  0.1133 -0.5110  0.8125
  417TIP3    H122742   3.606   1.364   3.771 -0.1517  0.0561  0.1128
  417TIP3    H222743   3.471   1.325   3.828 -0.6233  1.2524 -0.1468
  418TIP3   OH222744   4.650   1.638   2.751  0.5362  0.1705  0.3260
  418TIP3    H122745   4.630   1.614   2.661 -0.7954  0.9413  0.3967
  418TIP3    H222746   4.743   1.616   2.761  0.2885 -1.4678 -0.6993
  419TIP3   OH222747   4.676   0.086   4.398  0.3585  0.4503 -0.7861
  419TIP3    H122748   4.584   0.082   4.374  0.4046  0.6943 -1.0053
  419TIP3    H222749   4.723   0.064   4.318  0.5428  2.3546 -1.2477
  420TIP3   OH222750   6.292   4.005   1.248  0.0636  0.0906  0.0583
  420TIP3    H122751   6.363   4.068   1.238  0.8626 -0.9134 -0.9429
  420TIP3    H222752   6.271   3.978   1.159 -2.3285  1.1267  0.2418
  421TIP3   OH222753   1.682   1.295   2.726  0.0380 -0.3731  0.0858
  421TIP3    H122754   1.608   1.237   2.748  0.4388 -1.3440 -1.0146
  421TIP3    H222755   1.679   1.364   2.793 -0.5788 -1.5565  1.3351
  422TIP3   OH222756   5.727   5.837   4.371 -0.6853 -0.0375  0.4838
  422TIP3    H122757   5.643   5.794   4.387 -0.9261  0.2402 -0.0097
  422TIP3    H222758   5.767   5.845   4.457 -2.4446  2.4676  1.1888
  423TIP3   OH222759   6.582   3.150  10.440  0.4918  0.5047 -0.0937
  423TIP3    H122760   6.678   3.156  10.432  0.4848  0.2537 -0.3908
  423TIP3    H222761   6.562   3.060  10.416  0.2110  0.4591  0.3151
  424TIP3   OH222762   1.034   3.474   3.873 -0.5927  0.0789 -0.2227
  424TIP3    H122763   1.060   3.520   3.793 -4.0574 -0.7407 -2.0146
  424TIP3    H222764   1.007   3.387   3.843 -0.8960 -0.6823  2.0601
  425TIP3   OH222765   0.092   6.407   1.964 -0.2675  0.1424 -0.0311
  425TIP3    H122766   0.042   6.327   1.982  0.9734 -0.9332 -1.1546
  425TIP3    H222767   0.183   6.378   1.964  0.1637  1.4516 -1.0067
  426TIP3   OH222768   5.762   1.234  15.587 -0.1133  0.3448 -0.0494
  426TIP3    H122769   5.789   1.310  15.536 -0.7275  0.9720  0.5474
  426TIP3    H222770   5.841   1.179  15.592 -0.0898  0.1698 -1.8184
  427TIP3   OH222771   7.061   6.275   2.848 -0.5184  0.2307  0.0689
  427TIP3    H122772   7.126   6.206   2.864 -0.0116  0.5385 -0.6591
  427TIP3    H222773   7.078   6.340   2.916 -2.3197 -1.2434  2.1016
  428TIP3   OH222774   3.312   5.965   1.211  0.1561  0.2292  0.3143
  428TIP3    H122775   3.365   6.014   1.274 -1.5204  0.0025  1.9931
  428TIP3    H222776   3.236   5.935   1.261 -0.5745 -1.1786 -1.4943
  429TIP3   OH222777   4.340   3.998   0.629  0.1251  0.9714 -0.1715
  429TIP3    H122778   4.400   4.072   0.630 -0.7363  1.7998 -2.3371
  429TIP3    H222779   4.253   4.038   0.636 -0.2903  0.0414  0.1076
  430TIP3   OH222780   6.774   5.361   3.245 -0.1169 -0.3857 -0.3614
  430TIP3    H122781   6.739   5.377   3.332  0.6050  2.3179 -0.4746
  430TIP3    H222782   6.869   5.358   3.256 -0.0228 -0.1698 -1.0203
  431TIP3   OH222783   1.676   6.171   5.354  0.3823 -0.0312  0.1865
  431TIP3    H122784   1.660   6.246   5.297  0.0141 -0.1051  0.1898
  431TIP3    H222785   1.750   6.126   5.314  2.0543  1.5146  1.3480
  432TIP3   OH222786   3.544   5.718  13.716 -0.5336 -0.1265  0.0598
  432TIP3    H122787   3.489   5.642  13.736 -1.8279  0.8039  0.2054
  432TIP3    H222788   3.549   5.766  13.799 -1.5225  1.0309 -0.5202
  433TIP3   OH222789   3.411   6.465   1.136  0.1129  0.7153 -0.0829
  433TIP3    H122790   3.335   6.444   1.191  1.8916 -1.6286  1.6891
  433TIP3    H222791   3.414   6.395   1.071  1.1027  0.4044  0.2800
  434TIP3   OH222792   0.273   6.578   1.808 -0.4204 -0.0303 -0.0666
  434TIP3    H122793   0.207   6.644   1.788  0.2161  1.0309  1.1584
  434TIP3    H222794   0.229   6.516   1.865 -0.4024  0.6291  0.6816
  435TIP3   OH222795   0.838   0.737  10.637  0.3603 -0.5609  0.2400
  435TIP3    H122796   0.825   0.664  10.697  3.1465 -0.0070  1.6762
  435TIP3    H222797   0.766   0.797  10.657 -0.0093 -1.3614  1.4659
  436TIP3   OH222798   1.068   1.973  14.002  0.3262  0.9032  0.2028
  436TIP3    H122799   1.107   1.986  14.089  0.3778  0.6215  0.2242
  436TIP3    H222800   1.136   2.002  13.941  0.2814  1.1220  0.2588
  437TIP3   OH222801   6.652   2.958  15.631  0.3857 -0.0309 -0.2380
  437TIP3    H122802   6.566   2.981  15.666  0.6099  0.2735  0.1302
  437TIP3    H222803   6.703   3.039  15.636 -0.0811  0.5159 -2.9564
  438TIP3   OH222804   6.043   3.642  10.761  0.2388  0.4196 -0.0952
  438TIP3    H122805   6.046   3.688  10.845 -0.4171 -1.1096  0.7992
  438TIP3    H222806   6.081   3.556  10.778 -2.1953 -0.8737 -0.6859
  439TIP3   OH222807   4.186   5.238  13.469 -0.3992 -0.2243 -0.4912
  439TIP3    H122808   4.127   5.167  13.493 -0.7492  0.8276  2.1352
  439TIP3    H222809   4.274   5.200  13.478 -0.5877 -1.0330 -1.7859
  440TIP3   OH222810   2.041   2.649   2.718 -0.5695  0.9491 -0.1488
  440TIP3    H122811   2.079   2.631   2.632 -2.5688  0.4315 -0.9677
  440TIP3    H222812   2.111   2.695   2.765 -0.5145  4.4662 -3.2078
  441TIP3   OH222813   2.115   3.856   2.609  0.1711 -0.4641 -0.1146
  441TIP3    H122814   2.020   3.867   2.618  0.0319 -1.0316 -0.7686
  441TIP3    H222815   2.146   3.844   2.699 -0.0581  1.9545  0.3413
  442TIP3   OH222816   6.488   3.895  13.362 -0.0491 -0.3849  0.0387
  442TIP3    H122817   6.488   3.843  13.442  0.7666  0.5645  0.6982
  442TIP3    H222818   6.510   3.984  13.391  1.0443 -0.1653 -1.3156
  443TIP3   OH222819   0.421   0.942   0.329  0.1492 -0.7182  0.3852
  443TIP3    H122820   0.406   0.903   0.242  1.1878 -0.5237  0.1021
  443TIP3    H222821   0.515   0.933   0.343  0.1031 -0.0688  1.1737
  444TIP3   OH222822   2.695   3.391  10.127 -0.2705 -0.5183 -0.4812
  444TIP3    H122823   2.703   3.431  10.214 -0.0827 -0.7953 -0.3720
  444TIP3    H222824   2.658   3.461  10.072 -0.7867 -0.4715 -0.0863
  445TIP3   OH222825   3.862   4.204  10.535 -0.5090  0.3302 -0.2337
  445TIP3    H122826   3.902   4.138  10.591 -2.0616 -0.6104 -0.1763
  445TIP3    H222827   3.769   4.200  10.556 -1.0907  0.2227 -2.5851
  446TIP3   OH222828   4.591   1.608  10.963  0.4705  0.4085 -0.9900
  446TIP3    H122829   4.519   1.625  10.903  0.8984  0.8543 -1.3881
  446TIP3    H222830   4.657   1.562  10.910  0.9839  1.0877 -0.9539
  447TIP3   OH222831   6.795   2.232  12.705  0.5611 -0.3333 -0.4123
  447TIP3    H122832   6.795   2.164  12.773 -0.4794 -0.8256 -0.8934
  447TIP3    H222833   6.787   2.314  12.754  1.8492 -0.5229  0.1774
  448TIP3   OH222834   5.065   1.397  11.197 -0.0041  0.7211 -0.3655
  448TIP3    H122835   5.061   1.322  11.138 -0.4455  0.6109 -0.2007
  448TIP3    H222836   5.120   1.369  11.269  1.5835  1.2776 -1.3058
  449TIP3   OH222837   1.112   5.430   3.100  0.0282  0.2389 -0.5867
  449TIP3    H122838   1.120   5.453   3.193 -2.0286 -0.2559 -0.2267
  449TIP3    H222839   1.188   5.374   3.083  0.6992  0.7275  0.6726
  450TIP3   OH222840   6.211   4.320  13.634  0.6049 -0.4683 -0.0625
  450TIP3    H122841   6.284   4.349  13.689  1.3462 -1.0208 -0.7468
  450TIP3    H222842   6.252   4.271  13.563 -0.5091 -1.7099  0.1266
  451TIP3   OH222843   4.192   7.120  13.252  0.1449 -0.3849 -0.6598
  451TIP3    H122844   4.278   7.135  13.213  0.4119  2.2305  0.7147
  451TIP3    H222845   4.134   7.181  13.208 -0.2651  0.2131  0.6522
  452TIP3   OH222846   1.582   3.575   9.647  0.1432 -0.0296 -0.5299
  452TIP3    H122847   1.618   3.542   9.729 -1.1968 -0.2638 -0.0137
  452TIP3    H222848   1.562   3.496   9.596  0.2028  0.0976 -0.7541
  453TIP3   OH222849   4.038   2.999  12.205 -0.6534 -0.0691  0.4917
  453TIP3    H122850   4.108   2.980  12.144  0.0761 -0.2345  1.3549
  453TIP3    H222851   4.063   3.081  12.247 -1.8369  0.7908 -0.3937
  454TIP3   OH222852   6.760   2.447  11.274  0.4127  0.6151 -0.1995
  454TIP3    H122853   6.761   2.539  11.248  1.7376  0.4520 -0.8028
  454TIP3    H222854   6.723   2.447  11.363 -0.5830  1.6000 -0.5959
  455TIP3   OH222855   5.282   4.114  10.679 -0.0057  0.3289 -0.2283
  455TIP3    H122856   5.220   4.046  10.652 -0.4340  0.9602 -0.8804
  455TIP3    H222857   5.231   4.171  10.736  0.3776  0.0652  0.3875
  456TIP3   OH222858   3.348   0.130   3.717  0.1675  0.2098  0.7204
  456TIP3    H122859   3.344   0.037   3.740  0.7820  0.6249  2.6312
  456TIP3    H222860   3.408   0.133   3.642 -2.7677 -1.2908 -1.9377
  457TIP3   OH222861   3.901   3.311  11.583  0.1667 -0.5562  0.2474
  457TIP3    H122862   3.808   3.290  11.575  0.5785 -1.8644 -2.2270
  457TIP3    H222863   3.938   3.237  11.632  0.3575 -1.7119 -1.5617
  458TIP3   OH222864   0.016   2.603   0.231 -0.3409  0.0392  0.0392
  458TIP3    H122865  -0.005   2.537   0.165 -0.9154  0.2785 -0.0219
  458TIP3    H222866  -0.035   2.577   0.308 -1.9807  1.3890 -0.5385
  459TIP3   OH222867   4.721   3.496  10.668  0.1317  0.1868  0.3836
  459TIP3    H122868   4.643   3.522  10.618  0.7860 -0.4143 -1.0346
  459TIP3    H222869   4.697   3.412  10.707 -0.0046  0.0792  0.0783
  460TIP3   OH222870   6.724   2.061  14.348 -0.5702 -1.2851  0.4936
  460TIP3    H122871   6.681   1.998  14.406  0.0996 -0.5865  1.7846
  460TIP3    H222872   6.792   2.101  14.402 -2.8884  2.8150  0.7920
  461TIP3   OH222873   4.836   3.959   1.997  0.5012  0.1621  0.7657
  461TIP3    H122874   4.845   3.864   2.003  0.1979  0.1889  1.9687
  461TIP3    H222875   4.755   3.972   1.947  0.2772 -0.2278  1.0162
  462TIP3   OH222876   1.875   6.937   1.153 -0.0186 -0.2560 -0.4106
  462TIP3    H122877   1.836   7.024   1.149 -0.2020 -0.3277 -0.1800
  462TIP3    H222878   1.923   6.935   1.235  1.4604  0.2386 -1.2167
  463TIP3   OH222879   3.403   1.283  10.324 -0.2393 -0.1238 -0.0678
  463TIP3    H122880   3.414   1.211  10.385  0.5272 -0.4279 -0.5419
  463TIP3    H222881   3.326   1.261  10.273 -0.5370 -0.1556  0.3918
  464TIP3   OH222882   2.000   5.083  10.540 -0.1951  0.3186 -0.2014
  464TIP3    H122883   2.072   5.074  10.602 -0.3093 -1.2335 -0.2328
  464TIP3    H222884   1.931   5.027  10.576 -0.0728 -1.0626 -1.9521
  465TIP3   OH222885   2.182   0.873  14.037  0.1752  0.0448  0.1539
  465TIP3    H122886   2.246   0.923  14.089  0.6477  0.6466 -0.9752
  465TIP3    H222887   2.139   0.939  13.982 -0.4132 -0.5625 -0.1297
  466TIP3   OH222888   0.820   1.410  12.648 -0.1231  0.2980 -0.0649
  466TIP3    H122889   0.898   1.379  12.602 -0.6855 -0.9094 -0.2285
  466TIP3    H222890   0.766   1.332  12.660 -1.2121  1.0764  0.2440
  467TIP3   OH222891   6.137   4.947  11.851 -0.4543  0.3118  0.6680
  467TIP3    H122892   6.141   4.997  11.770  0.7870 -1.5082 -0.4587
  467TIP3    H222893   6.208   4.981  11.904 -2.3969  2.8090  1.8955
  468TIP3   OH222894   6.043   5.275  10.330  0.3028 -0.0136 -0.2973
  468TIP3    H122895   6.029   5.241  10.242 -1.0791 -0.1136 -0.0625
  468TIP3    H222896   5.989   5.354  10.335  0.1185 -0.1830  0.5525
  469TIP3   OH222897   5.042   6.245  12.694 -0.1378  0.4197  0.3904
  469TIP3    H122898   5.124   6.279  12.731  0.5472  0.7434 -1.3192
  469TIP3    H222899   4.994   6.323  12.668 -0.1224  0.1832 -0.3676
  470TIP3   OH222900   5.728   5.166  10.444 -0.0216 -0.1164  0.1053
  470TIP3    H122901   5.788   5.236  10.421  1.4054 -1.3294 -0.0643
  470TIP3    H222902   5.641   5.203  10.433  0.6583  0.9662 -2.0807
  471TIP3   OH222903   1.826   1.703   6.015 -0.1802  0.0029 -0.5331
  471TIP3    H122904   1.809   1.793   5.988  0.4275  0.7312  1.3930
  471TIP3    H222905   1.916   1.686   5.987  0.2135  0.5212  0.3700
  472TIP3   OH222906   4.638   0.227  11.736 -0.0430  0.2717  0.0607
  472TIP3    H122907   4.692   0.219  11.815  0.6637 -2.2234 -0.5943
  472TIP3    H222908   4.575   0.296  11.757  1.1321  0.7720  2.1968
  473TIP3   OH222909   5.551   0.900   3.481 -0.2481  0.0503 -0.0118
  473TIP3    H122910   5.611   0.974   3.486  0.7449 -0.4626 -2.7687
  473TIP3    H222911   5.606   0.823   3.490 -1.1407 -0.4160  1.8424
  474TIP3   OH222912   6.656   4.538  15.010 -0.0151 -0.0650  0.4958
  474TIP3    H122913   6.575   4.514  14.965  2.2720 -3.3168 -2.4367
  474TIP3    H222914   6.642   4.512  15.101 -2.5005  0.3325  0.2929
  475TIP3   OH222915   3.166   3.269  14.962  0.1193 -0.6455  0.2856
  475TIP3    H122916   3.224   3.195  14.942  0.6160 -0.1067 -0.3192
  475TIP3    H222917   3.216   3.346  14.936 -2.2067 -0.2591 -3.8476
  476TIP3   OH222918   4.531   3.173  14.436  0.6488  0.0337 -0.3676
  476TIP3    H122919   4.554   3.236  14.368  0.1645  1.2106  0.5299
  476TIP3    H222920   4.580   3.202  14.513 -0.9134  0.3813  0.5384
  477TIP3   OH222921   4.010   6.322  13.633 -0.1903 -0.1544  0.2803
  477TIP3    H122922   3.929   6.310  13.683  0.2419 -1.4366  0.7182
  477TIP3    H222923   4.066   6.250  13.662  0.7617  0.1763 -0.7053
  478TIP3   OH222924   4.170   1.252  10.167 -0.1080 -0.0074 -0.3537
  478TIP3    H122925   4.132   1.173  10.206  0.1342 -0.3475 -0.8008
  478TIP3    H222926   4.263   1.232  10.158 -0.0009  0.4285 -0.2254
  479TIP3   OH222927   6.689   6.851  11.502 -0.2979  0.4677 -0.3779
  479TIP3    H122928   6.593   6.847  11.506 -0.3400  1.6916  1.3105
  479TIP3    H222929   6.709   6.944  11.513  1.0867  0.1776 -0.2836
  480TIP3   OH222930   5.523   3.955  13.553  0.4671  0.5794  0.1175
  480TIP3    H122931   5.545   3.863  13.544 -1.2245  0.0901  0.6167
  480TIP3    H222932   5.439   3.965  13.508 -0.4905  1.3589  1.9501
  481TIP3   OH222933   2.622   0.498   0.818 -0.1191  0.1738 -0.5616
  481TIP3    H122934   2.535   0.473   0.848 -0.2718  2.0025  0.7440
  481TIP3    H222935   2.607   0.548   0.738 -0.0992 -1.0240 -1.3226
  482TIP3   OH222936   3.553   3.265  15.344  0.6398 -0.0649 -0.0810
  482TIP3    H122937   3.531   3.177  15.374  0.8011  0.3547  1.3593
  482TIP3    H222938   3.533   3.265  15.251 -0.3691 -1.3064  0.1139
  483TIP3   OH222939   3.582   2.544  14.842  0.5787  0.2654 -0.2738
  483TIP3    H122940   3.532   2.473  14.881 -0.6068  1.3074  0.1675
  483TIP3    H222941   3.610   2.598  14.916  0.1502  1.0792 -0.6852
  484TIP3   OH222942   1.981   3.003  13.416 -0.1201 -0.0614  0.3673
  484TIP3    H122943   1.926   2.976  13.490 -0.4172 -0.9520 -0.1583
  484TIP3    H222944   2.038   3.072  13.452 -1.4284  0.7377  0.9720
  485TIP3   OH222945   0.751   6.307  12.607  0.3200  0.2916 -0.4166
  485TIP3    H122946   0.712   6.241  12.550 -1.2489 -1.5747  2.5646
  485TIP3    H222947   0.842   6.279  12.618  0.5053  0.4070 -1.5560
  486TIP3   OH222948   6.841   0.601  10.798  0.2546  0.1021 -0.0452
  486TIP3    H122949   6.891   0.525  10.766  1.2062  0.1983  1.1298
  486TIP3    H222950   6.773   0.563  10.854 -0.1507  0.0451 -0.5719
  487TIP3   OH222951   6.009   6.018   4.864 -0.0619  0.3831 -0.2731
  487TIP3    H122952   6.101   6.015   4.892  0.6505 -0.0348 -2.4628
  487TIP3    H222953   5.959   6.007   4.944  1.8149 -0.1558  0.8789
  488TIP3   OH222954   2.363   2.486   4.378  0.1587  0.0574  0.0522
  488TIP3    H122955   2.428   2.555   4.360 -1.6111  1.1243 -2.8461
  488TIP3    H222956   2.380   2.419   4.311 -0.8471 -0.2929  0.1349
  489TIP3   OH222957   4.864   3.029  10.188 -0.2031 -0.4291  0.0033
  489TIP3    H122958   4.871   2.943  10.146 -0.2570 -1.0885  1.3085
  489TIP3    H222959   4.802   3.016  10.260 -0.0995  0.6721  0.3096
  490TIP3   OH222960   6.668   1.825   0.805 -0.0661  0.7033 -0.1067
  490TIP3    H122961   6.741   1.887   0.809  0.6052 -0.0416 -0.7041
  490TIP3    H222962   6.621   1.838   0.887  0.4340  1.5524  0.0533
  491TIP3   OH222963   5.471   4.686  14.133  0.1059 -0.2567  0.0396
  491TIP3    H122964   5.386   4.645  14.118  0.3886 -0.2654 -1.8206
  491TIP3    H222965   5.531   4.613  14.146 -0.0392 -0.2702  0.6807
  492TIP3   OH222966   5.548   7.130  10.522 -0.1674  0.4876 -0.0200
  492TIP3    H122967   5.504   7.181  10.590  0.3314 -0.1599  0.8061
  492TIP3    H222968   5.525   7.174  10.441  0.6799  2.3574  0.7018
  493TIP3   OH222969   6.390   3.909  12.626  0.1485 -0.5602 -0.1779
  493TIP3    H122970   6.392   3.987  12.682 -1.6453 -1.7211  1.6705
  493TIP3    H222971   6.341   3.937  12.549 -1.6283 -0.1363  1.0358
  494TIP3   OH222972   5.793   2.869  13.011  0.0043 -0.2439  0.3845
  494TIP3    H122973   5.752   2.933  12.953 -0.3452 -0.3155  0.5485
  494TIP3    H222974   5.884   2.867  12.983 -0.5409 -1.7283 -1.4740
  495TIP3   OH222975   1.742   0.275  13.993 -0.3520 -0.4202 -0.3666
  495TIP3    H122976   1.817   0.248  14.046  0.6749  0.5878 -1.2628
  495TIP3    H222977   1.727   0.366  14.016 -0.2199 -0.1159 -1.4213
  496TIP3   OH222978   3.128   5.275  12.277 -0.3983  0.2426 -0.1185
  496TIP3    H122979   3.167   5.362  12.287  0.2212 -0.0685  0.2748
  496TIP3    H222980   3.034   5.289  12.292 -0.2973  0.8289  0.0224
  497TIP3   OH222981   5.841   4.626  10.272  0.4038  0.0021  0.0856
  497TIP3    H122982   5.843   4.548  10.216  0.1909 -0.3969  0.6193
  497TIP3    H222983   5.929   4.663  10.266  0.2879  0.1516 -0.7697
  498TIP3   OH222984   4.864   3.783  15.288  0.1332  0.4119 -0.2448
  498TIP3    H122985   4.769   3.771  15.296  0.2232  0.3104  0.7084
  498TIP3    H222986   4.895   3.700  15.252 -0.1606  0.5442 -0.8294
  499TIP3   OH222987   1.317   3.543  10.594  0.5972 -0.1941 -0.0973
  499TIP3    H122988   1.223   3.561  10.602  1.3588  4.7371  1.0758
  499TIP3    H222989   1.336   3.556  10.501  0.2896 -0.1589 -0.1564
  500TIP3   OH222990   3.577   1.389  13.342  0.5123  0.0248  0.0841
  500TIP3    H122991   3.610   1.478  13.333  1.3946 -0.2840  0.1610
  500TIP3    H222992   3.647   1.342  13.388  0.5389 -0.9783 -0.9304
  501TIP3   OH222993   1.253   3.994   3.205  0.1365 -0.3586 -0.5583
  501TIP3    H122994   1.323   3.930   3.218  0.5636  0.1042 -0.5105
  501TIP3    H222995   1.234   3.991   3.112  0.4163 -0.2951 -0.6198
  502TIP3   OH222996   5.885   5.260  11.028  0.0452 -0.2081 -0.1351
  502TIP3    H122997   5.834   5.335  10.995  1.0757  0.4623 -0.2528
  502TIP3    H222998   5.819   5.196  11.053 -1.0330  1.7483  2.4933
  503TIP3   OH222999   6.500   0.414  14.277  0.2783 -0.5852 -0.2772
  503TIP3    H123000   6.580   0.361  14.284  0.1490 -0.7727 -0.1952
  503TIP3    H223001   6.438   0.369  14.334  0.0795 -0.5039 -0.4323
  504TIP3   OH223002   3.862   1.613  12.643 -0.1833 -0.0319  0.0833
  504TIP3    H123003   3.862   1.562  12.724  1.3856 -1.8874 -0.9898
  504TIP3    H223004   3.949   1.653  12.640  0.4697 -1.4404 -1.4681
  505TIP3   OH223005   5.449   6.242   2.052 -0.3007 -0.0474  0.1867
  505TIP3    H123006   5.445   6.293   1.971 -0.1920 -0.9835 -0.4183
  505TIP3    H223007   5.359   6.241   2.085 -0.3408  0.3505  0.0905
  506TIP3   OH223008   1.664   1.484   9.819  0.0294 -0.5182 -0.0818
  506TIP3    H123009   1.742   1.449   9.861 -0.8625 -1.0663  1.1933
  506TIP3    H223010   1.684   1.576   9.803  1.6983 -1.0991 -1.7238
  507TIP3   OH223011   0.553   0.409  15.126 -0.0769  0.5577 -0.3566
  507TIP3    H123012   0.474   0.386  15.174  0.0912  1.5765  0.4455
  507TIP3    H223013   0.573   0.498  15.154  1.0115  0.5385 -1.0124
  508TIP3   OH223014   1.251   4.937  14.857  0.5193  0.3829 -0.0868
  508TIP3    H123015   1.207   4.913  14.938  1.1097  3.4586  1.2630
  508TIP3    H223016   1.312   4.864  14.840 -1.6181 -1.6639  0.5670
  509TIP3   OH223017   3.085   4.967   4.624  0.2545 -0.1939  0.2443
  509TIP3    H123018   3.037   4.959   4.706 -0.8199 -0.0430 -0.3477
  509TIP3    H223019   3.052   4.895   4.570  0.0260  0.4485 -0.4909
  510TIP3   OH223020   2.364   5.405  13.667 -0.4623  0.2427 -0.4493
  510TIP3    H123021   2.446   5.439  13.703  0.4402 -2.7314  0.6304
  510TIP3    H223022   2.298   5.470  13.690  1.0268  1.0495  1.8347
  511TIP3   OH223023   4.018   2.277  10.899 -0.1436  0.3399 -0.6949
  511TIP3    H123024   4.044   2.276  10.991 -1.2293  0.4860 -0.3742
  511TIP3    H223025   4.051   2.194  10.863  2.6843  1.4707 -0.8916
  512TIP3   OH223026   1.267   6.632  10.607 -0.1549  0.3567 -0.4003
  512TIP3    H123027   1.209   6.557  10.617  0.3829  0.1172  1.1487
  512TIP3    H223028   1.355   6.595  10.603  0.0795  0.8666 -0.1092
  513TIP3   OH223029   5.531   2.456  11.825 -0.2397 -0.6021  0.2250
  513TIP3    H123030   5.510   2.503  11.906  1.9610  0.5815  0.1656
  513TIP3    H223031   5.581   2.380  11.855 -3.5133 -2.9376  0.2954
  514TIP3   OH223032   6.525   2.016   1.776 -0.0818 -0.1095  0.5496
  514TIP3    H123033   6.472   2.071   1.833  1.1108  0.0532  1.5374
  514TIP3    H223034   6.563   2.078   1.713 -0.7431 -0.1744  0.0772
  515TIP3   OH223035   2.188   4.454   1.026  0.5516  0.0514  0.0701
  515TIP3    H123036   2.276   4.484   1.047  0.1594  2.0846 -0.9704
  515TIP3    H223037   2.130   4.522   1.061 -0.3376  1.0327 -2.9941
  516TIP3   OH223038   3.594   4.757   2.803 -0.0092 -0.5479  0.6722
  516TIP3    H123039   3.594   4.707   2.721 -0.3587  0.6520 -0.0833
  516TIP3    H223040   3.683   4.791   2.810 -0.4095  0.7669 -0.1396
  517TIP3   OH223041   3.933   2.026  11.055 -0.2705  0.4142 -0.1439
  517TIP3    H123042   3.969   2.015  10.967  0.0724  0.3187  0.0088
  517TIP3    H223043   3.997   2.081  11.100  0.6435 -1.2800  0.7108
  518TIP3   OH223044   2.618   4.553   0.213 -0.0191  0.3308 -0.2014
  518TIP3    H123045   2.665   4.608   0.277 -0.2646  1.9466 -1.3473
  518TIP3    H223046   2.610   4.608   0.136 -1.6770 -0.7893 -0.8833
  519TIP3   OH223047   6.243   3.782  14.733  0.0839  0.1160  0.4109
  519TIP3    H123048   6.277   3.872  14.735  0.4150  0.0033 -0.0193
  519TIP3    H223049   6.206   3.772  14.646  0.7991 -0.4292  0.1535
  520TIP3   OH223050   3.994   1.611  14.901 -0.3202 -0.1197  0.8470
  520TIP3    H123051   3.997   1.578  14.811  1.4782 -0.8045  1.1181
  520TIP3    H223052   4.050   1.689  14.899 -0.1579 -0.2204  1.4019
  521TIP3   OH223053   0.198   4.354  10.417 -0.2879  0.0091 -0.2446
  521TIP3    H123054   0.148   4.293  10.363 -2.3819  0.5710  0.9222
  521TIP3    H223055   0.153   4.438  10.404  1.2881  0.8796 -0.2593
  522TIP3   OH223056   6.619   0.768   1.351  0.3364  0.2736 -0.1837
  522TIP3    H123057   6.563   0.697   1.382  1.8640 -1.4154 -1.1431
  522TIP3    H223058   6.605   0.839   1.414 -0.8215 -1.0576  1.1175
  523TIP3   OH223059   6.254   1.859  14.221  0.4009  0.2542  0.3351
  523TIP3    H123060   6.169   1.891  14.251  0.2993  1.7761 -1.3994
  523TIP3    H223061   6.311   1.866  14.297 -0.9707 -0.7468  1.5160
  524TIP3   OH223062   1.522   1.503  11.998  0.4168  0.2030  0.8866
  524TIP3    H123063   1.592   1.437  11.997  0.1468 -0.1120  1.8257
  524TIP3    H223064   1.540   1.558  11.922 -0.3512 -1.9926 -0.9937
  525TIP3   OH223065   5.605   0.449   3.292  0.0469  0.0441  0.3032
  525TIP3    H123066   5.628   0.432   3.201  0.3078  0.9797  0.1813
  525TIP3    H223067   5.510   0.446   3.295  0.0879 -1.6660  0.3534
  526TIP3   OH223068   0.973   0.328  13.301 -0.2387 -0.4181  0.0098
  526TIP3    H123069   1.041   0.385  13.337  1.0753 -0.8256 -1.6671
  526TIP3    H223070   1.021   0.259  13.256 -1.7786 -1.2430 -0.4446
  527TIP3   OH223071   5.606   0.403  10.037  0.3379 -0.1757 -0.3239
  527TIP3    H123072   5.547   0.434   9.969 -0.9200 -3.0595 -0.7089
  527TIP3    H223073   5.604   0.472  10.104 -0.5286  1.4676 -1.9462
  528TIP3   OH223074   4.645   1.889   0.824  0.0129 -0.0750  0.9151
  528TIP3    H123075   4.676   1.854   0.741 -1.8877 -0.3583  0.2778
  528TIP3    H223076   4.640   1.984   0.809 -0.3997 -0.1328  0.6672
  529TIP3   OH223077   7.042   5.144   3.098  0.2346  0.3888 -0.0637
  529TIP3    H123078   6.952   5.113   3.087  0.3849  0.4896 -1.7014
  529TIP3    H223079   7.078   5.148   3.010  1.9004  0.2389  0.5612
  530TIP3   OH223080   5.081   1.659   3.756  0.1015 -0.1275  0.8813
  530TIP3    H123081   4.996   1.617   3.771 -0.1112  0.6156  1.9328
  530TIP3    H223082   5.144   1.598   3.793 -0.0179 -0.4910  0.4829
  531TIP3   OH223083   1.429   2.790  11.783 -0.1801  0.4390 -0.0725
  531TIP3    H123084   1.440   2.799  11.878  0.2641 -1.0941  0.0488
  531TIP3    H223085   1.445   2.878  11.749  1.1339  0.7173  1.1490
  532TIP3   OH223086   4.941   2.158  12.708  0.0216  0.0811  0.4118
  532TIP3    H123087   4.944   2.222  12.779 -1.0349  1.9889 -1.1507
  532TIP3    H223088   4.862   2.181  12.659 -0.7530 -2.8365  0.0735
  533TIP3   OH223089   4.388   5.714   2.576  0.2167  0.5218  0.0759
  533TIP3    H123090   4.479   5.738   2.557 -0.1898  2.0742  0.0117
  533TIP3    H223091   4.350   5.792   2.616 -1.4179  0.3261 -0.9822
  534TIP3   OH223092   0.843   3.105  11.627 -0.3473  0.1001 -0.3736
  534TIP3    H123093   0.865   3.119  11.719 -0.3085 -0.4993 -0.2926
  534TIP3    H223094   0.751   3.131  11.620 -0.1129  0.9863 -0.3586
  535TIP3   OH223095   2.516   0.498  13.119 -0.3517  0.2884  0.2216
  535TIP3    H123096   2.471   0.570  13.073 -1.6378 -0.3960  0.3489
  535TIP3    H223097   2.448   0.431  13.128  1.0543 -1.3395 -0.7431
  536TIP3   OH223098   7.117   1.664  13.507 -0.2946 -0.0233  0.3362
  536TIP3    H123099   7.141   1.577  13.477 -1.5671  0.2590 -1.6758
  536TIP3    H223100   7.200   1.706  13.530  0.4510 -1.3095  0.0570
  537TIP3   OH223101   2.441   4.206  10.362  0.4138 -0.0547 -0.3716
  537TIP3    H123102   2.472   4.293  10.386  1.0138 -0.5820  0.8446
  537TIP3    H223103   2.429   4.210  10.267  1.7285  0.9389 -0.5202
  538TIP3   OH223104   4.962   1.214   1.102  0.3433  0.2202 -0.5016
  538TIP3    H123105   5.026   1.280   1.127  1.7778 -1.0449 -0.6641
  538TIP3    H223106   5.001   1.131   1.131 -1.9797 -0.4667  0.8691
  539TIP3   OH223107   4.104   4.365  11.523  0.1209  0.3975  0.5632
  539TIP3    H123108   4.124   4.304  11.594 -0.5432 -1.8489 -1.0256
  539TIP3    H223109   4.024   4.409  11.550 -1.3056 -1.9228  0.4552
  540TIP3   OH223110   5.717   3.636  12.290 -0.2408 -0.0107  0.2012
  540TIP3    H123111   5.634   3.661  12.250 -0.6559  0.2534  1.1841
  540TIP3    H223112   5.778   3.704  12.263 -0.4016 -0.0698 -0.3229
  541TIP3   OH223113   0.986   6.603   9.197 -0.6584 -0.1970 -0.8098
  541TIP3    H123114   1.041   6.627   9.271 -0.4781 -0.3931 -0.8773
  541TIP3    H223115   0.900   6.642   9.216 -0.8140 -0.8346 -0.1557
  542TIP3   OH223116   0.244   5.704  15.324  0.0553  0.2945 -0.2387
  542TIP3    H123117   0.276   5.747  15.403  3.6412 -0.1347 -1.2451
  542TIP3    H223118   0.223   5.775  15.264  2.2737  0.7534 -0.5701
  543TIP3   OH223119   1.276   5.944  11.707  0.0937 -0.0922 -0.2105
  543TIP3    H123120   1.254   5.939  11.614  0.7131  1.2015 -0.4376
  543TIP3    H223121   1.369   5.923  11.711 -0.1883 -1.3514  0.2764
  544TIP3   OH223122   1.832   1.872   4.462 -0.1361  0.4992 -0.1405
  544TIP3    H123123   1.891   1.871   4.538  0.2179 -0.6038 -0.4192
  544TIP3    H223124   1.890   1.883   4.387 -0.5483  2.3939 -0.2298
  545TIP3   OH223125   0.564   4.662  12.750 -0.2299 -0.2670 -0.6377
  545TIP3    H123126   0.655   4.660  12.779 -0.8137 -0.1443  1.3683
  545TIP3    H223127   0.555   4.587  12.692  1.1310 -0.2823 -0.8587
  546TIP3   OH223128   2.192   2.385   9.429 -0.5069  0.3126 -0.0486
  546TIP3    H123129   2.181   2.371   9.523 -0.7903 -0.3302 -0.1691
  546TIP3    H223130   2.144   2.465   9.410 -0.2583  0.5700  0.3896
  547TIP3   OH223131   2.566   6.840  11.608 -0.0975 -0.0341  0.0164
  547TIP3    H123132   2.557   6.927  11.569  1.8289  1.9253  3.4592
  547TIP3    H223133   2.624   6.793  11.548 -1.4813  0.7885 -2.1247
  548TIP3   OH223134   5.297   3.758  11.470 -0.2323 -0.0928 -0.0142
  548TIP3    H123135   5.371   3.797  11.424  1.8554 -2.2921  1.2401
  548TIP3    H223136   5.288   3.811  11.549  0.7693 -0.4246  0.3476
  549TIP3   OH223137   4.391   0.903  11.164 -0.1795 -0.1065 -0.4068
  549TIP3    H123138   4.451   0.886  11.236 -1.0668  1.6524  0.7985
  549TIP3    H223139   4.437   0.870  11.086  1.5396 -0.4491  0.7097
  550TIP3   OH223140   1.157   5.529  13.780 -0.0341  0.1922 -0.6079
  550TIP3    H123141   1.147   5.548  13.686 -0.3687 -3.0811 -1.3777
  550TIP3    H223142   1.180   5.436  13.782  0.5313  0.3130  2.5789
  551TIP3   OH223143   4.616   3.189   3.277 -0.0566 -0.6242  0.1577
  551TIP3    H123144   4.562   3.246   3.331  0.1759 -1.1728  1.0018
  551TIP3    H223145   4.640   3.242   3.201 -1.6908 -0.3358 -0.2063
  552TIP3   OH223146   0.184   1.195   2.945 -0.3007 -0.2960 -0.5155
  552TIP3    H123147   0.219   1.263   3.003  0.4191 -2.6692  2.0766
  552TIP3    H223148   0.258   1.172   2.888 -0.6835  1.3277 -1.7098
  553TIP3   OH223149   1.396   2.707  10.350  0.4277  0.0704  0.3333
  553TIP3    H123150   1.344   2.786  10.364 -0.2965 -0.2378 -0.5563
  553TIP3    H223151   1.378   2.681  10.260  0.3315 -1.3367  0.7257
  554TIP3   OH223152   1.643   0.105  13.422 -0.0604 -0.2406  0.3959
  554TIP3    H123153   1.734   0.088  13.446  0.3783 -0.4243 -1.2563
  554TIP3    H223154   1.641   0.095  13.327 -1.7468  0.0845  0.3622
  555TIP3   OH223155   2.936   6.596  12.273  0.1525  0.9087 -0.1882
  555TIP3    H123156   2.974   6.510  12.289 -0.8819  0.7206  1.5796
  555TIP3    H223157   2.843   6.579  12.258  0.3087  1.5540 -2.1613
  556TIP3   OH223158   3.433   4.699  12.056  0.9158  0.4716 -0.2889
  556TIP3    H123159   3.454   4.738  11.971  4.0053 -0.0359  0.1250
  556TIP3    H223160   3.472   4.759  12.120  0.6296 -0.3025  0.6386
  557TIP3   OH223161   1.056   5.625   9.797 -0.3077 -0.2180 -0.7766
  557TIP3    H123162   1.026   5.535   9.811  0.8728 -0.5346 -0.0120
  557TIP3    H223163   1.071   5.658   9.886  2.2093 -0.3643 -1.0628
  558TIP3   OH223164   5.842   0.318   4.572 -0.4081 -0.7335 -0.1067
  558TIP3    H123165   5.841   0.311   4.667 -1.2065  3.0099  0.3325
  558TIP3    H223166   5.750   0.324   4.547 -0.1663  0.6105 -0.7900
  559TIP3   OH223167   2.562   0.603  11.659  0.6346 -0.3320  0.5567
  559TIP3    H123168   2.654   0.617  11.636  0.4908  0.1707  0.2637
  559TIP3    H223169   2.524   0.562  11.582  0.4321  0.2159  0.3593
  560TIP3   OH223170   0.120   1.743   1.883 -0.3378  0.3139 -0.0207
  560TIP3    H123171   0.215   1.756   1.880  0.4656 -3.0827  3.2798
  560TIP3    H223172   0.094   1.774   1.969 -2.5644  2.2441 -1.2806
  561TIP3   OH223173   1.296   4.714  11.786  0.3609  0.5609  0.0704
  561TIP3    H123174   1.372   4.714  11.728  1.2856  1.1035  1.2587
  561TIP3    H223175   1.222   4.727  11.727  1.1992  0.2675 -1.0808
  562TIP3   OH223176   6.046   0.000   3.961  0.2313  0.4532  0.7212
  562TIP3    H123177   6.081   0.045   3.884 -0.6757 -0.8270 -0.4786
  562TIP3    H223178   6.082  -0.088   3.956 -1.2357 -0.1735  0.7669
  563TIP3   OH223179   3.790   0.671  13.501  0.2066  0.2929  0.1277
  563TIP3    H123180   3.877   0.638  13.522 -0.7353 -1.6479  1.3003
  563TIP3    H223181   3.767   0.629  13.418  0.0858  0.2207  0.1979
  564TIP3   OH223182   0.358   1.778   9.533 -0.2753  0.0490 -0.2199
  564TIP3    H123183   0.429   1.841   9.532  0.7272 -1.0461 -0.7061
  564TIP3    H223184   0.388   1.708   9.591 -2.6775  1.3895  2.8970
  565TIP3   OH223185   1.432   0.690  15.127  0.8734 -0.3170 -0.4787
  565TIP3    H123186   1.426   0.681  15.222 -1.3310 -2.3606 -0.7389
  565TIP3    H223187   1.342   0.689  15.096  1.5176  0.7260 -2.6122
  566TIP3   OH223188   4.643   0.039  14.812 -0.3394 -0.1503  0.2901
  566TIP3    H123189   4.647  -0.055  14.827 -1.6795 -0.1874  0.4723
  566TIP3    H223190   4.553   0.064  14.831 -0.2647  1.0125 -0.7247
  567TIP3   OH223191   5.490   4.764  11.663 -0.2493 -0.1042  0.1409
  567TIP3    H123192   5.464   4.677  11.695 -2.7191 -0.0731 -1.5390
  567TIP3    H223193   5.548   4.798  11.731 -2.8043 -1.2256  3.0976
  568TIP3   OH223194   2.197   6.204  11.610 -0.0095 -0.1511  0.2495
  568TIP3    H123195   2.199   6.274  11.545 -0.4522  0.0274  0.4265
  568TIP3    H223196   2.129   6.230  11.672 -0.7637 -1.1332 -0.1296
  569TIP3   OH223197   0.532   5.374  11.470 -0.1897 -0.6459 -0.1845
  569TIP3    H123198   0.440   5.365  11.445 -0.2459 -0.4242 -0.0631
  569TIP3    H223199   0.529   5.418  11.555  0.0415 -0.2577 -0.3736
  570TIP3   OH223200   4.466   2.271  15.742  0.1463 -1.0569 -0.3006
  570TIP3    H123201   4.388   2.269  15.687 -1.2412  0.2606  1.4903
  570TIP3    H223202   4.437   2.239  15.827  1.4535 -0.1969  0.5244
  571TIP3   OH223203   2.419   3.373   2.573 -0.0060  0.4344 -0.3724
  571TIP3    H123204   2.458   3.286   2.563 -2.3034 -0.7642  0.2477
  571TIP3    H223205   2.416   3.387   2.668 -1.5509  0.2137 -0.3636
  572TIP3   OH223206   4.752   0.808   3.056 -0.0152  0.2725  0.3385
  572TIP3    H123207   4.678   0.823   3.115 -1.8283  0.2312 -1.7602
  572TIP3    H223208   4.807   0.885   3.066 -1.3054  1.1853  0.6661
  573TIP3   OH223209   5.562   2.655  13.681 -0.8457 -0.3011  0.6208
  573TIP3    H123210   5.623   2.707  13.733 -0.6512 -1.5139  1.6792
  573TIP3    H223211   5.536   2.712  13.609  0.4136  0.7443  0.9585
  574TIP3   OH223212   0.561   4.402  10.619  0.2863  0.2610  0.1512
  574TIP3    H123213   0.529   4.398  10.709  0.3721  0.1015  0.1737
  574TIP3    H223214   0.540   4.491  10.591  0.2481  0.3070  0.3244
  575TIP3   OH223215   5.227   4.426  11.245 -0.0681  0.1891  0.0113
  575TIP3    H123216   5.152   4.389  11.291 -1.6864  1.3693 -1.5104
  575TIP3    H223217   5.272   4.350  11.208 -0.6199 -0.5438  0.8200
  576TIP3   OH223218   6.890   2.295  15.615  0.3601 -0.3098  0.6702
  576TIP3    H123219   6.885   2.372  15.559 -1.0654 -1.4757 -0.8941
  576TIP3    H223220   6.979   2.297  15.650  2.0157 -0.4626 -3.1027
  577TIP3   OH223221   3.910   4.420  13.876 -0.3780 -0.1439  0.0174
  577TIP3    H123222   3.959   4.482  13.823 -0.6889  0.5554  0.5198
  577TIP3    H223223   3.818   4.436  13.854 -0.4338 -0.7811 -0.2229
  578TIP3   OH223224   6.439   0.939  10.284 -0.4038 -0.3028  0.0966
  578TIP3    H123225   6.436   0.894  10.369  0.7132 -2.8433 -1.0963
  578TIP3    H223226   6.490   1.018  10.301 -3.0209  1.0394  2.4480
  579TIP3   OH223227   6.830   1.522  14.398 -0.2995  0.1291  0.5865
  579TIP3    H123228   6.773   1.526  14.321 -1.0249  1.2733  1.1504
  579TIP3    H223229   6.793   1.453  14.452 -0.1476 -0.2677  0.1900
  580TIP3   OH223230   2.096   2.234  12.503 -0.0730  0.3537 -0.1095
  580TIP3    H123231   2.076   2.156  12.554 -0.4241 -0.0613 -0.8673
  580TIP3    H223232   2.188   2.225  12.479 -0.5432 -0.7157 -1.6642
  581TIP3   OH223233   0.330   5.558  13.148  0.1840  0.0138  0.0082
  581TIP3    H123234   0.290   5.642  13.124  0.2621 -0.5378 -2.2333
  581TIP3    H223235   0.423   5.577  13.155  0.6859 -0.4126 -3.7222
  582TIP3   OH223236   1.468   1.354   0.070 -0.1459 -0.2102  0.0824
  582TIP3    H123237   1.559   1.382   0.060 -0.9324  2.1073 -1.3768
  582TIP3    H223238   1.438   1.335  -0.019 -0.4689 -3.4832  0.7400
  583TIP3   OH223239   5.165   3.920  10.001 -0.1921 -0.6342  0.4498
  583TIP3    H123240   5.216   3.856   9.951  0.2030  0.0362 -0.0335
  583TIP3    H223241   5.183   4.004   9.958 -2.7207 -0.5169 -0.5318
  584TIP3   OH223242   0.405   7.156  10.272  0.3522 -0.9370 -0.5102
  584TIP3    H123243   0.486   7.192  10.307 -0.0251 -0.4505 -0.1306
  584TIP3    H223244   0.364   7.111  10.346 -0.3455 -0.0786 -0.3550
  585TIP3   OH223245   1.192   1.228  14.057  0.6875  0.3964 -0.1125
  585TIP3    H123246   1.251   1.154  14.072 -0.1194 -0.5911 -1.6167
  585TIP3    H223247   1.124   1.194  13.999 -0.6736  1.8527  0.5445
  586TIP3   OH223248   1.899   1.754  11.817 -0.4604 -0.0293  0.3733
  586TIP3    H123249   1.837   1.810  11.864 -0.1918 -0.4660  1.2757
  586TIP3    H223250   1.966   1.733  11.883  1.4701  1.6112 -0.9262
  587TIP3   OH223251   1.792   1.492   0.504 -0.6139 -0.1540 -0.1089
  587TIP3    H123252   1.885   1.495   0.526 -0.1260 -0.2115 -1.9241
  587TIP3    H223253   1.782   1.410   0.455 -1.2813  0.5680 -1.2268
  588TIP3   OH223254   4.848   1.962  11.955  0.2588 -0.4186  0.2841
  588TIP3    H123255   4.826   1.945  12.046 -0.2057 -1.0761  0.0564
  588TIP3    H223256   4.805   1.892  11.906 -1.2812  1.1094 -0.6556
  589TIP3   OH223257   6.192   3.604  13.404 -0.6625 -0.1002 -1.1642
  589TIP3    H123258   6.131   3.556  13.349  0.6358  1.1761 -3.9159
  589TIP3    H223259   6.225   3.675  13.348 -0.1707  2.1272  1.6723
  590TIP3   OH223260   2.732   5.358  14.516 -0.9390 -0.5382 -0.2263
  590TIP3    H123261   2.656   5.402  14.554 -0.1471  0.3141  0.4034
  590TIP3    H223262   2.747   5.403  14.433 -0.3778  0.1209  0.2265
  591TIP3   OH223263   2.506   0.054  12.910 -0.0873  0.1565  0.3403
  591TIP3    H123264   2.522  -0.008  12.982 -0.1972 -0.3949 -0.0969
  591TIP3    H223265   2.593   0.075  12.877 -0.0833 -0.5359 -0.1313
  592TIP3   OH223266   3.241   7.029  14.013  0.7557 -0.4538  0.4288
  592TIP3    H123267   3.220   6.987  14.097  1.8197 -0.2504  0.8107
  592TIP3    H223268   3.239   6.957  13.950  0.3124 -0.6758  0.6915
  593TIP3   OH223269   3.535   6.338  11.001  0.2125 -0.0097  0.0336
  593TIP3    H123270   3.597   6.275  11.037 -0.1876  0.0387  0.8261
  593TIP3    H223271   3.450   6.293  11.006 -0.2096  0.8816  1.3803
  594TIP3   OH223272   2.041   4.708  12.317 -0.3529 -0.7930  0.3367
  594TIP3    H123273   2.122   4.752  12.344  1.0207 -3.4111  0.8339
  594TIP3    H223274   2.038   4.719  12.222  0.2816 -0.1688  0.3859
  595TIP3   OH223275   6.067   6.622  13.251  0.3436 -0.1982 -0.0856
  595TIP3    H123276   6.041   6.644  13.162 -0.4449 -0.4531  0.0690
  595TIP3    H223277   6.156   6.587  13.242 -0.0659 -1.0924 -0.9062
  596TIP3   OH223278   6.488   5.491   0.884  0.3407 -0.5865 -0.8617
  596TIP3    H123279   6.471   5.480   0.790  0.3693 -0.6410 -0.8608
  596TIP3    H223280   6.577   5.458   0.896 -0.2985 -2.3163 -0.5098
  597TIP3   OH223281   6.795   4.421  14.814  0.1792  0.9186 -0.1529
  597TIP3    H123282   6.741   4.481  14.866 -1.8875 -2.1583  1.5466
  597TIP3    H223283   6.836   4.364  14.878 -3.0745 -3.5545 -1.5269
  598TIP3   OH223284   0.026   4.751  12.860  0.5827  0.2967  0.4767
  598TIP3    H123285   0.056   4.764  12.770 -0.1078  1.5289  0.4101
  598TIP3    H223286   0.002   4.658  12.864 -2.0106  0.8042 -1.4431
  599TIP3   OH223287   4.361   4.186  14.781 -0.8616  0.2626  0.0868
  599TIP3    H123288   4.271   4.165  14.758 -1.0806  0.6309  0.5817
  599TIP3    H223289   4.354   4.233  14.865 -0.5737  4.0760 -1.8024
  600TIP3   OH223290   1.553   3.092  12.285  0.6107 -0.1692 -0.0707
  600TIP3    H123291   1.490   3.154  12.320  0.9986 -1.1437  2.6082
  600TIP3    H223292   1.635   3.140  12.282  0.8818 -0.4376  1.8600
  601TIP3   OH223293   6.153   4.972   5.672  0.0763  0.0153 -0.3634
  601TIP3    H123294   6.171   4.982   5.766  0.2103  0.6759 -0.4577
  601TIP3    H223295   6.152   4.877   5.659 -2.6816 -0.1987  0.8272
  602TIP3   OH223296   6.693   4.107  14.499 -0.3800  0.0027 -0.3681
  602TIP3    H123297   6.651   4.024  14.520 -2.2973  1.3813  1.7160
  602TIP3    H223298   6.632   4.151  14.439  0.1455  0.3113 -0.6886
  603TIP3   OH223299   5.559   3.379   0.449  0.4150  0.5150  0.0799
  603TIP3    H123300   5.585   3.287   0.451 -0.0122  0.3748 -0.5024
  603TIP3    H223301   5.595   3.412   0.367 -1.7183  0.1562 -1.0734
  604TIP3   OH223302   6.618   3.026  13.339  0.1337 -0.0988 -0.5520
  604TIP3    H123303   6.581   2.952  13.387  2.8709 -2.4800 -1.7805
  604TIP3    H223304   6.639   2.990  13.253 -0.3823  2.7727 -2.0080
  605TIP3   OH223305   2.847   1.254   2.167 -0.3715 -0.1011  0.0804
  605TIP3    H123306   2.789   1.288   2.235  0.6441 -0.2343  1.0389
  605TIP3    H223307   2.802   1.273   2.085 -2.3849 -1.3852  0.8376
  606TIP3   OH223308   3.598   0.650  11.762 -0.2093  0.5885  0.1345
  606TIP3    H123309   3.600   0.606  11.677 -0.0396  0.4480  0.2100
  606TIP3    H223310   3.667   0.607  11.812  0.0100  0.9940  0.1834
  607TIP3   OH223311   6.153   2.642  12.087 -0.0497 -0.0680  0.1281
  607TIP3    H123312   6.200   2.590  12.152  0.8276 -1.5919 -1.6332
  607TIP3    H223313   6.199   2.726  12.086 -0.1131  0.0082  1.4818
  608TIP3   OH223314   4.322   4.401  15.536 -0.4569 -0.0575 -0.0699
  608TIP3    H123315   4.295   4.435  15.450 -0.6424  0.3923  0.1633
  608TIP3    H223316   4.241   4.371  15.576 -0.0804 -2.6292 -1.0438
  609TIP3   OH223317   3.293   7.067  11.186  0.3846  0.0237 -0.9266
  609TIP3    H123318   3.350   7.131  11.230 -1.4704  1.4720 -0.5240
  609TIP3    H223319   3.314   6.984  11.229 -0.8017  1.2267  2.3355
  610TIP3   OH223320   4.042   4.251  11.917  0.2207 -0.2722  0.0410
  610TIP3    H123321   4.120   4.240  11.863  0.8345  0.9473  0.6251
  610TIP3    H223322   4.071   4.310  11.988 -0.9338 -0.6849  0.8801
  611TIP3   OH223323   5.210   3.525  13.357  0.0051  0.3480  0.2626
  611TIP3    H123324   5.160   3.456  13.400  1.8493 -0.9922  0.3665
  611TIP3    H223325   5.260   3.566  13.428 -0.3604  1.1710  0.0555
  612TIP3   OH223326   4.533   3.273  11.836  0.1830 -0.7628  0.0445
  612TIP3    H123327   4.564   3.247  11.749 -1.8359  0.3637 -1.0853
  612TIP3    H223328   4.558   3.366  11.843 -1.0872 -0.3913 -0.0690
  613TIP3   OH223329   3.941   4.982   1.445  0.3002  0.0546  0.9384
  613TIP3    H123330   3.877   4.911   1.454 -0.8499  0.4353 -2.6272
  613TIP3    H223331   3.940   5.026   1.530 -0.5630 -2.8264  2.5525
  614TIP3   OH223332   4.117   3.640  11.666  0.0712 -0.3107  0.2812
  614TIP3    H123333   4.124   3.569  11.730 -0.8802 -1.4018 -0.7680
  614TIP3    H223334   4.197   3.633  11.614  0.8032  0.5210  1.2595
  615TIP3   OH223335   6.843   1.452  14.865 -0.1423  0.1215 -0.4580
  615TIP3    H123336   6.900   1.525  14.889 -0.9342  0.8004 -0.5899
  615TIP3    H223337   6.903   1.382  14.839  0.7484 -0.2560  2.2768
  616TIP3   OH223338   0.975   6.773  13.894 -0.4117  0.2287  0.0596
  616TIP3    H123339   0.903   6.789  13.833 -1.1589 -2.0148  0.2499
  616TIP3    H223340   1.038   6.721  13.844  0.1833  0.5561  0.4593
  617TIP3   OH223341   0.429   2.420  15.211 -0.0528 -0.2235 -0.0666
  617TIP3    H123342   0.409   2.505  15.172  0.2138  0.5650  1.4161
  617TIP3    H223343   0.392   2.356  15.151 -0.7317  0.9629 -0.9502
  618TIP3   OH223344   5.982   3.432  12.676 -0.0333  0.0028  0.0485
  618TIP3    H123345   6.002   3.367  12.609  0.4594 -0.2972  0.4809
  618TIP3    H223346   5.994   3.517  12.632  0.0405 -0.1924 -0.3090
  619TIP3   OH223347   3.160   2.999  13.819 -0.1491  0.4722  0.3864
  619TIP3    H123348   3.202   2.955  13.745  0.9599  1.5246  0.3593
  619TIP3    H223349   3.100   2.934  13.855 -0.3935 -0.2001 -1.1699
  620TIP3   OH223350   3.871   0.733   0.107 -0.3012 -0.5114  0.4004
  620TIP3    H123351   3.945   0.679   0.078  0.5195  0.9053 -0.2603
  620TIP3    H223352   3.803   0.719   0.041  0.9566  1.4027 -1.4528
  621TIP3   OH223353   2.307   6.315  11.253 -0.0295  0.1562  0.1653
  621TIP3    H123354   2.297   6.384  11.319 -0.7060 -0.7910  1.0644
  621TIP3    H223355   2.252   6.243  11.284 -0.9871 -0.0442 -1.8112
  622TIP3   OH223356   0.839   3.705  11.146 -0.1952 -0.2977 -0.3218
  622TIP3    H123357   0.751   3.733  11.169 -1.0605  0.1754 -3.6823
  622TIP3    H223358   0.831   3.611  11.128 -0.1302 -0.1697 -1.0469
  623TIP3   OH223359   5.662   2.761  12.506 -0.0061 -0.3814  0.5837
  623TIP3    H123360   5.731   2.826  12.500 -0.0188 -0.3913  0.2976
  623TIP3    H223361   5.593   2.794  12.448 -0.6210  0.0888  1.5642
  624TIP3   OH223362   2.144   2.209   0.967 -0.4057  0.0986 -0.2160
  624TIP3    H123363   2.083   2.165   0.908 -0.3202 -1.0444  0.5190
  624TIP3    H223364   2.142   2.156   1.047 -1.5581  2.3455  1.3451
  625TIP3   OH223365   6.346   4.792  12.439  0.8075  0.0596  0.2329
  625TIP3    H123366   6.257   4.829  12.438  0.5756 -0.4881 -1.4324
  625TIP3    H223367   6.375   4.797  12.348  1.7416 -1.5502  0.4205
  626TIP3   OH223368   4.562   4.604   5.217 -0.5439  0.3705 -0.2720
  626TIP3    H123369   4.598   4.524   5.179 -1.0876  0.7309 -1.5824
  626TIP3    H223370   4.503   4.574   5.286 -0.2788 -0.3276 -0.3484
  627TIP3   OH223371   0.936   1.653  11.691 -0.4233  0.8839 -0.1401
  627TIP3    H123372   0.934   1.569  11.737 -3.0077  0.6873 -0.4547
  627TIP3    H223373   1.002   1.642  11.623  0.3700 -0.3386  0.7879
  628TIP3   OH223374   6.453   1.498  13.909 -0.3720 -0.1875  0.0954
  628TIP3    H123375   6.427   1.446  13.985  0.5894 -2.4930 -1.0552
  628TIP3    H223376   6.397   1.468  13.838 -0.0100  0.5820 -0.5418
  629TIP3   OH223377   2.962   6.290  10.788 -0.1300 -0.1339 -0.0939
  629TIP3    H123378   3.026   6.329  10.848  2.3789 -3.6094 -0.1680
  629TIP3    H223379   2.906   6.236  10.845 -0.3113 -0.3288 -0.4535
  630TIP3   OH223380   2.045   5.390  13.677  0.2408 -0.2080 -0.1417
  630TIP3    H123381   2.051   5.297  13.697  0.3456 -0.7976 -2.6578
  630TIP3    H223382   1.951   5.407  13.671  0.1901  0.0911  1.1977
  631TIP3   OH223383   3.083   7.005  12.507 -0.3346  0.5126  0.2994
  631TIP3    H123384   3.143   7.055  12.563  0.7330  1.8444 -1.9116
  631TIP3    H223385   3.132   6.990  12.426 -1.9947 -0.8869 -0.4977
  632TIP3   OH223386   3.430   3.011  11.100 -0.3366  0.2609 -0.1905
  632TIP3    H123387   3.341   3.019  11.068 -0.4075  2.0029  0.3120
  632TIP3    H223388   3.432   3.066  11.179  1.1472  0.1686 -0.1351
  633TIP3   OH223389   1.534   2.772  13.744 -0.0060  0.5333  0.0344
  633TIP3    H123390   1.618   2.739  13.712  0.1844  0.7433  0.3050
  633TIP3    H223391   1.491   2.808  13.667 -0.5613 -1.0388 -0.4284
  634TIP3   OH223392   1.129   3.269   9.650  1.0652 -0.2007 -0.4122
  634TIP3    H123393   1.080   3.217   9.714  2.2794 -0.2524  0.5147
  634TIP3    H223394   1.081   3.259   9.568  0.7742 -2.0601 -0.0488
  635TIP3   OH223395   3.247   4.144  11.267  0.1244 -0.6222  0.0716
  635TIP3    H123396   3.225   4.160  11.175  1.6682  0.4883 -0.1273
  635TIP3    H223397   3.248   4.048  11.274 -2.6144 -0.7721 -0.3747
  636TIP3   OH223398   3.583   2.727  11.303  0.2878 -0.5313  0.0069
  636TIP3    H123399   3.608   2.806  11.352 -0.4644  0.3516 -0.9819
  636TIP3    H223400   3.571   2.757  11.213 -1.7708 -1.3896 -0.0591
  637TIP3   OH223401   5.154   0.152  11.926 -0.2454 -0.2897  0.5000
  637TIP3    H123402   5.230   0.095  11.914 -0.0751  0.1733 -0.7912
  637TIP3    H223403   5.089   0.118  11.864 -0.1935  0.8103 -0.1821
  638TIP3   OH223404   4.617   6.926   1.676 -0.4928  0.2631  0.0770
  638TIP3    H123405   4.569   6.923   1.593  0.3706 -1.3972 -0.4149
  638TIP3    H223406   4.577   6.858   1.730  0.5885 -0.4323  0.0391
  639TIP3   OH223407   0.925   5.626  10.167  0.3042  0.1002  0.1323
  639TIP3    H123408   1.006   5.582  10.142  0.1233  0.8237 -1.9447
  639TIP3    H223409   0.953   5.709  10.204  0.5232  0.5602 -1.0365
  640TIP3   OH223410   0.640   0.011  12.432  0.4952 -0.0914 -0.2790
  640TIP3    H123411   0.719   0.015  12.486  0.9377  3.0670 -0.9453
  640TIP3    H223412   0.568   0.032  12.492  0.4223 -0.7916 -0.1129
  641TIP3   OH223413   2.934   6.040  14.208 -0.0239  0.4118 -0.2558
  641TIP3    H123414   2.992   6.101  14.161  0.5157  1.2916  1.4592
  641TIP3    H223415   2.852   6.088  14.218  0.2927  0.7572  0.8088
  642TIP3   OH223416   2.028   3.555   1.333  0.0214  0.0810  0.2750
  642TIP3    H123417   2.059   3.547   1.424 -0.0644 -0.3980  0.2668
  642TIP3    H223418   2.096   3.605   1.289  1.1111 -1.4516  0.1124
  643TIP3   OH223419   3.485   1.775   1.178 -0.7788  0.0435  0.2043
  643TIP3    H123420   3.438   1.756   1.097 -0.3552 -0.4034  0.0608
  643TIP3    H223421   3.547   1.702   1.188 -0.6440  0.2334  0.7865
  644TIP3   OH223422   6.598   0.990   3.921  0.4514 -0.0367  0.1745
  644TIP3    H123423   6.687   0.953   3.920  0.4014 -0.2167  1.3216
  644TIP3    H223424   6.547   0.930   3.865  0.4067 -1.6832  1.8801
  645TIP3   OH223425   2.717   6.496   0.080  0.2425  0.0771  0.3360
  645TIP3    H123426   2.681   6.409   0.097 -0.3294  0.4595  1.1430
  645TIP3    H223427   2.799   6.480   0.034 -0.3592 -0.8496 -0.4475
  646TIP3   OH223428   4.832   2.535  10.668  0.7152  0.2351 -0.3809
  646TIP3    H123429   4.774   2.599  10.626  0.2383  0.8383  1.1259
  646TIP3    H223430   4.918   2.552  10.630  0.2462  0.4951 -1.3761
  647TIP3   OH223431   0.448   3.411  12.697  0.5317  0.4862  0.1302
  647TIP3    H123432   0.442   3.467  12.619 -0.2684 -0.0660 -0.2135
  647TIP3    H223433   0.377   3.348  12.687  2.6933 -2.0089 -0.6153
  648TIP3   OH223434   1.010   0.444   9.987 -0.2713  0.5690 -0.3089
  648TIP3    H123435   1.046   0.388  10.056 -2.1162 -0.8594 -0.4152
  648TIP3    H223436   1.073   0.515   9.978  1.4177 -0.6929  0.9035
  649TIP3   OH223437   7.058   1.750   4.305 -0.5448 -0.4747  0.3907
  649TIP3    H123438   7.039   1.822   4.366  0.9964 -0.1495  0.5103
  649TIP3    H223439   6.972   1.726   4.270 -1.5759 -1.1411  3.1690
  650TIP3   OH223440   6.375   5.743   3.632  0.8893 -0.2960  0.0960
  650TIP3    H123441   6.355   5.791   3.712  1.7669 -1.9825  1.3961
  650TIP3    H223442   6.466   5.765   3.613  0.9718 -0.6229  0.1056
  651TIP3   OH223443   3.931   3.609  13.068  0.5659  0.2368  0.5201
  651TIP3    H123444   3.985   3.543  13.112  0.2705 -0.0354  0.4774
  651TIP3    H223445   3.979   3.691  13.080  1.0981 -0.0387  0.2949
  652TIP3   OH223446   0.037   6.361   1.026 -0.3346  0.3251 -0.5201
  652TIP3    H123447  -0.003   6.371   0.940 -1.3338  0.1875 -0.0857
  652TIP3    H223448   0.029   6.448   1.067  2.1623  1.0672 -1.3535
  653TIP3   OH223449   0.647   6.940  12.243 -0.3769 -0.4375 -0.1121
  653TIP3    H123450   0.614   6.954  12.332  0.5768  1.4818 -0.0102
  653TIP3    H223451   0.610   7.012  12.192 -1.2835 -1.7755 -1.4054
  654TIP3   OH223452   3.010   2.558   0.967 -0.3592  0.1501 -0.5544
  654TIP3    H123453   3.053   2.572   0.883 -1.0220  0.6573 -0.8198
  654TIP3    H223454   2.919   2.584   0.952 -1.1874 -2.4044 -0.4752
  655TIP3   OH223455   0.738   0.262  10.786 -0.1702  0.5329  0.0535
  655TIP3    H123456   0.782   0.233  10.866  0.5070  0.0170 -0.4982
  655TIP3    H223457   0.782   0.215  10.715 -0.2684  1.5457 -0.6982
  656TIP3   OH223458   3.554   4.952   2.335 -0.5745  0.1680 -0.1577
  656TIP3    H123459   3.639   4.971   2.372 -0.5324 -1.3481  0.6120
  656TIP3    H223460   3.573   4.909   2.251 -0.5319 -0.6495  0.2524
  657TIP3   OH223461   5.878   5.035  11.293 -0.0834  0.7659  0.2943
  657TIP3    H123462   5.918   4.963  11.342 -3.0435 -0.8958  0.4468
  657TIP3    H223463   5.880   5.006  11.202  0.3208  1.3143  0.1246
  658TIP3   OH223464   0.339   1.835   0.796 -0.3020 -0.2265 -0.3872
  658TIP3    H123465   0.397   1.894   0.749 -0.2271  0.8802  1.0369
  658TIP3    H223466   0.284   1.892   0.849 -2.1050 -1.3010 -1.0151
  659TIP3   OH223467   0.044   6.758  10.673  0.1692  0.6061 -0.3245
  659TIP3    H123468   0.044   6.826  10.740 -1.2101 -1.6205  2.1686
  659TIP3    H223469  -0.026   6.783  10.613 -0.6430  1.1423  0.8175
  660TIP3   OH223470   0.529   2.748  14.036 -0.1422  0.1679  0.0639
  660TIP3    H123471   0.479   2.828  14.022  0.8632  0.7951 -0.0291
  660TIP3    H223472   0.530   2.705  13.950 -0.1962  0.3353 -0.0195
  661TIP3   OH223473   0.025   7.107  14.304 -0.5511  0.4224  0.2027
  661TIP3    H123474   0.104   7.110  14.358 -1.0760 -0.3675  1.0316
  661TIP3    H223475  -0.046   7.132  14.363 -1.1608 -0.6556 -0.0519
  662TIP3   OH223476   3.284   1.093  15.056  0.0178  0.3524 -0.5129
  662TIP3    H123477   3.279   1.138  15.140  0.9184  2.3376 -1.4578
  662TIP3    H223478   3.352   1.026  15.069 -2.0447 -1.5752  1.2106
  663TIP3   OH223479   3.556   5.272  13.025 -0.1263  0.3012 -0.9466
  663TIP3    H123480   3.464   5.265  12.996 -1.0278 -0.9268  1.8698
  663TIP3    H223481   3.560   5.356  13.070 -0.8483 -0.9673  1.6871
  664TIP3   OH223482   3.347   1.198  11.073  0.0752  0.0151 -0.5645
  664TIP3    H123483   3.358   1.277  11.126  1.2186 -0.9523  0.7328
  664TIP3    H223484   3.435   1.178  11.041  0.8955 -3.1321  2.8648
  665TIP3   OH223485   3.943   7.156   0.025 -0.2550  0.2678  0.5669
  665TIP3    H123486   3.966   7.106   0.103  0.5669 -0.7631 -0.2931
  665TIP3    H223487   3.966   7.247   0.047  0.2064 -0.0441  1.4262
  666TIP3   OH223488   5.582   1.266   5.357  0.0937 -0.7520  0.2705
  666TIP3    H123489   5.562   1.201   5.425 -0.8154  0.2753  1.0285
  666TIP3    H223490   5.515   1.333   5.368  1.3497  0.6119 -0.0921
  667TIP3   OH223491   2.182   1.150   1.413 -0.3594  0.7567 -0.3713
  667TIP3    H123492   2.216   1.144   1.324  0.4611  0.0507 -0.0207
  667TIP3    H223493   2.255   1.125   1.469 -1.6687 -1.6814  0.3743
  668TIP3   OH223494   1.899   0.569  13.076 -0.2889  0.2688  0.3463
  668TIP3    H123495   1.839   0.588  13.149  0.6504  0.6444  1.0507
  668TIP3    H223496   1.865   0.621  13.003 -1.2537 -0.1243  0.4929
  669TIP3   OH223497   3.456   3.168  11.330  0.9041 -0.2797 -0.3202
  669TIP3    H123498   3.514   3.243  11.343 -0.4594  0.6227  1.0091
  669TIP3    H223499   3.379   3.205  11.287  1.3198 -1.4870 -2.2353
  670TIP3   OH223500   6.730   3.814  14.250 -0.3860  0.3632 -0.0639
  670TIP3    H123501   6.818   3.851  14.259  0.8294 -2.3075 -0.0742
  670TIP3    H223502   6.673   3.890  14.248  1.8331  2.1847  0.7690
  671TIP3   OH223503   3.603   6.833  10.454 -0.3487  0.6330 -0.5933
  671TIP3    H123504   3.617   6.902  10.519 -1.9667  0.6702 -0.2403
  671TIP3    H223505   3.639   6.754  10.494  2.1613  1.3477 -1.2864
  672TIP3   OH223506   3.873   4.850  12.050  0.3462 -0.4170  0.3812
  672TIP3    H123507   3.937   4.861  11.979 -0.2197  1.0791  0.0684
  672TIP3    H223508   3.788   4.859  12.007 -0.0855 -1.7466  0.9055
  673TIP3   OH223509   7.027   1.243  14.800  0.0366  0.2387 -0.0131
  673TIP3    H123510   7.046   1.153  14.826 -2.5117 -0.9457 -1.9376
  673TIP3    H223511   7.087   1.260  14.728  1.0425  0.4222  0.8307
  674TIP3   OH223512   7.012   4.500  12.964 -0.3355 -0.4159  0.5612
  674TIP3    H123513   7.019   4.569  13.030  0.5554  0.1552 -0.1033
  674TIP3    H223514   7.048   4.422  13.007  0.5888  0.0405  0.6469
  675TIP3   OH223515   0.706   1.007   2.527 -0.0240 -0.2788  0.1425
  675TIP3    H123516   0.618   1.044   2.533 -0.8484 -2.0434 -0.4979
  675TIP3    H223517   0.729   1.012   2.434  0.4691 -0.0444  0.2704
  676TIP3   OH223518   5.846   3.764   9.564 -1.0719  0.1499 -0.0226
  676TIP3    H123519   5.877   3.832   9.505  0.1894  0.7754  1.2911
  676TIP3    H223520   5.752   3.779   9.571 -0.5782  3.2894  1.9735
  677TIP3   OH223521   2.542   0.281  12.548  0.0100 -0.6369  0.0017
  677TIP3    H123522   2.535   0.333  12.468  0.4423  0.9492  0.9557
  677TIP3    H223523   2.619   0.225  12.533  0.9073  0.6050 -0.2002
  678TIP3   OH223524   1.974   6.353  11.047 -0.4023 -0.8222 -0.2082
  678TIP3    H123525   1.913   6.427  11.041  0.7224  0.0495 -1.6805
  678TIP3    H223526   1.917   6.276  11.052 -1.6116  0.0219 -0.3405
  679TIP3   OH223527   7.008   3.587  10.014 -0.0558 -0.3914 -0.0473
  679TIP3    H123528   7.042   3.661   9.962 -0.8403 -0.2932 -0.4349
  679TIP3    H223529   7.085   3.552  10.059  0.1606  1.3619  1.0309
  680TIP3   OH223530   7.075   6.310  15.556  0.2466 -0.2207  0.6697
  680TIP3    H123531   6.989   6.284  15.524  0.4676 -3.6494  2.4018
  680TIP3    H223532   7.072   6.406  15.559 -3.0838 -0.1832 -0.3605
  681TIP3   OH223533   4.994   6.004  12.269 -0.2590  0.2307  0.6654
  681TIP3    H123534   4.902   5.978  12.266 -0.1107 -0.2488  0.0925
  681TIP3    H223535   5.034   5.961  12.193  0.3782  0.6633  0.7459
  682TIP3   OH223536   1.945   3.288   3.676 -0.3809  0.1725 -0.1394
  682TIP3    H123537   2.011   3.264   3.740 -0.2299  2.6315  0.7355
  682TIP3    H223538   1.995   3.321   3.601 -0.5765 -1.8620 -1.2220
  683TIP3   OH223539   6.369   1.278   4.612  0.0871 -0.3917  0.3748
  683TIP3    H123540   6.322   1.320   4.684  1.7915  1.6581  0.3662
  683TIP3    H223541   6.359   1.338   4.538 -0.4898 -1.8133 -0.7580
  684TIP3   OH223542   5.595   2.907  10.857 -0.1815 -0.1883 -0.1861
  684TIP3    H123543   5.648   2.938  10.784 -0.9299  0.3017 -0.5361
  684TIP3    H223544   5.564   2.987  10.900 -1.3057 -0.4431 -0.4925
  685TIP3   OH223545   2.986   4.079   2.582  0.6190 -0.3067  0.2288
  685TIP3    H123546   2.926   4.081   2.657  0.6075  3.8849  0.3285
  685TIP3    H223547   3.072   4.097   2.620  1.1350 -1.0800 -0.5154
  686TIP3   OH223548   0.226   4.791  11.357 -0.4882  0.4197 -0.4183
  686TIP3    H123549   0.174   4.789  11.276 -0.1978 -0.1193 -0.5988
  686TIP3    H223550   0.279   4.871  11.349 -0.2636  0.2315 -0.8928
  687TIP3   OH223551   4.515   2.974  14.037 -0.2268  0.1017  0.0821
  687TIP3    H123552   4.595   2.991  14.087 -0.7632  0.7216  0.7473
  687TIP3    H223553   4.518   2.880  14.020 -0.0877 -0.1601  1.4032
  688TIP3   OH223554   4.935   3.278   0.100  0.5337 -0.5703 -0.7721
  688TIP3    H123555   4.914   3.186   0.083 -1.8149  0.1430 -2.2764
  688TIP3    H223556   4.934   3.319   0.014 -1.4396  1.3599  0.0530
  689TIP3   OH223557   1.048   0.684  15.694 -0.5645 -0.0287  0.3251
  689TIP3    H123558   1.030   0.716  15.605  1.2492  0.5985  0.1304
  689TIP3    H223559   1.137   0.713  15.712 -1.1103  0.4036  2.6271
  690TIP3   OH223560   3.495   2.779  11.767  0.6956  0.1736 -0.2947
  690TIP3    H123561   3.541   2.730  11.699  2.8367 -1.0869  1.9079
  690TIP3    H223562   3.436   2.716  11.807 -0.3593  0.8378 -0.7597
  691TIP3   OH223563   2.160   4.536  10.786  0.4468  0.1261  0.4844
  691TIP3    H123564   2.148   4.570  10.874 -0.9356  0.3012  0.2502
  691TIP3    H223565   2.086   4.571  10.736  0.1386 -1.4784 -0.2747
  692TIP3   OH223566   4.058   6.049  10.840 -0.2444 -0.3649  0.1248
  692TIP3    H123567   4.116   6.103  10.894 -1.6564 -0.1216  1.4802
  692TIP3    H223568   3.979   6.103  10.828 -0.4740 -0.9263 -1.1361
  693TIP3   OH223569   2.610   6.307  11.676  0.5953 -0.6498  0.3637
  693TIP3    H123570   2.559   6.387  11.669  0.2054 -1.0187 -1.5235
  693TIP3    H223571   2.544   6.237  11.676  1.0176 -1.1389 -2.2596
  694TIP3   OH223572   0.376   5.969  11.094 -0.1269  0.4389  0.4050
  694TIP3    H123573   0.392   5.916  11.172 -0.4340 -1.5235 -0.8082
  694TIP3    H223574   0.406   5.915  11.021  1.0038  2.5800 -0.8330
  695TIP3   OH223575   3.087   0.196  12.586  0.6532 -0.2639 -0.1401
  695TIP3    H123576   3.181   0.206  12.596  0.8512 -1.3017 -0.8084
  695TIP3    H223577   3.074   0.177  12.493 -0.2131 -0.1140 -0.0621
  696TIP3   OH223578   5.134   0.377  10.965 -0.5810 -0.0796  0.4587
  696TIP3    H123579   5.188   0.455  10.973 -2.5573  1.2993  1.3425
  696TIP3    H223580   5.153   0.327  11.045 -0.4022  0.2475  0.6249
  697TIP3   OH223581   6.771   1.356   9.406  0.3010  0.5640 -0.4777
  697TIP3    H123582   6.695   1.407   9.435  0.3586 -0.1087  0.9345
  697TIP3    H223583   6.802   1.312   9.485  0.9963 -0.7041 -1.4193
  698TIP3   OH223584   6.738   0.958   0.465  0.7273 -0.0964 -0.6083
  698TIP3    H123585   6.676   0.897   0.426  1.2280 -1.5675  0.7817
  698TIP3    H223586   6.706   0.971   0.554  2.8674 -1.6945  0.4964
  699TIP3   OH223587   3.791   6.501  11.115  0.4331  0.5777  0.3796
  699TIP3    H123588   3.798   6.409  11.090  1.8032  1.0755 -1.2131
  699TIP3    H223589   3.721   6.536  11.058  0.3991  0.6796  0.4833
  700TIP3   OH223590   3.396   5.256   0.584  0.2269  0.4467 -0.3854
  700TIP3    H123591   3.356   5.258   0.497  1.1739  3.5910 -0.8772
  700TIP3    H223592   3.325   5.281   0.644 -0.3482 -1.4259 -0.2285
  701TIP3   OH223593   3.911   6.580   2.046 -0.3555 -0.2983  0.3303
  701TIP3    H123594   3.876   6.663   2.012  0.4854  0.7220  1.8640
  701TIP3    H223595   3.865   6.513   1.995 -2.3802  1.0394  0.2743
  702TIP3   OH223596   2.485   4.246  14.722  0.0562  0.5665 -0.4165
  702TIP3    H123597   2.511   4.332  14.691  1.8142  0.2399  0.0493
  702TIP3    H223598   2.495   4.250  14.817 -0.7449  0.1278 -0.3053
  703TIP3   OH223599   6.397   2.758  12.019  0.1598 -0.4296 -0.1134
  703TIP3    H123600   6.424   2.794  11.935 -0.0368 -0.2504 -0.1001
  703TIP3    H223601   6.376   2.666  12.000 -0.9021 -0.1225 -0.4778
  704TIP3   OH223602   1.772   5.795  13.125 -0.3878  0.0960  0.2751
  704TIP3    H123603   1.828   5.872  13.112  0.0260 -0.2373  0.0402
  704TIP3    H223604   1.683   5.827  13.108 -0.0354  0.0617 -1.9486
  705TIP3   OH223605   6.885   1.952  12.396 -0.5113  0.5073  0.3368
  705TIP3    H123606   6.967   1.906  12.376 -1.1965  0.4266 -2.8429
  705TIP3    H223607   6.817   1.887  12.384 -1.2925  1.5841 -1.5882
  706TIP3   OH223608   5.386   4.422   0.443 -0.2460  0.0456 -0.5124
  706TIP3    H123609   5.465   4.472   0.423 -0.2786  0.2143 -0.2175
  706TIP3    H223610   5.373   4.366   0.366  0.8112 -0.8207 -0.0801
  707TIP3   OH223611   5.441   1.054  10.331 -0.0827 -0.0777 -0.1428
  707TIP3    H123612   5.356   1.082  10.295  0.2645  0.2186 -0.7459
  707TIP3    H223613   5.476   1.134  10.371  0.1463 -0.0719 -0.3570
  708TIP3   OH223614   3.592   5.560  14.143  0.6469 -0.2013  0.6596
  708TIP3    H123615   3.539   5.553  14.064 -0.1215  1.9426  0.9271
  708TIP3    H223616   3.577   5.478  14.190 -0.6190 -0.5721 -0.3669
  709TIP3   OH223617   0.611   1.249   1.293 -0.2049  0.4195 -0.5103
  709TIP3    H123618   0.598   1.342   1.315  1.9637  1.0745 -1.7077
  709TIP3    H223619   0.562   1.202   1.360 -0.8016  2.4200  0.5553
  710TIP3   OH223620   5.274   1.275  11.734  0.0419  0.1296  0.5216
  710TIP3    H123621   5.287   1.207  11.669  1.3185  1.1560 -0.3602
  710TIP3    H223622   5.362   1.306  11.754 -0.5533  2.7714 -0.5289
  711TIP3   OH223623   4.801   0.672  10.990 -0.8581 -0.4288  0.1768
  711TIP3    H123624   4.808   0.594  11.045  0.2885 -0.0251  0.6384
  711TIP3    H223625   4.717   0.662  10.944 -0.2152 -2.5177 -0.6918
  712TIP3   OH223626   4.291   5.586  12.220  0.4732  0.1077  0.0024
  712TIP3    H123627   4.268   5.537  12.299 -0.9656 -2.5777 -1.9469
  712TIP3    H223628   4.372   5.546  12.189  0.1860  0.0761 -0.7200
  713TIP3   OH223629   5.857   0.961  11.731  0.1172 -0.1683  0.0790
  713TIP3    H123630   5.900   1.046  11.723  1.5643 -0.7331  1.2053
  713TIP3    H223631   5.873   0.918  11.648 -1.8519  1.1348 -1.0507
  714TIP3   OH223632   2.579   0.343  12.297  0.5036  0.1269 -0.7281
  714TIP3    H123633   2.523   0.346  12.219  1.1765 -0.4675 -1.2561
  714TIP3    H223634   2.667   0.324  12.262  0.9286  0.5005  0.1265
  715TIP3   OH223635   1.994   0.464   1.637 -0.5067 -0.4529 -0.1671
  715TIP3    H123636   1.952   0.485   1.554 -0.4290  0.9569  0.1214
  715TIP3    H223637   2.076   0.513   1.636 -1.6884  1.7784  1.7960
  716TIP3   OH223638   0.398   6.108  11.438 -0.6415 -0.0550 -0.0263
  716TIP3    H123639   0.314   6.080  11.402 -0.7823 -0.5804  0.6954
  716TIP3    H223640   0.390   6.095  11.532  0.4783 -0.7247 -0.0048
  717TIP3   OH223641   1.301   3.446   5.288  0.0465  0.0019  0.1430
  717TIP3    H123642   1.360   3.519   5.308  0.8500 -0.6341  0.1468
  717TIP3    H223643   1.279   3.409   5.374  0.3132 -0.2735  0.0946
  718TIP3   OH223644   4.445   2.243   1.711  0.4937  0.0696  0.3327
  718TIP3    H123645   4.354   2.271   1.700  0.9019  0.9384 -0.9801
  718TIP3    H223646   4.440   2.174   1.778 -1.3626 -1.0587 -0.8508
  719TIP3   OH223647   2.043   1.783  11.403 -0.1057  0.0136 -0.6725
  719TIP3    H123648   1.972   1.720  11.390  1.3746 -1.2850 -3.2708
  719TIP3    H223649   2.094   1.749  11.476 -1.7253  0.6329  0.8154
  720TIP3   OH223650   5.103   0.817  11.937  0.3987 -0.2540 -0.2331
  720TIP3    H123651   5.108   0.912  11.948 -0.3492 -0.0511 -1.4623
  720TIP3    H223652   5.112   0.803  11.843 -1.3242 -1.2450 -0.2962
  721TIP3   OH223653   1.057   1.313   2.923  0.7495 -0.7267 -0.3531
  721TIP3    H123654   0.975   1.263   2.917  1.0422 -1.4652  1.3836
  721TIP3    H223655   1.028   1.404   2.928 -0.0849 -1.0638  1.7402
  722TIP3   OH223656   4.173   6.496  12.079 -0.5850 -0.1569  0.3340
  722TIP3    H123657   4.190   6.533  11.993 -0.8304  0.9183  0.7401
  722TIP3    H223658   4.135   6.410  12.061  1.2007 -0.7888 -0.6050
  723TIP3   OH223659   0.143   1.606   4.189  0.4397 -0.0443 -0.1678
  723TIP3    H123660   0.135   1.700   4.174  2.3233  0.5753  1.9933
  723TIP3    H223661   0.058   1.579   4.224  0.1306  1.0311 -0.0754
  724TIP3   OH223662   5.743   3.964   0.807  0.4041 -0.1213  0.2634
  724TIP3    H123663   5.786   3.887   0.843 -1.1642 -2.2340 -2.0837
  724TIP3    H223664   5.810   4.007   0.754  0.4658 -1.7572 -1.0421
  725TIP3   OH223665   4.926   3.593  14.375  0.6240 -0.1059  0.6498
  725TIP3    H123666   4.833   3.596  14.355  1.3589  0.5414 -3.9101
  725TIP3    H223667   4.946   3.679  14.412 -0.5411 -0.2088  1.5481
  726TIP3   OH223668   0.490   7.133  11.663  0.1064  0.4103 -0.7723
  726TIP3    H123669   0.440   7.099  11.737  2.1469  1.0449  0.9782
  726TIP3    H223670   0.445   7.214  11.638 -1.7078 -0.7545 -1.5749
  727TIP3   OH223671   4.171   3.103  15.175 -0.9371 -0.2251 -0.2813
  727TIP3    H123672   4.240   3.065  15.229 -0.3073  1.5596  0.2369
  727TIP3    H223673   4.206   3.099  15.086 -0.7645 -0.5565 -0.2036
  728TIP3   OH223674   6.967   3.242  13.732 -0.2876 -0.2565 -0.0584
  728TIP3    H123675   7.021   3.215  13.658  0.5475 -1.4875  0.9580
  728TIP3    H223676   7.030   3.269  13.799 -1.0346  2.2251 -0.2309
  729TIP3   OH223677   1.623   5.526  10.709 -0.2067  0.1038 -0.3767
  729TIP3    H123678   1.614   5.440  10.667  0.6880 -1.0169  1.6244
  729TIP3    H223679   1.537   5.544  10.746 -0.0291 -0.5731  0.3702
  730TIP3   OH223680   0.558   4.538  15.085 -0.3062  0.0140 -0.8070
  730TIP3    H123681   0.614   4.532  15.008 -0.6203 -2.2266 -0.9499
  730TIP3    H223682   0.509   4.619  15.074  0.8268  0.5524 -2.1339
  731TIP3   OH223683   5.124   0.419  13.726 -0.1658 -0.5881 -0.8143
  731TIP3    H123684   5.117   0.324  13.737  1.7520 -0.7600 -0.6761
  731TIP3    H223685   5.115   0.433  13.632 -0.5558 -0.8959 -0.8254
  732TIP3   OH223686   5.538   4.968   0.901  0.1406  0.0382  0.0714
  732TIP3    H123687   5.579   5.053   0.886  0.4933 -0.0623  0.4299
  732TIP3    H223688   5.530   4.929   0.814  1.6252 -0.3034  0.0611
  733TIP3   OH223689   4.033   0.694  12.216 -0.3792  0.1100 -0.5467
  733TIP3    H123690   4.054   0.781  12.183  1.2668 -0.3491 -0.8473
  733TIP3    H223691   3.959   0.707  12.274  1.0425  2.0589  0.9755
  734TIP3   OH223692   5.303   5.226  14.622 -0.4044 -0.3167 -0.0222
  734TIP3    H123693   5.268   5.289  14.685 -0.5082 -0.1746 -0.2189
  734TIP3    H223694   5.266   5.142  14.649 -1.4247 -0.0804 -0.5968
  735TIP3   OH223695   6.651   5.617  13.708 -0.0569  0.4218 -0.1388
  735TIP3    H123696   6.686   5.705  13.695 -0.6512  1.2760  3.0917
  735TIP3    H223697   6.725   5.559  13.691  0.7871  1.6489 -0.7802
  736TIP3   OH223698   6.918   0.111  13.237 -0.3287  0.1645  0.0013
  736TIP3    H123699   7.002   0.101  13.281 -0.7399  0.1063  0.7864
  736TIP3    H223700   6.931   0.185  13.177  0.8033 -0.9419 -1.1856
  737TIP3   OH223701   1.838   5.897  12.518  0.4804  0.4293 -0.6288
  737TIP3    H123702   1.800   5.984  12.505  2.1057  1.4487  0.9954
  737TIP3    H223703   1.845   5.888  12.613 -0.3874 -1.8559 -0.7110
  738TIP3   OH223704   5.587   1.085   0.620  0.1252 -0.5054 -0.8295
  738TIP3    H123705   5.545   1.028   0.555 -1.5802 -0.3260  0.0451
  738TIP3    H223706   5.526   1.085   0.694  1.1810  0.6762  0.0785
  739TIP3   OH223707   1.642   2.037   4.016  0.1676 -0.0871 -0.5304
  739TIP3    H123708   1.725   2.069   4.051 -0.6789  1.3714  0.2623
  739TIP3    H223709   1.581   2.109   4.030 -2.0254 -2.2071  1.8776
  740TIP3   OH223710   5.139   3.270   2.945  0.7882  0.0884  0.0276
  740TIP3    H123711   5.190   3.351   2.934  1.7965 -0.6622 -1.1932
  740TIP3    H223712   5.180   3.225   3.018 -0.4199  1.1079  1.3899
  741TIP3   OH223713   2.022   5.282   3.179  0.0002  0.4344  0.3276
  741TIP3    H123714   1.958   5.333   3.227 -0.7265  0.7547 -0.9341
  741TIP3    H223715   1.992   5.191   3.187  0.3675  0.3837  1.1839
  742TIP3   OH223716   0.161   0.713  12.080  0.1242 -0.0281 -0.4442
  742TIP3    H123717   0.072   0.688  12.058  0.2435  1.0591 -2.4194
  742TIP3    H223718   0.155   0.750  12.168 -0.8011 -2.6971  0.6940
  743TIP3   OH223719   3.873   0.499  11.838  0.0043 -0.4054  0.0358
  743TIP3    H123720   3.963   0.472  11.859  0.4222 -0.7549 -2.0049
  743TIP3    H223721   3.860   0.471  11.748 -0.9725  2.6525 -0.8783
  744TIP3   OH223722   3.273   0.321  15.087  0.3330  0.1679  0.5065
  744TIP3    H123723   3.309   0.409  15.081  0.5818  0.0707  0.5424
  744TIP3    H223724   3.350   0.264  15.092  0.1802 -0.0744  0.1496
  745TIP3   OH223725   2.668   5.425  11.152  0.5714  0.6108 -0.2838
  745TIP3    H123726   2.723   5.347  11.152  3.0682  2.2164 -1.8863
  745TIP3    H223727   2.688   5.470  11.234 -1.2072 -0.5507  0.8550
  746TIP3   OH223728   0.729   2.880  11.807  0.2990 -0.3554 -0.2954
  746TIP3    H123729   0.738   2.833  11.724  1.1556 -0.0509 -0.3867
  746TIP3    H223730   0.818   2.906  11.829 -0.1377  1.1222 -0.1852
  747TIP3   OH223731   5.714   0.637  14.429  0.6840 -0.4414  0.5440
  747TIP3    H123732   5.742   0.546  14.440  0.2685 -0.6745 -0.2512
  747TIP3    H223733   5.757   0.666  14.348 -0.7782 -0.5854 -0.3179
  748TIP3   OH223734   2.680   5.549  12.296 -0.2110 -0.2995  0.3658
  748TIP3    H123735   2.596   5.560  12.341 -0.1629  1.2416  0.1311
  748TIP3    H223736   2.711   5.638  12.282 -0.4804 -0.6307 -3.1800
  749TIP3   OH223737   3.640   5.218  10.030 -0.6279  0.3840  0.3551
  749TIP3    H123738   3.719   5.269  10.048 -1.2352  1.1271  0.8978
  749TIP3    H223739   3.640   5.209   9.934  0.6126 -0.4410  0.4015
  750TIP3   OH223740   3.674   0.313  10.278  0.5663 -0.1925  0.1778
  750TIP3    H123741   3.627   0.301  10.361 -1.6438  0.8669 -0.8566
  750TIP3    H223742   3.619   0.269  10.213  0.5072  1.8488 -1.2207
  751TIP3   OH223743   5.081   7.093   1.808  0.2471 -0.1281 -0.2258
  751TIP3    H123744   5.076   7.181   1.770 -0.6975 -0.7182 -1.5470
  751TIP3    H223745   5.105   7.108   1.900  0.4204  1.4794 -0.4977
  752TIP3   OH223746   4.097   4.625  13.431  0.2665 -0.0984 -0.4226
  752TIP3    H123747   4.030   4.689  13.451  1.2004  0.8683 -0.2881
  752TIP3    H223748   4.154   4.668  13.367 -0.2287 -1.5458 -1.9221
  753TIP3   OH223749   4.996   0.232   2.191  0.1618 -0.4257 -0.7112
  753TIP3    H123750   4.989   0.299   2.123  1.3200 -0.6609 -1.0851
  753TIP3    H223751   5.087   0.238   2.221 -0.1271 -0.8400  0.2934
  754TIP3   OH223752   4.540   5.931  11.265 -0.3200 -0.6130  0.7517
  754TIP3    H123753   4.571   5.926  11.356  1.1342 -0.4301  0.2845
  754TIP3    H223754   4.557   6.022  11.239  1.1464 -1.1682 -0.3275
  755TIP3   OH223755   5.923   7.152  13.216  0.3313  0.3012 -0.4747
  755TIP3    H123756   5.893   7.238  13.186  1.9314  0.5504 -1.4546
  755TIP3    H223757   6.017   7.151  13.197  0.4248 -1.5093 -0.1030
  756TIP3   OH223758   0.509   0.888  15.354  0.2510 -0.3345  0.4863
  756TIP3    H123759   0.459   0.969  15.365  1.5565  0.3683  1.5625
  756TIP3    H223760   0.457   0.821  15.396 -0.5094  0.0733  0.2092
  757TIP3   OH223761   5.580   2.055   1.577  0.2906  0.2682  0.1442
  757TIP3    H123762   5.641   2.129   1.587 -0.3207  0.8918 -0.5791
  757TIP3    H223763   5.532   2.075   1.496 -0.3258 -0.6057  0.2862
  758TIP3   OH223764   6.802   0.633  11.775 -0.0937  0.3579 -0.1607
  758TIP3    H123765   6.875   0.582  11.811  0.8455  1.0077 -1.0887
  758TIP3    H223766   6.839   0.676  11.698 -0.9516  2.1847  0.4124
  759TIP3   OH223767   0.830   1.053   3.808  0.4163  0.4326  0.2303
  759TIP3    H123768   0.902   1.052   3.745  1.4094 -3.3378  1.2075
  759TIP3    H223769   0.768   0.988   3.774  0.0748 -0.2912  2.1211
  760TIP3   OH223770   4.198   4.133  14.582  0.1033  0.5429 -0.1904
  760TIP3    H123771   4.215   4.096  14.496  0.4012  2.1284 -0.8454
  760TIP3    H223772   4.283   4.165  14.612 -0.0764  0.3709  0.5322
  761TIP3   OH223773   6.207   0.116  10.500 -0.5619 -0.0150 -0.0670
  761TIP3    H123774   6.277   0.089  10.559 -1.7763 -1.2148  0.8826
  761TIP3    H223775   6.219   0.061  10.422 -0.9964 -0.9172  0.4859
  762TIP3   OH223776   6.886   3.067  14.639 -0.4476  0.6562  0.3691
  762TIP3    H123777   6.817   3.007  14.612 -0.7424  1.1588 -0.0051
  762TIP3    H223778   6.855   3.102  14.723 -0.0702 -0.0334  0.8079
  763TIP3   OH223779   1.133   0.312  14.885  0.9466  0.3207 -0.5621
  763TIP3    H123780   1.186   0.297  14.807  2.5759 -0.7041  0.6651
  763TIP3    H223781   1.168   0.393  14.923  0.2482  0.7480 -0.8247
  764TIP3   OH223782   5.915   0.968  11.195 -0.6422  0.1980  0.0931
  764TIP3    H123783   5.820   0.972  11.202 -0.7089 -0.5795 -0.3380
  764TIP3    H223784   5.945   1.045  11.244 -1.5351  1.1192 -0.7522
  765TIP3   OH223785   5.354   5.920   5.160  0.0583 -0.4112  0.0990
  765TIP3    H123786   5.333   5.866   5.084 -0.9950 -0.2258  0.2410
  765TIP3    H223787   5.283   5.984   5.164  0.1182 -0.3988  1.2220
  766TIP3   OH223788   2.167   2.973  15.069 -0.7284  0.0397 -0.1564
  766TIP3    H123789   2.074   2.988  15.084 -0.7483 -0.1370 -0.0970
  766TIP3    H223790   2.200   2.936  15.151 -0.6771 -0.2095 -0.2860
  767TIP3   OH223791   1.129   4.812   1.418 -0.0715 -0.6706  0.3232
  767TIP3    H123792   1.143   4.905   1.401 -0.0500 -0.9539 -1.3781
  767TIP3    H223793   1.034   4.801   1.417 -0.0606 -1.0439 -2.0098
  768TIP3   OH223794   4.400   3.939  15.555  0.4098 -0.5914 -0.9133
  768TIP3    H123795   4.469   4.004  15.565  0.0863  0.0448 -2.5830
  768TIP3    H223796   4.370   3.922  15.645 -0.1768  2.3164 -0.4737
  769TIP3   OH223797   6.604   5.685  11.644 -0.2003 -0.3838  0.0297
  769TIP3    H123798   6.592   5.593  11.620  0.5703 -0.6781  0.7327
  769TIP3    H223799   6.568   5.734  11.570 -1.5866 -1.2397  0.1006
  770TIP3   OH223800   4.622   6.519  15.300 -0.2217  0.2057 -0.1470
  770TIP3    H123801   4.702   6.471  15.320  0.1385  0.8428 -0.0049
  770TIP3    H223802   4.609   6.576  15.376 -0.3370  0.7181 -0.5425
  771TIP3   OH223803   2.776   3.177   2.503  0.3031  0.4695 -0.2444
  771TIP3    H123804   2.762   3.083   2.516 -0.0071  0.2520 -2.0155
  771TIP3    H223805   2.859   3.195   2.548  0.3317 -0.6164  0.1756
  772TIP3   OH223806   5.398   6.740  10.032  0.5312  0.2636 -0.6274
  772TIP3    H123807   5.375   6.707  10.119 -2.1366 -1.7196 -1.9570
  772TIP3    H223808   5.443   6.668   9.989 -0.9007  0.0558 -1.8725
  773TIP3   OH223809   6.275   3.343  12.327  0.0217 -0.7809 -0.4082
  773TIP3    H123810   6.267   3.438  12.335 -0.0224 -0.8577  0.5529
  773TIP3    H223811   6.263   3.310  12.416  1.8012 -1.5767 -0.4322
  774TIP3   OH223812   1.308   1.557  12.631  0.0230  0.2676 -0.4825
  774TIP3    H123813   1.350   1.518  12.554  2.2750  1.1379  0.2164
  774TIP3    H223814   1.357   1.639  12.646 -1.5719  1.0490  0.7782
  775TIP3   OH223815   2.284   0.358  13.681 -0.8405  0.0376 -0.1344
  775TIP3    H123816   2.225   0.389  13.613 -0.7741 -1.3654 -0.8644
  775TIP3    H223817   2.344   0.430  13.696 -0.2393  0.0331 -2.2777
  776TIP3   OH223818   3.477   6.335   2.799  0.2172  0.1814  0.3787
  776TIP3    H123819   3.480   6.407   2.736 -1.0095  0.3876  0.5400
  776TIP3    H223820   3.562   6.340   2.844  0.6956  0.6590 -0.5452
  777TIP3   OH223821   0.479   0.399  10.397  0.5681  0.0170 -0.0559
  777TIP3    H123822   0.406   0.441  10.352 -0.3573 -0.8338  0.6231
  777TIP3    H223823   0.533   0.472  10.428  0.1487  0.6484 -0.7789
  778TIP3   OH223824   6.506   1.444  12.354  0.1919  0.3225 -0.3480
  778TIP3    H123825   6.525   1.537  12.369  0.1260  0.6935 -2.2386
  778TIP3    H223826   6.412   1.436  12.366  0.3173  0.2887  0.7010
  779TIP3   OH223827   5.058   2.007   1.853 -0.3916 -0.6834 -0.2441
  779TIP3    H123828   5.132   1.972   1.903 -0.6877 -0.5619  0.2900
  779TIP3    H223829   4.988   1.944   1.868 -0.3123 -0.9593 -0.9994
  780TIP3   OH223830   5.386   6.589   1.160  0.4196  0.4897 -0.1716
  780TIP3    H123831   5.462   6.645   1.171  0.0179  0.8309  1.0547
  780TIP3    H223832   5.349   6.614   1.075  1.0601  1.0601 -0.2894
  781TIP3   OH223833   0.689   0.524  10.771 -0.1781 -0.2346 -0.2146
  781TIP3    H123834   0.721   0.435  10.755 -0.3680 -0.0342 -1.8867
  781TIP3    H223835   0.619   0.512  10.835  0.4146 -1.1715  0.2890
  782TIP3   OH223836   7.096   3.032  12.780 -0.5199 -0.0511 -0.2324
  782TIP3    H123837   7.183   3.044  12.819 -0.6584  1.5360 -0.3468
  782TIP3    H223838   7.110   3.048  12.686 -0.7918 -0.6078 -0.3693
  783TIP3   OH223839   2.558   4.789   1.118  0.5543  0.4703 -0.4206
  783TIP3    H123840   2.519   4.703   1.106  0.9935  0.4565 -1.8959
  783TIP3    H223841   2.633   4.773   1.176  0.2229 -0.0102 -0.1121
  784TIP3   OH223842   0.304   1.125  13.607  0.1245 -0.1378  0.0958
  784TIP3    H123843   0.286   1.116  13.513  0.2332 -0.5431  0.1131
  784TIP3    H223844   0.395   1.099  13.617 -0.3689 -1.8034  0.5636
  785TIP3   OH223845   1.487   1.280  12.811  0.7071  0.6501  0.0969
  785TIP3    H123846   1.549   1.237  12.870 -1.3537 -0.3199  1.6691
  785TIP3    H223847   1.495   1.232  12.728  0.2176 -1.1994  1.0824
  786TIP3   OH223848   6.704   2.655  12.253  0.9893 -0.3453 -0.4416
  786TIP3    H123849   6.639   2.721  12.275  1.9795  0.7230 -0.5707
  786TIP3    H223850   6.679   2.625  12.166 -0.4700 -1.4461  0.3173
  787TIP3   OH223851   2.951   3.784   9.958 -0.5319  0.0933 -0.1622
  787TIP3    H123852   2.988   3.697   9.972 -0.4739  0.1338 -0.0627
  787TIP3    H223853   2.859   3.767   9.934 -0.2905 -0.0370 -1.0474
  788TIP3   OH223854   4.355   0.251   2.072  0.4859  0.2585  0.1437
  788TIP3    H123855   4.266   0.287   2.066  0.5168  0.4861  0.9586
  788TIP3    H223856   4.351   0.191   2.147  1.5155  1.7826  1.4753
  789TIP3   OH223857   1.529   3.850   9.856  0.4101 -0.0787  0.4216
  789TIP3    H123858   1.577   3.924   9.817 -0.0178  0.2427  0.4996
  789TIP3    H223859   1.589   3.776   9.846 -0.0358 -0.2140 -1.6702
  790TIP3   OH223860   2.759   0.536   1.649 -0.6064  0.7370  0.0881
  790TIP3    H123861   2.776   0.458   1.596 -1.6140  0.0844  0.6809
  790TIP3    H223862   2.689   0.582   1.602 -0.8785  0.6254  0.3782
  791TIP3   OH223863   3.380   2.030   0.735 -0.1488 -0.1057  0.3714
  791TIP3    H123864   3.292   2.004   0.760 -0.5500 -1.4111 -2.0716
  791TIP3    H223865   3.429   2.034   0.818 -2.5197  1.0166  1.8130
  792TIP3   OH223866   1.715   0.316  12.650 -0.0526 -0.6315 -0.1293
  792TIP3    H123867   1.776   0.309  12.724 -1.7882 -1.2281  1.3044
  792TIP3    H223868   1.771   0.305  12.573  1.9400  0.7264  1.0047
  793TIP3   OH223869   2.135   1.690  13.107  0.5469 -0.2603 -0.0135
  793TIP3    H123870   2.205   1.722  13.164  1.4495 -0.5648 -0.9139
  793TIP3    H223871   2.068   1.657  13.167  0.5783  1.2617  0.8862
  794TIP3   OH223872   0.584   0.912  10.107  0.0493  0.1488 -0.2865
  794TIP3    H123873   0.552   1.000  10.085  0.8337  0.7855  0.9797
  794TIP3    H223874   0.676   0.913  10.079 -0.4573 -1.0100 -2.1596
  795TIP3   OH223875   2.141   5.660  10.417  0.2208 -0.5249  0.6249
  795TIP3    H123876   2.054   5.686  10.387 -0.8218 -3.1503  1.0894
  795TIP3    H223877   2.191   5.645  10.337  0.2517  0.8544  0.3557
  796TIP3   OH223878   7.131   2.304  13.811 -0.2385  0.1835  0.6045
  796TIP3    H123879   7.083   2.284  13.731  1.7686 -0.4491 -0.4866
  796TIP3    H223880   7.109   2.233  13.871  1.9464 -2.0778 -1.0936
  797TIP3   OH223881   0.687   3.361   0.620  1.5251  0.2105 -0.2565
  797TIP3    H123882   0.609   3.330   0.574  0.7037  0.8541  0.6483
  797TIP3    H223883   0.659   3.370   0.711  1.1293  5.0156 -0.5984
  798TIP3   OH223884   4.365   1.745  12.339  0.2035 -0.4043  0.3736
  798TIP3    H123885   4.293   1.808  12.340 -0.6299 -1.2901 -0.8125
  798TIP3    H223886   4.356   1.697  12.422  0.3698  0.4872  0.9232
  799TIP3   OH223887   0.068   0.097   2.103  0.4863 -0.5599 -0.2949
  799TIP3    H123888   0.052   0.009   2.138  1.1061 -0.0206  1.4547
  799TIP3    H223889   0.017   0.155   2.159  1.0831  0.3126 -0.6286
  800TIP3   OH223890   6.394   2.454  13.373  0.1442  0.2184 -0.3096
  800TIP3    H123891   6.316   2.505  13.350  0.3860  0.1500 -1.3050
  800TIP3    H223892   6.392   2.450  13.469 -0.9786  0.3603 -0.3159
  801TIP3   OH223893   5.975   4.262  13.832  0.0483 -0.4843 -0.1542
  801TIP3    H123894   5.931   4.283  13.750  1.7394 -0.9150 -1.2151
  801TIP3    H223895   6.031   4.187  13.811  0.4841 -0.6286  1.4074
  802TIP3   OH223896   0.951   4.208   4.410  0.2434 -0.1432  0.0621
  802TIP3    H123897   0.876   4.210   4.470 -0.7995  1.0270 -1.2244
  802TIP3    H223898   0.986   4.297   4.414  3.0067 -1.1578  2.2859
  803TIP3   OH223899   2.320   4.043   1.738 -0.3080  0.0810  0.0433
  803TIP3    H123900   2.316   3.949   1.757  2.5874  0.1609  1.5589
  803TIP3    H223901   2.379   4.049   1.663 -0.6931  0.6929 -0.2114
  804TIP3   OH223902   3.841   5.360  10.107 -0.7542 -0.0167  0.9879
  804TIP3    H123903   3.787   5.427  10.149  1.2614  1.3408  1.5165
  804TIP3    H223904   3.868   5.302  10.178 -1.8253 -0.9666  0.6537
  805TIP3   OH223905   0.574   6.587   3.397 -0.1771 -0.7533 -0.3751
  805TIP3    H123906   0.585   6.603   3.491 -2.3353  0.5405 -0.2877
  805TIP3    H223907   0.555   6.673   3.360  2.4199 -0.9213 -2.3521
  806TIP3   OH223908   6.425   1.857  15.192 -0.3242 -0.2399  0.1213
  806TIP3    H123909   6.379   1.912  15.129 -1.7329 -1.0942  0.3641
  806TIP3    H223910   6.366   1.852  15.267  1.2572  0.6396  1.4888
  807TIP3   OH223911   1.192   1.830  14.495  0.0502  0.4738 -0.1841
  807TIP3    H123912   1.284   1.844  14.475  0.3484 -0.0031  0.8084
  807TIP3    H223913   1.146   1.861  14.417  1.1484 -1.4209 -1.6701
  808TIP3   OH223914   5.575   0.664  10.453 -0.0421  0.1124 -0.4288
  808TIP3    H123915   5.577   0.680  10.359 -1.5328 -1.2047 -0.7272
  808TIP3    H223916   5.482   0.665  10.476  0.1617 -1.5083  0.6444
  809TIP3   OH223917   6.608   0.698   2.475  0.2889 -0.4399 -0.0786
  809TIP3    H123918   6.658   0.693   2.393  3.4832  0.3879  1.6727
  809TIP3    H223919   6.517   0.702   2.446  1.2042 -1.0190 -3.5517
  810TIP3   OH223920   5.088   1.011  13.824 -0.2679  0.1533 -0.4329
  810TIP3    H123921   5.179   0.981  13.828 -0.6678 -1.0469  0.4452
  810TIP3    H223922   5.077   1.044  13.735  1.4138  1.6536 -0.1361
  811TIP3   OH223923   2.417   4.149  10.040  0.0032  0.2879  0.1857
  811TIP3    H123924   2.505   4.182  10.059 -0.0213 -0.2953  1.3964
  811TIP3    H223925   2.429   4.095   9.962  0.7341  0.2082  0.3374
  812TIP3   OH223926   3.725   3.227   0.917  0.3045  0.4767 -0.3896
  812TIP3    H123927   3.650   3.216   0.859 -0.7189  0.0059  0.9606
  812TIP3    H223928   3.692   3.278   0.991  1.5037  0.8734 -0.0898
  813TIP3   OH223929   6.438   4.426   1.890 -0.1601 -0.1032  0.2005
  813TIP3    H123930   6.496   4.350   1.897  2.0317  1.5521  1.1148
  813TIP3    H223931   6.418   4.433   1.796  2.0553 -0.1329 -0.3305
  814TIP3   OH223932   5.539   1.358  11.761 -0.6033  0.3863  0.1366
  814TIP3    H123933   5.568   1.449  11.759  0.4914  0.0460 -0.1838
  814TIP3    H223934   5.588   1.319  11.833  0.7276 -0.5019 -1.1909
  815TIP3   OH223935   0.480   4.396  12.873 -0.3755 -0.0712 -0.4337
  815TIP3    H123936   0.418   4.449  12.923 -1.4054 -1.5436 -0.0700
  815TIP3    H223937   0.434   4.378  12.791  0.5519  0.7767 -1.1597
  816TIP3   OH223938   2.663   3.919  11.877  0.0635  0.8928  0.4779
  816TIP3    H123939   2.615   3.844  11.843  4.6563 -1.0752 -2.6188
  816TIP3    H223940   2.615   3.995  11.843 -1.6248 -0.8000 -1.1742
  817TIP3   OH223941   6.869   2.249  11.484 -0.5013  0.4073  0.6026
  817TIP3    H123942   6.902   2.301  11.557 -0.1795 -0.7053  1.2733
  817TIP3    H223943   6.785   2.289  11.461 -0.6671  0.6939  1.6671
  818TIP3   OH223944   3.339   3.352  10.921 -0.1175  0.5722 -0.6959
  818TIP3    H123945   3.289   3.343  10.840 -2.6504 -0.7501  0.8822
  818TIP3    H223946   3.309   3.279  10.976  1.5261  1.3911  1.4322
  819TIP3   OH223947   5.369   6.444  12.436  0.0342 -0.0124  0.3541
  819TIP3    H123948   5.321   6.526  12.446 -0.5764 -0.4045  0.6865
  819TIP3    H223949   5.447   6.455  12.490  0.5710  0.8156 -0.5696
  820TIP3   OH223950   3.534   4.285  13.838 -0.1693  0.0804  0.0533
  820TIP3    H123951   3.556   4.375  13.861 -1.6583  0.4743  0.0630
  820TIP3    H223952   3.521   4.286  13.743  1.0672 -0.4257 -0.1352
  821TIP3   OH223953   1.695   0.359  13.331 -0.0013  0.5640  0.6254
  821TIP3    H123954   1.658   0.421  13.268  0.8618  0.5764  0.1186
  821TIP3    H223955   1.726   0.286  13.277  1.1029  0.7502  0.9888
  822TIP3   OH223956   4.653   2.050   1.098 -0.4460 -0.8636  0.3858
  822TIP3    H123957   4.577   2.108   1.106 -0.6380 -1.0456 -0.0531
  822TIP3    H223958   4.618   1.970   1.060  0.2590 -0.2630 -1.6785
  823TIP3   OH223959   6.647   4.423  11.934  0.5705  0.2613 -0.5498
  823TIP3    H123960   6.588   4.361  11.890  0.5089 -0.9810  1.1475
  823TIP3    H223961   6.615   4.424  12.025  2.9781 -0.2656  0.3749
  824TIP3   OH223962   4.095   1.793  14.623  0.1218 -0.1006  0.0245
  824TIP3    H123963   4.156   1.779  14.551 -0.5465 -1.6283 -0.2977
  824TIP3    H223964   4.145   1.773  14.702  1.5607  3.8261  0.3012
  825TIP3   OH223965   0.806   6.433  13.218 -0.2547  0.1332 -0.1461
  825TIP3    H123966   0.777   6.394  13.136 -0.7955  1.4094 -0.5880
  825TIP3    H223967   0.735   6.418  13.279 -0.0064 -0.4955 -0.0027
  826TIP3   OH223968   5.014   4.951  13.466  0.2962  0.2428  0.1642
  826TIP3    H123969   5.098   4.919  13.501 -0.7129 -0.8839  1.6860
  826TIP3    H223970   4.989   4.885  13.401  1.5156  1.6351 -1.8151
  827TIP3   OH223971   1.675   3.872  11.130  0.4092 -1.1060 -0.1870
  827TIP3    H123972   1.704   3.824  11.052  2.0219  0.1204 -0.3938
  827TIP3    H223973   1.633   3.806  11.185 -3.9239 -1.4806 -3.4571
  828TIP3   OH223974   3.900   1.759   2.223  0.6694  0.7251 -0.2644
  828TIP3    H123975   3.813   1.793   2.240  0.2160  0.0916 -1.2067
  828TIP3    H223976   3.921   1.705   2.299  0.1418  0.6857 -0.1468
  829TIP3   OH223977   1.867   1.168   0.237  0.8040  0.3179 -0.3247
  829TIP3    H123978   1.933   1.223   0.196 -0.1603  2.4038  0.7295
  829TIP3    H223979   1.792   1.226   0.249 -1.3844 -2.0202 -1.7326
  830TIP3   OH223980   0.886   1.696  11.315  0.2027 -0.3836 -0.6017
  830TIP3    H123981   0.936   1.621  11.284  1.4286 -1.2438  2.9475
  830TIP3    H223982   0.947   1.770  11.309  0.3469 -0.4936 -0.4923
  831TIP3   OH223983   3.699   3.907   1.408 -0.1863  0.3602 -0.4767
  831TIP3    H123984   3.759   3.909   1.483 -0.5902 -0.4905 -0.1118
  831TIP3    H223985   3.670   3.998   1.398 -2.6061  0.0958  2.4636
  832TIP3   OH223986   5.678   2.591  13.042  0.4935  0.0755  0.5992
  832TIP3    H123987   5.711   2.658  13.102 -0.8776  0.5737  0.8350
  832TIP3    H223988   5.589   2.619  13.022  0.8257 -0.2303 -1.4846
  833TIP3   OH223989   6.794   0.199  12.909  0.3379 -0.2460  0.2302
  833TIP3    H123990   6.832   0.278  12.871 -1.8678  1.8907  2.1066
  833TIP3    H223991   6.867   0.155  12.953  1.6695  0.5866 -1.0820
  834TIP3   OH223992   1.356   1.769   9.395 -0.0181  0.3487 -0.1281
  834TIP3    H123993   1.264   1.794   9.390 -0.4403 -0.8326  1.0879
  834TIP3    H223994   1.360   1.684   9.350  0.1913 -0.2129  0.8943
  835TIP3   OH223995   4.214   6.683  15.721 -0.7110  0.5243  0.0315
  835TIP3    H123996   4.191   6.652  15.808 -0.6822 -0.7635 -0.3875
  835TIP3    H223997   4.131   6.687  15.674 -0.7482  1.3817  0.1603
  836TIP3   OH223998   3.994   5.412  13.831 -0.2218 -0.4847 -0.3165
  836TIP3    H123999   3.930   5.470  13.873  0.0766 -1.0895  1.0336
  836TIP3    H224000   4.075   5.463  13.829 -0.2271 -0.4675 -0.1189
  837TIP3   OH224001   6.332   7.011  11.351 -0.0672 -0.2829 -0.4563
  837TIP3    H124002   6.360   7.064  11.276 -1.1766 -0.4781 -1.0384
  837TIP3    H224003   6.239   7.032  11.361 -0.0849 -0.7636  0.4512
  838TIP3   OH224004   5.677   3.512   4.265  0.4753 -0.2656 -0.2831
  838TIP3    H124005   5.736   3.484   4.194  0.0333 -2.5491  0.1784
  838TIP3    H224006   5.591   3.515   4.224  0.3221 -0.9430 -0.0307
  839TIP3   OH224007   2.883   5.850   4.141 -0.5195  0.3221 -0.6170
  839TIP3    H124008   2.851   5.769   4.101 -1.5195  0.1149  0.5557
  839TIP3    H224009   2.820   5.917   4.111 -0.9567  0.2619  0.1369
  840TIP3   OH224010   6.459   4.305  15.141 -0.2943 -0.5920 -0.0296
  840TIP3    H124011   6.408   4.337  15.215 -1.2523 -1.1791 -0.4146
  840TIP3    H224012   6.533   4.260  15.180 -0.5769 -0.5443  0.5700
  841TIP3   OH224013   2.677   4.683  12.990  0.1973 -0.4816 -0.9405
  841TIP3    H124014   2.757   4.682  12.937  2.0159  2.7789  1.3788
  841TIP3    H224015   2.705   4.656  13.077 -0.7609  2.1607  0.3071
  842TIP3   OH224016   3.438   4.563  12.356 -0.8918 -0.1964 -0.2649
  842TIP3    H124017   3.509   4.577  12.293 -0.3903  0.2352  0.3828
  842TIP3    H224018   3.394   4.648  12.363 -0.1971  0.1010  0.8449
  843TIP3   OH224019   1.480   4.125  12.060  0.0267  0.1924  0.2667
  843TIP3    H124020   1.537   4.057  12.096 -1.8907 -1.0356  1.2063
  843TIP3    H224021   1.512   4.139  11.971  1.2022 -1.1212  0.4489
  844TIP3   OH224022   5.677   0.760  11.339 -0.6580  0.7810  0.1714
  844TIP3    H124023   5.695   0.733  11.429 -1.6469 -2.1131 -0.3757
  844TIP3    H224024   5.585   0.788  11.341 -1.2438 -0.9607 -0.1762
  845TIP3   OH224025   1.851   2.364   2.401  0.3101 -0.2221  0.0543
  845TIP3    H124026   1.819   2.440   2.353 -0.4296 -0.7775 -0.3618
  845TIP3    H224027   1.937   2.390   2.434 -0.6390  1.4143  1.4135
  846TIP3   OH224028   0.817   0.325   1.346  0.6243 -0.8251  0.4150
  846TIP3    H124029   0.783   0.408   1.379  1.2430 -0.0198 -0.8807
  846TIP3    H224030   0.749   0.261   1.367 -1.4466  0.6140 -1.4874
  847TIP3   OH224031   3.104   0.069  10.294 -0.1170  0.5170 -0.0643
  847TIP3    H124032   3.194   0.044  10.273 -0.0861  0.5415  0.0405
  847TIP3    H224033   3.053  -0.011  10.278 -0.0936  0.5374 -0.2374
  848TIP3   OH224034   0.698   4.055  11.238  0.1322 -0.6883 -0.3151
  848TIP3    H124035   0.603   4.051  11.245  0.2549 -1.2780  1.3160
  848TIP3    H224036   0.718   4.014  11.154 -0.9568 -2.1640  0.1094
  849TIP3   OH224037   5.727   5.529   0.950 -0.3343  0.7484 -0.0021
  849TIP3    H124038   5.730   5.591   0.877 -0.1852  0.2563 -0.4226
  849TIP3    H224039   5.665   5.567   1.011  0.0524  1.5103 -0.0714
  850TIP3   OH224040   6.631   7.145  14.037 -0.2568 -0.2668 -0.0152
  850TIP3    H124041   6.636   7.061  14.083  1.0716  0.9559  2.2297
  850TIP3    H224042   6.542   7.176  14.054  0.3419  0.3795  2.2912
  851TIP3   OH224043   5.932   6.918   0.930 -0.6668  0.0799 -0.0186
  851TIP3    H124044   6.013   6.950   0.969  0.4317 -2.4948  0.0117
  851TIP3    H224045   5.941   6.933   0.836 -0.5959  0.6813  0.0835
  852TIP3   OH224046   1.241   4.799  14.130  0.1944  0.4635 -0.2937
  852TIP3    H124047   1.227   4.893  14.142  0.4920  0.4058  0.5746
  852TIP3    H224048   1.155   4.766  14.104 -0.2013  0.7967  0.5581
  853TIP3   OH224049   1.575   2.341  14.077 -0.3325 -0.5901  0.0101
  853TIP3    H124050   1.586   2.430  14.045  0.3777 -0.5339  0.4033
  853TIP3    H224051   1.663   2.311  14.097 -0.6185 -1.1757  0.4334
  854TIP3   OH224052   5.666   1.868  14.382 -0.1063 -0.2062  0.0685
  854TIP3    H124053   5.702   1.938  14.436  1.4036 -0.6287 -0.3414
  854TIP3    H224054   5.576   1.896  14.363  0.1925  1.2016  0.6060
  855TIP3   OH224055   7.094   7.064  11.789 -0.5420 -0.2049 -0.7734
  855TIP3    H124056   7.003   7.058  11.762 -1.0542 -0.7043  0.9422
  855TIP3    H224057   7.094   7.040  11.882  0.9422  2.5176  0.0360
  856TIP3   OH224058   0.176   6.844   2.241  0.3379  0.3452  0.6231
  856TIP3    H124059   0.255   6.860   2.189 -0.3756  1.8108 -0.0757
  856TIP3    H224060   0.163   6.749   2.236  2.5573 -0.1016  1.5699
  857TIP3   OH224061   2.801   6.511  14.721  0.3095 -0.2859  0.9715
  857TIP3    H124062   2.840   6.507  14.809  2.1009  1.4812  0.3392
  857TIP3    H224063   2.800   6.605  14.700 -1.8594 -0.5006 -0.1810
  858TIP3   OH224064   0.558   6.063  14.883  0.5001  0.0507  0.0292
  858TIP3    H124065   0.588   6.049  14.793 -0.7170  0.2538 -0.4217
  858TIP3    H224066   0.609   6.137  14.914  1.9509 -0.8960  0.0197
  859TIP3   OH224067   3.127   1.478   2.913  1.1196  0.1997  0.2003
  859TIP3    H124068   3.150   1.517   2.829  0.5065  1.1506  0.4636
  859TIP3    H224069   3.099   1.552   2.967  0.3575 -0.5434  0.8495
  860TIP3   OH224070   2.065   7.103  12.221  0.2638  0.6512  0.1822
  860TIP3    H124071   2.050   7.123  12.313  1.7564  0.0206  0.5853
  860TIP3    H224072   2.151   7.061  12.219 -0.2082 -0.3415 -1.3531
  861TIP3   OH224073   1.279   2.160   9.650 -0.1796  0.2014  0.0104
  861TIP3    H124074   1.210   2.142   9.587  0.4684 -2.6067 -0.0282
  861TIP3    H224075   1.358   2.123   9.612  0.9051  1.2538  1.1016
  862TIP3   OH224076   6.098   2.174  14.157 -0.7735 -0.5743 -0.0825
  862TIP3    H124077   6.080   2.168  14.251  0.6184 -0.9900  0.1727
  862TIP3    H224078   6.052   2.099  14.119 -1.8400 -0.0716  0.1660
  863TIP3   OH224079   3.176   3.016  10.944  0.4231 -0.0445  0.5657
  863TIP3    H124080   3.214   3.009  10.856 -0.9515 -0.3520 -0.0291
  863TIP3    H224081   3.119   3.093  10.939  0.0953 -0.2493  1.0897
  864TIP3   OH224082   3.264   7.013  12.312  0.0421  0.0754  0.5282
  864TIP3    H124083   3.356   7.025  12.336 -0.2531  1.6595  1.0166
  864TIP3    H224084   3.263   6.935  12.258  1.7957  0.4504 -0.1133
  865TIP3   OH224085   4.775   4.875  11.442  0.3567  0.0756  0.6188
  865TIP3    H124086   4.723   4.942  11.398  0.8480 -0.8308 -1.5125
  865TIP3    H224087   4.730   4.793  11.422  1.9396 -0.6108 -0.3386
  866TIP3   OH224088   1.425   3.360  13.615  0.0825  0.2562 -0.2006
  866TIP3    H124089   1.359   3.426  13.593 -0.8261 -0.1128  1.3221
  866TIP3    H224090   1.405   3.334  13.704  1.9962 -0.2487  0.1324
  867TIP3   OH224091   2.450   2.522   4.641 -0.0749 -0.3052 -0.2113
  867TIP3    H124092   2.457   2.476   4.557 -0.0611 -1.2001  0.2621
  867TIP3    H224093   2.426   2.453   4.703 -2.2111  0.7004  0.1627
  868TIP3   OH224094   3.507   2.615  10.884 -0.1105  0.2869  0.2741
  868TIP3    H124095   3.413   2.607  10.898 -0.2441 -1.2871 -1.1882
  868TIP3    H224096   3.529   2.541  10.827  1.8558  1.1432 -0.1580
  869TIP3   OH224097   2.776   5.357  12.868 -0.6737 -0.5346 -0.0474
  869TIP3    H124098   2.810   5.271  12.890 -1.3637 -0.9954 -0.7224
  869TIP3    H224099   2.834   5.419  12.914 -0.3846 -1.3582  0.7169
  870TIP3   OH224100   3.352   5.284  10.587 -0.0489  0.1014  0.1426
  870TIP3    H124101   3.419   5.322  10.644 -1.0179  0.3900  1.1329
  870TIP3    H224102   3.326   5.203  10.631 -0.6819  0.2343  0.0209
  871TIP3   OH224103   1.442   1.995   9.514 -0.2363 -0.3583 -0.2423
  871TIP3    H124104   1.412   1.949   9.435 -1.0586 -1.8222  0.8626
  871TIP3    H224105   1.485   1.927   9.566 -0.7961  0.2895  1.1090
  872TIP3   OH224106   5.721   1.476  11.080 -0.3817  0.0117 -0.6004
  872TIP3    H124107   5.714   1.393  11.031 -1.6629  0.3492 -1.0412
  872TIP3    H224108   5.778   1.531  11.026  0.8759 -0.7269 -0.0669
  873TIP3   OH224109   1.026   1.020  13.926 -0.1363  0.3785 -0.2709
  873TIP3    H124110   1.038   0.952  13.860  0.0211  0.2191 -0.0798
  873TIP3    H224111   1.000   0.973  14.006  0.3192  0.5052 -0.0438
  874TIP3   OH224112   3.735   4.081  11.384  0.0678 -0.7005  0.4654
  874TIP3    H124113   3.754   3.989  11.399  1.5447 -0.4912  0.0167
  874TIP3    H224114   3.692   4.110  11.464  2.2654 -1.0870  1.8777
  875TIP3   OH224115   1.270   6.458  15.445 -0.1497  0.3989  0.1232
  875TIP3    H124116   1.198   6.446  15.383  0.7773 -0.3328 -0.8588
  875TIP3    H224117   1.340   6.402  15.411  0.9457  1.2299  0.9468
  876TIP3   OH224118   6.329   2.487   5.196 -0.0112  0.1647  0.0693
  876TIP3    H124119   6.375   2.538   5.129  0.1866  2.3519  1.7390
  876TIP3    H224120   6.287   2.553   5.250  0.2015 -1.4857  2.3641
  877TIP3   OH224121   0.634   2.645  10.297  0.3321 -0.4500 -0.4125
  877TIP3    H124122   0.698   2.577  10.317 -0.5295 -0.8465  1.2138
  877TIP3    H224123   0.553   2.596  10.279 -0.0137  0.1080 -0.3865
  878TIP3   OH224124   3.433   3.556  11.199  0.0306 -0.1692  0.2398
  878TIP3    H124125   3.359   3.499  11.218 -0.3847  0.6272  1.1169
  878TIP3    H224126   3.411   3.595  11.114 -1.0447  0.7643  0.9105
  879TIP3   OH224127   3.992   2.164  12.847 -0.1325 -0.7018 -0.1981
  879TIP3    H124128   4.053   2.097  12.817 -0.4990 -0.4492 -1.5916
  879TIP3    H224129   3.976   2.218  12.769 -0.3072  0.6436  0.7404
  880TIP3   OH224130   3.011   1.811   9.693 -0.3143  0.3474 -0.1705
  880TIP3    H124131   2.968   1.846   9.771 -1.1345  0.0399 -0.4748
  880TIP3    H224132   2.943   1.762   9.648  0.5509 -0.7730 -0.2939
  881TIP3   OH224133   2.955   0.103  14.185 -0.7250 -0.7740 -0.4100
  881TIP3    H124134   2.969   0.171  14.118  0.5394 -0.5117  0.0955
  881TIP3    H224135   2.913   0.149  14.257  2.8543  0.2960  1.2036
  882TIP3   OH224136   4.690   0.588  14.364 -0.2875 -0.2881 -0.2905
  882TIP3    H124137   4.645   0.507  14.340  0.8715 -0.0417 -3.9794
  882TIP3    H224138   4.778   0.578  14.326 -0.1370  2.6810 -0.9277
  883TIP3   OH224139   5.855   6.408   0.806 -0.4817 -0.2034 -0.1937
  883TIP3    H124140   5.823   6.473   0.745 -2.0638 -1.4358 -0.7570
  883TIP3    H224141   5.936   6.375   0.767  0.2302  1.2304  0.0071
  884TIP3   OH224142   0.438   6.758  12.982  0.4108  0.6130 -0.0412
  884TIP3    H124143   0.452   6.687  12.920 -1.3005  0.4207 -0.2569
  884TIP3    H224144   0.526   6.788  13.005  1.0888  0.7633 -2.6003
  885TIP3   OH224145   1.534   2.098   1.385  0.0663  0.1477 -0.1396
  885TIP3    H124146   1.538   2.028   1.321 -0.8938 -1.2084  1.2061
  885TIP3    H224147   1.617   2.092   1.433  1.0706  1.5718 -1.5707
  886TIP3   OH224148   4.392   6.688  15.364  0.3588 -0.2472 -0.1936
  886TIP3    H124149   4.453   6.735  15.420 -0.2517 -0.4609  0.6719
  886TIP3    H224150   4.410   6.722  15.276  2.8748 -1.5163 -0.2661
  887TIP3   OH224151   3.521   2.903   1.203 -0.4736 -0.1187  0.4838
  887TIP3    H124152   3.538   2.880   1.294 -0.1569 -0.4880  0.3286
  887TIP3    H224153   3.580   2.849   1.152  0.6806  1.3907  0.1289
  888TIP3   OH224154   6.922   2.534   9.308  0.0199 -0.3008  0.3690
  888TIP3    H124155   6.870   2.511   9.231  0.1728  0.3317  0.0695
  888TIP3    H224156   6.976   2.457   9.325 -0.1948 -0.5368 -0.0036
  889TIP3   OH224157   5.724   4.329  14.992  0.1821  0.0045 -0.0480
  889TIP3    H124158   5.741   4.422  14.979  0.1012 -0.2705 -2.9743
  889TIP3    H224159   5.632   4.318  14.968  0.6556 -1.0334 -1.5514
  890TIP3   OH224160   5.698   0.356  10.844 -0.9270 -0.2516 -0.8784
  890TIP3    H124161   5.673   0.344  10.753 -1.7195 -0.5466 -0.6339
  890TIP3    H224162   5.742   0.441  10.847  0.9528 -1.1230 -1.8921
  891TIP3   OH224163   5.365   4.010  13.361  0.8778  0.0712  0.1931
  891TIP3    H124164   5.284   3.959  13.360  1.8706 -1.6192 -1.2171
  891TIP3    H224165   5.347   4.085  13.304  0.4635 -0.5883 -0.5600
  892TIP3   OH224166   5.379   1.127  10.724 -0.3994 -0.4895  0.2580
  892TIP3    H124167   5.323   1.203  10.738 -0.0163  0.1104 -1.2517
  892TIP3    H224168   5.319   1.054  10.715 -0.8816 -0.0659 -0.0120
  893TIP3   OH224169   2.555   2.854   4.912 -0.0865 -0.0254  0.0416
  893TIP3    H124170   2.642   2.892   4.925  0.1390 -0.3579 -0.4571
  893TIP3    H224171   2.572   2.763   4.886 -0.6346 -0.7597  2.0779
  894TIP3   OH224172   3.031   6.280  13.229  0.0026 -0.0380 -0.3798
  894TIP3    H124173   3.021   6.225  13.307  0.0302  0.4673 -0.0138
  894TIP3    H224174   3.109   6.247  13.185  2.0385  1.7788  1.6038
  895TIP3   OH224175   6.153   4.193  11.487 -0.2093  0.6562  0.0222
  895TIP3    H124176   6.063   4.210  11.459 -1.0741 -0.6358  1.8039
  895TIP3    H224177   6.181   4.276  11.528 -0.8596  0.8430  0.1031
  896TIP3   OH224178   1.730   5.682   5.415 -0.0127  0.0052 -0.7813
  896TIP3    H124179   1.766   5.693   5.327  1.5941  0.5759 -0.0972
  896TIP3    H224180   1.713   5.771   5.445 -0.1158 -0.1608 -0.3433
  897TIP3   OH224181   1.234   5.224  15.029 -0.1863  0.9402 -0.0849
  897TIP3    H124182   1.268   5.313  15.023  0.5945  0.6033 -1.0076
  897TIP3    H224183   1.235   5.193  14.938 -0.3973 -0.0243  0.2359
  898TIP3   OH224184   0.615   1.445  15.123  0.1739  0.2396 -0.2925
  898TIP3    H124185   0.606   1.360  15.166 -1.0625  0.1693 -0.6565
  898TIP3    H224186   0.650   1.503  15.191  1.0304 -0.5439 -0.0417
  899TIP3   OH224187   4.590   3.059  13.124 -0.2118 -0.3921  0.2678
  899TIP3    H124188   4.683   3.036  13.121 -0.2928 -0.6496 -2.2425
  899TIP3    H224189   4.547   2.984  13.164  0.7033  0.0171  2.0969
  900TIP3   OH224190   4.319   1.220  12.817  0.1571  0.2067  0.0009
  900TIP3    H124191   4.374   1.277  12.871  0.7170  0.2410 -0.5884
  900TIP3    H224192   4.369   1.209  12.736  0.1757 -1.3454  0.2031
  901TIP3   OH224193   5.255   2.250   1.940 -0.1247  0.5157  0.0605
  901TIP3    H124194   5.300   2.333   1.922  0.1303  0.3140 -0.2391
  901TIP3    H224195   5.162   2.269   1.925 -0.2382  1.1497  1.4575
  902TIP3   OH224196   1.179   7.040  13.875 -0.4383  0.5607  0.4764
  902TIP3    H124197   1.100   7.059  13.925 -1.3060 -0.7036 -0.3452
  902TIP3    H224198   1.201   6.950  13.898  0.3006  0.6389  0.1027
  903TIP3   OH224199   0.534   5.556  13.496 -0.5235 -0.1954  0.2659
  903TIP3    H124200   0.624   5.566  13.527 -0.4961  0.5001 -0.0097
  903TIP3    H224201   0.529   5.468  13.460  0.3833  0.1672 -0.7866
  904TIP3   OH224202   7.018   1.847  14.734  0.3309  0.1289 -0.2662
  904TIP3    H124203   6.933   1.815  14.703 -0.3126  0.3750  1.1865
  904TIP3    H224204   6.997   1.909  14.804  1.7192 -0.2312  0.5090
  905TIP3   OH224205   5.385   2.974  13.783  0.2897 -0.0066  0.4053
  905TIP3    H124206   5.308   2.924  13.811  1.4338 -1.0452  1.8391
  905TIP3    H224207   5.442   2.974  13.859  2.5690 -0.9532 -1.2103
  906TIP3   OH224208   2.417   0.166   3.965 -0.0691 -0.3305  0.3609
  906TIP3    H124209   2.511   0.180   3.975 -0.0624 -0.5489  0.6063
  906TIP3    H224210   2.380   0.254   3.963 -0.3458 -0.1543  4.7004
  907TIP3   OH224211   3.635   2.961  11.393  0.3908 -0.0416  0.5813
  907TIP3    H124212   3.570   3.018  11.352  1.3413 -0.0958 -1.0979
  907TIP3    H224213   3.719   2.997  11.365  1.0483 -1.0792  1.1481
  908TIP3   OH224214   0.386   5.938   9.954  0.1588 -0.4424  0.0092
  908TIP3    H124215   0.408   5.902   9.869  0.6574  1.1441 -0.5655
  908TIP3    H224216   0.467   5.933  10.005  0.6991  1.2379 -0.6045
  909TIP3   OH224217   7.132   3.912   5.880  0.1125 -0.1678  0.2859
  909TIP3    H124218   7.052   3.926   5.930  0.4466 -1.2068  1.1475
  909TIP3    H224219   7.141   3.991   5.826 -0.2606  0.9967  1.8415
  910TIP3   OH224220   3.141   2.155  13.203  0.6179 -0.0058 -0.5394
  910TIP3    H124221   3.070   2.190  13.150  0.0259 -1.3265 -0.6606
  910TIP3    H224222   3.221   2.191  13.164  0.0184  3.6702  1.1667
  911TIP3   OH224223   7.048   2.735   2.814  0.8234  0.2341  0.2145
  911TIP3    H124224   7.006   2.800   2.870  0.5691  1.5761 -1.4151
  911TIP3    H224225   7.043   2.653   2.863 -0.9766  0.9592  1.3572
  912TIP3   OH224226   2.138   2.130   2.107  0.3654 -0.5646 -0.3664
  912TIP3    H124227   2.089   2.154   2.028  0.6189  1.2229 -0.0176
  912TIP3    H224228   2.070   2.109   2.172 -0.2241  3.8739  0.7576
  913TIP3   OH224229   1.574   5.210   2.153 -0.3497  0.0695  0.0016
  913TIP3    H124230   1.647   5.158   2.185  0.5459  0.1259 -1.8497
  913TIP3    H224231   1.560   5.276   2.221  2.2883  0.9913 -0.2670
  914TIP3   OH224232   2.927   5.374  13.319 -0.1128 -0.5209 -0.1783
  914TIP3    H124233   2.868   5.313  13.275  0.7244 -0.5438 -1.3119
  914TIP3    H224234   2.873   5.416  13.385 -0.9425 -1.8010 -0.0138
  915TIP3   OH224235   3.872   0.587  14.343 -0.2293 -0.1230  0.0653
  915TIP3    H124236   3.859   0.496  14.317  0.0442 -0.7214  1.8656
  915TIP3    H224237   3.788   0.630  14.325 -0.1255 -0.5214 -1.5004
  916TIP3   OH224238   3.283   0.710   0.115 -0.1735  0.2114 -0.1160
  916TIP3    H124239   3.314   0.800   0.113  0.2069  0.1813  1.8006
  916TIP3    H224240   3.191   0.716   0.087 -0.1001  1.1628 -0.1919
  917TIP3   OH224241   4.066   2.666   0.923 -0.0726  0.2392  0.4272
  917TIP3    H124242   4.159   2.675   0.946  1.1347 -1.0102 -3.3041
  917TIP3    H224243   4.030   2.612   0.993  2.2200 -0.0478  1.5051
  918TIP3   OH224244   6.535   1.380  14.339 -0.0796 -0.4015  0.1581
  918TIP3    H124245   6.580   1.307  14.381  0.6276  0.5950  1.1886
  918TIP3    H224246   6.474   1.339  14.278  1.1446 -1.8291 -0.1608
  919TIP3   OH224247   5.629   3.635  15.309 -0.0383 -0.1021  0.4859
  919TIP3    H124248   5.546   3.629  15.358  0.7136 -0.6042  1.7517
  919TIP3    H224249   5.664   3.721  15.334 -0.6117  0.5259 -0.8012
  920TIP3   OH224250   4.527   6.665   3.909 -0.2181  0.1266 -0.2066
  920TIP3    H124251   4.543   6.717   3.831  1.7181  2.0815  1.3827
  920TIP3    H224252   4.477   6.722   3.967 -1.3071 -1.1544  0.1711
  921TIP3   OH224253   4.976   6.369  12.141 -0.2042 -0.2278  0.5407
  921TIP3    H124254   4.889   6.388  12.176 -0.1219 -0.1509  0.7032
  921TIP3    H224255   4.960   6.312  12.066 -0.3218 -1.2622  1.3347
  922TIP3   OH224256   1.745   2.468   9.957 -0.2148  0.1995 -0.7975
  922TIP3    H124257   1.770   2.535   9.893 -1.5972  0.9727 -0.5731
  922TIP3    H224258   1.761   2.385   9.912  1.5463  0.6467 -1.0788
  923TIP3   OH224259   6.753   2.590  11.903  0.2051  0.2690 -0.0912
  923TIP3    H124260   6.698   2.518  11.873  1.0822 -0.1410 -0.7823
  923TIP3    H224261   6.842   2.563  11.880  0.5484  1.6216 -0.4437
  924TIP3   OH224262   4.286   0.156  15.167 -0.2955  0.3614 -0.2104
  924TIP3    H124263   4.332   0.217  15.225 -1.3980  0.5643  0.4932
  924TIP3    H224264   4.193   0.172  15.185 -0.6212 -0.9487 -0.6173
  925TIP3   OH224265   7.001   1.529   0.856  0.0161  0.0603 -0.3044
  925TIP3    H124266   7.049   1.597   0.904  0.8536 -1.0977  0.5692
  925TIP3    H224267   6.913   1.565   0.845  0.3477  1.1521  0.4223
  926TIP3   OH224268   4.216   3.304  13.794 -0.2567 -0.2087 -0.0728
  926TIP3    H124269   4.174   3.365  13.732  1.7752  1.8657  0.4284
  926TIP3    H224270   4.310   3.316  13.778  0.2543 -1.4305  1.7746
  927TIP3   OH224271   1.047   0.641  11.232  0.5621  0.6806  0.0754
  927TIP3    H124272   1.058   0.707  11.301 -0.4212 -0.2131  1.1336
  927TIP3    H224273   1.058   0.689  11.150 -2.6455  2.7370  0.6789
  928TIP3   OH224274   5.174   4.547  14.151  0.0196  0.2070  0.5410
  928TIP3    H124275   5.198   4.582  14.065 -2.6334 -3.8491 -2.2568
  928TIP3    H224276   5.122   4.616  14.192  1.0150  2.1439 -1.2793
  929TIP3   OH224277   2.001   1.584  14.446  0.4637 -0.5891 -0.0951
  929TIP3    H124278   1.921   1.605  14.398  0.4834 -1.8365 -0.7182
  929TIP3    H224279   2.068   1.576  14.378  0.8394 -0.8252  0.2969
  930TIP3   OH224280   3.464   1.378   0.957 -0.6437 -0.3922  0.2278
  930TIP3    H124281   3.440   1.435   0.885 -0.5670 -1.6542 -0.8401
  930TIP3    H224282   3.412   1.409   1.031  0.5973  2.0608  0.1513
  931TIP3   OH224283   5.887   6.749  15.558 -0.1746 -0.1077  0.7676
  931TIP3    H124284   5.907   6.658  15.580  1.2754 -0.8569 -2.8750
  931TIP3    H224285   5.816   6.744  15.494  1.5862  0.9890 -1.4153
  932TIP3   OH224286   2.485   5.635  12.847 -0.5852 -0.6711  0.1043
  932TIP3    H124287   2.525   5.646  12.933 -0.2029 -0.6074 -0.0794
  932TIP3    H224288   2.413   5.573  12.862 -1.1134  0.0495  0.6406
  933TIP3   OH224289   2.814   5.593  11.310 -0.1802 -0.2774  0.6290
  933TIP3    H124290   2.878   5.579  11.240 -0.4712  0.4599  0.2033
  933TIP3    H224291   2.838   5.529  11.377 -0.9388 -2.2044 -0.8400
  934TIP3   OH224292   3.621   5.222   3.616 -0.2332  0.9199 -0.0882
  934TIP3    H124293   3.582   5.149   3.664  1.3072  0.5848  0.7265
  934TIP3    H224294   3.548   5.261   3.569 -0.9581 -1.7812 -1.4125
  935TIP3   OH224295   2.529   4.517  14.670 -0.4265  0.2130  0.6167
  935TIP3    H124296   2.609   4.563  14.696  0.3944  0.3884 -1.9112
  935TIP3    H224297   2.460   4.581  14.680 -0.1019  0.4094  1.7793
  936TIP3   OH224298   7.079   5.299  10.577  0.2740  0.0478  0.7545
  936TIP3    H124299   7.026   5.220  10.586  0.6652 -0.0872  1.8889
  936TIP3    H224300   7.025   5.357  10.522 -0.3955 -0.6505  0.6582
  937TIP3   OH224301   0.450   3.990  13.133  0.0582 -0.3227  0.1116
  937TIP3    H124302   0.413   3.910  13.168 -0.1609  0.1984  1.1242
  937TIP3    H224303   0.545   3.974  13.131  0.1706 -0.0818  1.8044
  938TIP3   OH224304   1.271   6.165  13.559 -0.2188  0.1297 -0.8907
  938TIP3    H124305   1.219   6.133  13.485  0.6521  1.7963 -2.2909
  938TIP3    H224306   1.353   6.116  13.553 -0.6439 -0.6914 -0.1964
  939TIP3   OH224307   2.251   4.634   1.398  0.2926  0.3489  0.0727
  939TIP3    H124308   2.321   4.688   1.435  0.8856 -0.8791  0.8180
  939TIP3    H224309   2.291   4.590   1.323  0.3420 -0.3745  0.5139
  940TIP3   OH224310   1.443   6.975  12.120 -0.1295  0.1694  0.3524
  940TIP3    H124311   1.348   6.977  12.118 -0.1427 -0.4217 -0.0437
  940TIP3    H224312   1.467   7.017  12.203 -0.7551 -0.2455  0.7512
  941TIP3   OH224313   3.040   1.744   3.441  0.0199  0.3246 -0.3383
  941TIP3    H124314   3.120   1.765   3.393 -0.0674  1.5493  0.0149
  941TIP3    H224315   2.987   1.694   3.380  0.8605 -0.0937 -0.7340
  942TIP3   OH224316   0.806   0.897  13.082 -0.5997  0.2306  0.7368
  942TIP3    H124317   0.875   0.835  13.108  0.1374  0.2654 -1.0196
  942TIP3    H224318   0.839   0.982  13.110 -0.9274  0.0317  1.7933
  943TIP3   OH224319   3.945   4.035  14.442  0.3312 -0.1949 -0.1661
  943TIP3    H124320   4.038   4.044  14.462 -0.0603 -0.0069  1.8645
  943TIP3    H224321   3.916   3.962  14.497 -0.3093 -1.7250 -2.4214
  944TIP3   OH224322   5.917   4.703  11.243  0.7234  0.2663  0.4758
  944TIP3    H124323   6.009   4.714  11.220  1.1265 -1.7972  0.8622
  944TIP3    H224324   5.913   4.615  11.281 -1.6977 -0.4036 -1.1228
  945TIP3   OH224325   0.041   5.880  13.938 -0.4444  0.1055  0.0667
  945TIP3    H124326  -0.025   5.818  13.909 -0.1448  0.0001 -0.4059
  945TIP3    H224327   0.122   5.849  13.898  0.0145 -0.1134  1.1158
  946TIP3   OH224328   3.829   3.126   2.234 -0.2069  0.1461 -0.1960
  946TIP3    H124329   3.766   3.056   2.214  0.9522 -1.1685  0.5504
  946TIP3    H224330   3.870   3.098   2.316 -0.3869  2.2255  0.6539
  947TIP3   OH224331   4.705   2.200  12.555 -0.6469  0.0820  0.3071
  947TIP3    H124332   4.720   2.179  12.463  0.7385 -1.0616  0.7584
  947TIP3    H224333   4.613   2.224  12.559 -0.3900  1.6978 -1.6398
  948TIP3   OH224334   5.260   2.144  11.465 -1.0466  1.1811 -0.1909
  948TIP3    H124335   5.255   2.204  11.390 -2.3103  1.4302  0.0733
  948TIP3    H224336   5.327   2.182  11.521  0.1229  0.8458 -1.2954
  949TIP3   OH224337   6.670   0.047  12.074 -0.1693  0.1696 -0.2936
  949TIP3    H124338   6.594   0.079  12.027 -2.2337 -0.1238  2.5538
  949TIP3    H224339   6.743   0.097  12.039 -1.8036  1.1801 -2.4678
  950TIP3   OH224340   3.649   1.346  15.396  0.0741 -0.0650  0.1953
  950TIP3    H124341   3.676   1.438  15.387 -0.8767  0.3105  1.0295
  950TIP3    H224342   3.702   1.313  15.468  0.8215 -0.3537 -0.4639
  951TIP3   OH224343   2.094   6.247  15.055  0.5283 -0.1952 -0.6698
  951TIP3    H124344   2.066   6.275  15.142 -1.6731 -1.5577 -0.8777
  951TIP3    H224345   2.154   6.174  15.071  0.3003 -0.3010 -0.2846
  952TIP3   OH224346   3.256   4.321  10.358  0.4571  0.0254 -0.2804
  952TIP3    H124347   3.299   4.310  10.273 -1.1862 -0.9558 -1.0494
  952TIP3    H224348   3.284   4.245  10.409 -0.6658 -0.9003 -0.9651
  953TIP3   OH224349   4.097   0.393  10.123  0.2321 -0.1348 -0.5297
  953TIP3    H124350   4.058   0.469  10.079  1.0226  0.7187  0.2035
  953TIP3    H224351   4.172   0.369  10.067  0.6481  0.3382 -0.1898
  954TIP3   OH224352   1.279   6.120  14.426  0.3844  0.0649  0.5904
  954TIP3    H124353   1.205   6.135  14.485  0.8930  0.0425  1.2475
  954TIP3    H224354   1.321   6.041  14.461 -0.9604 -1.6854 -1.4923
  955TIP3   OH224355   0.679   5.700  15.618 -0.3080  0.5247 -0.6228
  955TIP3    H124356   0.654   5.632  15.680 -0.1094  1.5717  0.6403
  955TIP3    H224357   0.746   5.659  15.563  1.1987  0.2464  1.3415
  956TIP3   OH224358   1.255   1.591  12.003  0.3235 -0.5807  0.1182
  956TIP3    H124359   1.346   1.565  12.021  0.6316  0.3306 -0.0649
  956TIP3    H224360   1.252   1.684  12.026 -0.7613 -0.7743  0.8021
  957TIP3   OH224361   3.681   0.274  11.892 -0.2276 -0.5423 -0.4351
  957TIP3    H124362   3.743   0.249  11.823  0.9618  0.6950  0.1511
  957TIP3    H224363   3.719   0.352  11.932 -0.6113 -1.5220  1.9992
  958TIP3   OH224364   2.065   6.132   2.498  0.0657  0.0918 -0.0692
  958TIP3    H124365   2.060   6.122   2.593  0.5716 -2.8526 -0.2783
  958TIP3    H224366   1.995   6.077   2.464  1.4872 -0.9605 -1.4486
  959TIP3   OH224367   3.408   2.944  13.011  0.2384  0.0718 -0.0283
  959TIP3    H124368   3.413   3.013  13.077  0.3362 -1.3828  1.5475
  959TIP3    H224369   3.323   2.903  13.026  0.0256  0.0355 -1.1905
  960TIP3   OH224370   6.531   0.041  12.687  0.4727 -0.3169  0.1199
  960TIP3    H124371   6.492   0.041  12.600 -1.0871 -1.9457  0.7405
  960TIP3    H224372   6.620   0.009  12.674  0.5864  0.4139 -0.9828
  961TIP3   OH224373   5.475   3.489  12.872  0.1591 -0.4178  0.1873
  961TIP3    H124374   5.413   3.554  12.839 -0.0003 -0.3598  0.5875
  961TIP3    H224375   5.421   3.412  12.890 -0.1040  0.1358  2.0290
  962TIP3   OH224376   1.076   3.270  12.537  0.0606 -0.4608  1.0554
  962TIP3    H124377   1.056   3.262  12.444  0.9129 -0.8857  0.8892
  962TIP3    H224378   1.054   3.360  12.559 -3.4806 -1.2683  1.3132
  963TIP3   OH224379   4.968   3.654   5.108  0.2985 -0.0184 -0.2323
  963TIP3    H124380   4.904   3.705   5.157  2.3453  0.5238  2.0964
  963TIP3    H224381   4.935   3.564   5.111 -0.5315  0.3057  0.5656
  964TIP3   OH224382   2.093   6.667  11.439 -0.6807 -0.5557  0.5204
  964TIP3    H124383   2.103   6.749  11.390 -0.3142 -0.2740  1.0640
  964TIP3    H224384   2.046   6.609  11.379  0.3474 -0.4375 -0.4280
  965TIP3   OH224385   2.750   5.055  14.583 -0.4351 -0.2469 -0.2248
  965TIP3    H124386   2.671   5.041  14.634 -1.9993  1.3563 -2.0740
  965TIP3    H224387   2.746   5.147  14.556  1.6612 -0.3297 -1.0450
  966TIP3   OH224388   4.354   1.106  13.605 -0.2772  0.2207  0.1660
  966TIP3    H124389   4.383   1.015  13.595  0.6908  0.4803  0.5224
  966TIP3    H224390   4.407   1.155  13.542  0.6641  0.8192  1.4014
  967TIP3   OH224391   2.608   5.183  12.016  0.7454 -0.0622  0.1103
  967TIP3    H124392   2.536   5.238  11.987  1.2831  0.9350  0.6407
  967TIP3    H224393   2.622   5.122  11.943 -0.7021 -0.3634  0.0565
  968TIP3   OH224394   4.550   6.144   4.600 -0.5409  0.1419 -0.3687
  968TIP3    H124395   4.472   6.091   4.584 -0.4142  0.6308 -3.1083
  968TIP3    H224396   4.518   6.233   4.611 -0.4209  0.4529 -2.1423
  969TIP3   OH224397   5.447   6.082  10.329 -0.0145  0.2440  0.2079
  969TIP3    H124398   5.421   6.173  10.344 -1.5193  0.1538 -1.4327
  969TIP3    H224399   5.501   6.086  10.250 -1.0079 -0.3838 -0.5254
  970TIP3   OH224400   2.124   4.471  10.454  0.3198 -0.5687  0.1387
  970TIP3    H124401   2.095   4.556  10.422  1.8983  0.5899  1.5442
  970TIP3    H224402   2.084   4.463  10.541  1.4290 -0.4780  0.6828
  971TIP3   OH224403   6.464   2.621   9.912 -0.0226 -0.2403  0.0196
  971TIP3    H124404   6.513   2.693   9.871 -2.8875  0.9010 -1.6856
  971TIP3    H224405   6.469   2.550   9.847  0.5071 -0.6341  0.4818
  972TIP3   OH224406   3.375   6.715   1.053  0.2226  0.3809  0.5744
  972TIP3    H124407   3.393   6.626   1.082  1.0781 -0.1111 -1.3089
  972TIP3    H224408   3.455   6.764   1.074  0.0158  0.5541  0.9774
  973TIP3   OH224409   2.226   6.331   2.065  0.0870  0.5664 -0.0576
  973TIP3    H124410   2.217   6.413   2.115 -0.3546  0.7041 -0.3585
  973TIP3    H224411   2.320   6.312   2.068  0.1646  0.9630  0.2104
  974TIP3   OH224412   1.147   1.361  13.253 -0.4716 -0.3594 -0.3298
  974TIP3    H124413   1.057   1.357  13.285  0.5639 -1.5590  2.8628
  974TIP3    H224414   1.163   1.454  13.237 -1.8032  0.0589  0.6153
  975TIP3   OH224415   4.935   6.890   9.765  0.2985 -0.5741  0.8896
  975TIP3    H124416   5.021   6.855   9.741  0.1269 -0.8489  0.6700
  975TIP3    H224417   4.873   6.820   9.743  0.0624 -0.5562  1.4703
  976TIP3   OH224418   3.120   5.213   9.705 -0.0304  0.4443  0.1303
  976TIP3    H124419   3.053   5.146   9.716  0.2953  0.3059  1.5625
  976TIP3    H224420   3.071   5.294   9.691 -0.4535  0.0788 -0.5050
  977TIP3   OH224421   1.913   5.276  11.215  0.4670 -0.2638  0.4220
  977TIP3    H124422   1.979   5.218  11.179  0.3601 -0.8459  1.1376
  977TIP3    H224423   1.960   5.358  11.234  0.5827 -0.0482 -0.7338
  978TIP3   OH224424   6.025   4.790  13.261  0.0775  0.0491 -0.1380
  978TIP3    H124425   5.981   4.748  13.335 -2.4534  0.3126 -1.3619
  978TIP3    H224426   6.009   4.884  13.275 -0.4448  0.0991 -0.9755
  979TIP3   OH224427   0.565   2.793  14.443 -0.2316 -0.2631 -0.0178
  979TIP3    H124428   0.523   2.731  14.384 -0.3130  0.2309 -0.4768
  979TIP3    H224429   0.630   2.838  14.389  0.9714 -1.0736  0.6970
  980TIP3   OH224430   6.286   6.957  13.207  0.5161 -0.5251  0.2495
  980TIP3    H124431   6.296   7.013  13.130 -0.9967 -0.9453 -0.3033
  980TIP3    H224432   6.355   6.985  13.267  0.7011  0.9282 -0.5963
  981TIP3   OH224433   5.478   5.323  10.426  0.0934  0.2532 -0.5540
  981TIP3    H124434   5.428   5.401  10.448 -0.3897 -0.1727 -0.1163
  981TIP3    H224435   5.412   5.255  10.411  0.5427 -0.4506  0.5583
  982TIP3   OH224436   6.765   5.925   0.105  0.4871  0.6450  0.2967
  982TIP3    H124437   6.758   5.952   0.197  0.5813 -0.3396  0.6073
  982TIP3    H224438   6.858   5.904   0.093  0.1375 -1.3465  0.6299
  983TIP3   OH224439   4.264   1.937   0.400 -0.1797  0.3238  0.4193
  983TIP3    H124440   4.233   1.939   0.490 -0.3390  0.4937  0.3601
  983TIP3    H224441   4.199   1.985   0.350  0.7196  1.6334  0.4588
  984TIP3   OH224442   0.170   2.591  11.967 -0.3262  0.5271  0.0583
  984TIP3    H124443   0.194   2.531  12.037 -0.3893  0.0540 -0.3181
  984TIP3    H224444   0.120   2.661  12.010  1.1043  1.1579  0.7492
  985TIP3   OH224445   6.705   1.341  10.004  0.1320 -0.0957  0.1755
  985TIP3    H124446   6.800   1.335  10.009  0.5024  1.9918 -2.3558
  985TIP3    H224447   6.677   1.259   9.962  1.1761  0.5535 -1.8659
  986TIP3   OH224448   6.405   6.307  11.943 -0.4815 -0.5200 -0.3175
  986TIP3    H124449   6.337   6.257  11.900 -1.4148  0.9614 -0.6467
  986TIP3    H224450   6.368   6.395  11.952  0.3853 -0.3059  1.8298
  987TIP3   OH224451   3.071   5.779  10.631 -0.5662  0.2414 -0.1077
  987TIP3    H124452   2.983   5.756  10.663 -0.4652  0.2242  0.1652
  987TIP3    H224453   3.073   5.875  10.634 -0.1697  0.2209  1.0368
  988TIP3   OH224454   0.617   0.011   9.757  0.5672  0.3282  0.0772
  988TIP3    H124455   0.629  -0.050   9.830  1.4967  1.2857  0.7460
  988TIP3    H224456   0.592  -0.045   9.683  0.1956 -0.7245  0.9670
  989TIP3   OH224457   5.789   0.662  14.158  0.2184 -0.3719  0.6423
  989TIP3    H124458   5.848   0.738  14.155 -0.4763  0.1434 -0.6116
  989TIP3    H224459   5.771   0.642  14.066 -1.8313 -0.2803  0.9784
  990TIP3   OH224460   3.347   6.115  14.836  0.5591  0.1891  0.0749
  990TIP3    H124461   3.379   6.091  14.749 -0.1247 -3.9818  0.7827
  990TIP3    H224462   3.426   6.137  14.885  1.0973  1.0506 -1.1184
  991TIP3   OH224463   1.710   3.560  12.120  0.0904  0.3334  0.4279
  991TIP3    H124464   1.781   3.615  12.089  0.1692  0.7109  1.2366
  991TIP3    H224465   1.642   3.622  12.146 -0.5506 -0.0221 -0.3486
  992TIP3   OH224466   6.992   1.375  15.753 -0.6477 -0.2795 -0.3399
  992TIP3    H124467   6.968   1.290  15.717 -0.8323 -0.5630  0.4434
  992TIP3    H224468   6.924   1.395  15.817 -2.1930  1.7776 -2.4572
  993TIP3   OH224469   2.278   0.785  11.399 -0.6024 -0.1239  0.2067
  993TIP3    H124470   2.290   0.874  11.433 -3.8994  1.1966 -1.6520
  993TIP3    H224471   2.289   0.794  11.304  0.6162 -2.1056  0.1084
  994TIP3   OH224472   0.390   4.288   4.098  0.0280  0.0377  0.4347
  994TIP3    H124473   0.365   4.231   4.025 -0.9555 -0.3092  1.0188
  994TIP3    H224474   0.416   4.370   4.056  0.2523 -0.4232 -0.3476
  995TIP3   OH224475   1.330   0.309  15.294 -0.2799  0.2188 -0.0754
  995TIP3    H124476   1.266   0.243  15.267 -1.5251  1.0514  0.7251
  995TIP3    H224477   1.412   0.280  15.254 -0.9834 -1.2840 -0.5284
  996TIP3   OH224478   5.765   1.990   0.598 -0.2296  0.0891 -0.1772
  996TIP3    H124479   5.762   1.935   0.676 -0.6085 -1.4658 -1.2628
  996TIP3    H224480   5.857   2.017   0.591 -0.1491  0.0629  0.6639
  997TIP3   OH224481   0.150   1.729   0.306 -0.7529  0.2997  0.1377
  997TIP3    H124482   0.214   1.660   0.287 -0.2196  0.3559  1.6247
  997TIP3    H224483   0.115   1.753   0.220  0.8993 -0.0302 -0.6710
  998TIP3   OH224484   6.077   4.183   9.700  0.0215 -0.6934 -0.2913
  998TIP3    H124485   6.136   4.212   9.769  1.3781 -2.0624 -0.8170
  998TIP3    H224486   6.013   4.128   9.744 -0.2968  0.0211  0.1495
  999TIP3   OH224487   2.167   0.126  13.304 -0.1683  0.1105  0.2448
  999TIP3    H124488   2.262   0.115  13.314 -0.2364 -0.2845  0.4977
  999TIP3    H224489   2.148   0.090  13.218 -0.0105  0.7180 -0.0516
 1000TIP3   OH224490   2.850   4.340  15.379  0.0828 -0.4542  0.4229
 1000TIP3    H124491   2.820   4.396  15.450  2.1704  1.9279 -0.4150
 1000TIP3    H224492   2.939   4.316  15.403 -0.0351 -1.6758 -0.2629
 1001TIP3   OH224493   5.036   1.482   9.997  0.3922 -0.5122 -0.0642
 1001TIP3    H124494   4.973   1.468   9.927  0.3270  1.6901 -0.5174
 1001TIP3    H224495   4.995   1.547  10.054  1.6203 -0.1427  0.4474
 1002TIP3   OH224496   3.169   4.978   1.494  0.4814  0.1924  0.6010
 1002TIP3    H124497   3.093   4.930   1.461  1.5126 -2.7984  2.1492
 1002TIP3    H224498   3.234   4.972   1.424  0.9247 -1.6579  1.1093
 1003TIP3   OH224499   0.931   4.127   9.769  0.5014  0.3225  0.3692
 1003TIP3    H124500   0.974   4.208   9.742 -1.8343  1.1152 -1.3225
 1003TIP3    H224501   0.988   4.058   9.737  0.3310  1.3102 -2.3297
 1004TIP3   OH224502   1.293   3.028   5.041 -0.0496  0.0301 -0.2663
 1004TIP3    H124503   1.286   3.113   5.085  1.6340  0.9469 -1.6302
 1004TIP3    H224504   1.315   2.967   5.111 -3.7203  0.1401  1.1940
 1005TIP3   OH224505   2.208   0.618   4.843  0.5336  0.2365  0.0939
 1005TIP3    H124506   2.118   0.616   4.876  1.1879  1.9698  2.2518
 1005TIP3    H224507   2.262   0.616   4.922  2.3234  1.6057 -1.0221
 1006TIP3   OH224508   0.748   5.192  10.328  0.0302 -0.4320  0.5033
 1006TIP3    H124509   0.721   5.132  10.398  2.3722 -1.3738  0.6882
 1006TIP3    H224510   0.831   5.156  10.296  0.3437  1.4416 -0.9843
 1007TIP3   OH224511   6.777   0.190  14.113  0.7741 -0.0697  0.2915
 1007TIP3    H124512   6.729   0.111  14.089 -1.4625  1.1969  0.2575
 1007TIP3    H224513   6.830   0.210  14.035 -0.2668 -0.3875 -0.5261
 1008TIP3   OH224514   0.142   6.074   0.039 -0.0259 -0.0677  0.3770
 1008TIP3    H124515   0.151   6.052   0.131 -1.7645 -0.3207  0.5185
 1008TIP3    H224516   0.063   6.127   0.034 -0.6472 -1.0419 -1.1050
 1009TIP3   OH224517   0.728   4.949  12.138  0.1917  0.5229 -0.4120
 1009TIP3    H124518   0.713   4.893  12.062  1.4697  0.0262 -0.3311
 1009TIP3    H224519   0.823   4.948  12.149  0.0839  1.2477  0.6988
 1010TIP3   OH224520   6.303   3.654  13.988 -0.0730 -0.5191  0.0965
 1010TIP3    H124521   6.384   3.695  14.019 -0.7907 -0.6131  2.3020
 1010TIP3    H224522   6.252   3.727  13.953  0.2121 -0.1433  0.4402
 1011TIP3   OH224523   6.610   4.554  12.797 -0.0581 -0.2297 -0.2620
 1011TIP3    H124524   6.576   4.528  12.711  1.5794  0.0422 -1.0172
 1011TIP3    H224525   6.701   4.578  12.781 -0.2654  1.7263  1.2100
 1012TIP3   OH224526   3.319   2.769   2.886 -0.2511  0.3533  0.3640
 1012TIP3    H124527   3.270   2.851   2.879 -2.4804 -0.9899 -0.6839
 1012TIP3    H224528   3.262   2.710   2.935  0.9703 -0.8450  0.4202
 1013TIP3   OH224529   1.693   4.203   3.411 -0.3406 -0.2000 -0.3724
 1013TIP3    H124530   1.718   4.296   3.411  2.2443 -0.8275 -0.3324
 1013TIP3    H224531   1.732   4.167   3.491 -0.8683 -1.4397 -0.6462
 1014TIP3   OH224532   6.172   5.530  14.598  0.4127  0.2591 -0.6601
 1014TIP3    H124533   6.173   5.481  14.515 -1.9193  0.9651 -1.2105
 1014TIP3    H224534   6.178   5.463  14.666  1.1927 -0.4367 -1.3900
 1015TIP3   OH224535   2.739   4.467  10.532  0.0386 -0.4010  0.2800
 1015TIP3    H124536   2.691   4.510  10.602 -0.4258  1.8098 -1.3013
 1015TIP3    H224537   2.827   4.454  10.567 -0.3596  0.0493  1.4786
 1016TIP3   OH224538   3.435   2.298  12.291 -0.1351 -0.3576 -0.0547
 1016TIP3    H124539   3.431   2.207  12.321  0.5948 -0.3584  0.0404
 1016TIP3    H224540   3.344   2.328  12.297 -0.4894 -1.2676 -0.6980
 1017TIP3   OH224541   2.958   4.733  11.515  0.2114  0.1662 -0.1316
 1017TIP3    H124542   2.927   4.679  11.587 -1.9680  2.1057  0.4737
 1017TIP3    H224543   3.028   4.681  11.475  0.9438 -1.3119  2.8328
 1018TIP3   OH224544   6.285   4.250  11.181  0.3732  0.0659 -0.1203
 1018TIP3    H124545   6.207   4.305  11.177  0.5000  0.2963  0.4286
 1018TIP3    H224546   6.356   4.311  11.202  0.1779 -0.5439  2.7713
 1019TIP3   OH224547   3.277   4.064  13.434  0.5499  0.0144 -0.3781
 1019TIP3    H124548   3.331   4.064  13.355 -0.5079  1.7272 -1.1552
 1019TIP3    H224549   3.296   4.148  13.476  0.6903 -0.6443  0.9437
 1020TIP3   OH224550   5.060   5.430   3.466  0.5343 -0.0912  0.3056
 1020TIP3    H124551   5.005   5.419   3.543  1.2188 -2.4138  0.5274
 1020TIP3    H224552   5.082   5.341   3.439  0.9806  0.6706 -2.1065
 1021TIP3   OH224553   5.502   0.684   4.893  0.4868 -0.4188  0.0931
 1021TIP3    H124554   5.426   0.729   4.855  0.9436  2.3030  2.0764
 1021TIP3    H224555   5.556   0.662   4.818 -0.0355  2.0271 -1.1204
 1022TIP3   OH224556   0.968   3.943  11.650 -0.6530  0.0712 -0.3644
 1022TIP3    H124557   0.898   3.998  11.615  0.0079 -0.0622 -1.9722
 1022TIP3    H224558   1.033   3.940  11.580  1.3931  0.9337  1.3999
 1023TIP3   OH224559   0.686   1.600  12.993  0.5737  0.4085 -0.3012
 1023TIP3    H124560   0.757   1.539  12.973  2.8005  2.7129  0.1471
 1023TIP3    H224561   0.659   1.635  12.908  0.8066  0.4069 -0.3765
 1024TIP3   OH224562   5.510   2.207   2.674  0.0345 -0.1673  0.3742
 1024TIP3    H124563   5.579   2.143   2.694  1.2862  1.3821  1.3066
 1024TIP3    H224564   5.532   2.239   2.587  0.5341  0.3162  0.6650
 1025TIP3   OH224565   3.986   0.601  12.744  0.2571 -0.7915 -0.1576
 1025TIP3    H124566   3.913   0.553  12.706 -0.6684  0.7050 -0.3735
 1025TIP3    H224567   3.981   0.582  12.838 -1.5510  0.6657  0.0982
 1026TIP3   OH224568   5.423   2.085   9.635 -0.0213  0.5746  0.3315
 1026TIP3    H124569   5.500   2.127   9.597  0.1853 -0.8591 -0.8931
 1026TIP3    H224570   5.413   2.004   9.586 -1.8749  0.3715  0.9830
 1027TIP3   OH224571   2.195   3.172  10.218  0.1597 -0.0466  0.2469
 1027TIP3    H124572   2.136   3.192  10.145  0.1752 -0.7653  0.0321
 1027TIP3    H224573   2.283   3.180  10.180  0.1903  0.3909  0.4030
 1028TIP3   OH224574   3.931   3.494  11.194  0.4330  0.0284  0.1473
 1028TIP3    H124575   3.843   3.487  11.230  0.6381 -1.7609  0.4276
 1028TIP3    H224576   3.971   3.567  11.241 -0.6747  0.4129  0.5078
 1029TIP3   OH224577   1.730   1.032  10.730 -0.1464  0.3649  0.1067
 1029TIP3    H124578   1.647   1.007  10.770  0.0631  2.3144  1.9510
 1029TIP3    H224579   1.722   1.126  10.715  1.6101  0.5404  0.0634
 1030TIP3   OH224580   4.277   4.136  13.446 -0.2910 -0.5963 -0.1234
 1030TIP3    H124581   4.241   4.208  13.394  0.6463 -1.2180 -1.7026
 1030TIP3    H224582   4.202   4.079  13.463 -0.6792 -0.2153 -0.5329
 1031TIP3   OH224583   0.701   4.034  12.725  0.2696 -0.1021 -0.0755
 1031TIP3    H124584   0.747   3.982  12.659  0.6402  0.2388 -0.0940
 1031TIP3    H224585   0.621   3.985  12.743 -0.8562  0.7705 -2.2442
 1032TIP3   OH224586   0.535   4.447   1.263 -0.1034 -0.2037  0.5851
 1032TIP3    H124587   0.441   4.437   1.247 -0.0900  0.0399  0.3519
 1032TIP3    H224588   0.569   4.487   1.182  0.1752 -0.1471  0.7290
 1033TIP3   OH224589   1.861   5.728   1.451  0.0278  0.8268  0.1449
 1033TIP3    H124590   1.831   5.818   1.463  0.5042  0.8554  1.1647
 1033TIP3    H224591   1.872   5.720   1.356 -2.3375  1.0811 -0.2143
 1034TIP3   OH224592   4.910   0.198  11.226 -0.2531  0.5320  0.7128
 1034TIP3    H124593   4.901   0.167  11.136  2.0040 -2.7117  1.4039
 1034TIP3    H224594   4.890   0.121  11.280  0.5760  1.7416  2.8957
 1035TIP3   OH224595   0.811   7.054   4.906  0.5263 -0.4267  0.1357
 1035TIP3    H124596   0.775   7.080   4.991  2.0125  0.8718  0.4275
 1035TIP3    H224597   0.736   7.020   4.857 -0.1552 -2.4449  2.3764
 1036TIP3   OH224598   1.241   5.273  11.961  0.7683  0.2612 -0.1585
 1036TIP3    H124599   1.222   5.184  11.990  0.5990  0.6710  1.0608
 1036TIP3    H224600   1.305   5.262  11.890 -0.2350 -0.8755 -0.9203
 1037TIP3   OH224601   3.093   0.376  15.276  0.4701 -0.2536  0.5366
 1037TIP3    H124602   3.150   0.374  15.199  1.6408 -0.4504  1.3832
 1037TIP3    H224603   3.136   0.438  15.336 -0.4860 -0.0132  0.9993
 1038TIP3   OH224604   5.010   3.340  10.641  0.7099 -0.6319  0.0618
 1038TIP3    H124605   5.003   3.321  10.734 -1.9802 -1.6293 -0.2525
 1038TIP3    H224606   4.985   3.432  10.634  0.7389 -0.6046  0.3039
 1039TIP3   OH224607   5.868   1.766   1.339  0.2785 -0.0329  0.7168
 1039TIP3    H124608   5.923   1.821   1.283 -0.3648  0.3152  0.4193
 1039TIP3    H224609   5.862   1.815   1.421 -0.9057  0.7329  0.2039
 1040TIP3   OH224610   3.230   4.853  11.358  0.4186 -0.4776  0.2194
 1040TIP3    H124611   3.169   4.804  11.302  1.1257  0.4210 -1.4020
 1040TIP3    H224612   3.272   4.915  11.299  2.0257 -0.2405  1.5463
 1041TIP3   OH224613   3.758   5.546   0.250 -0.0110  0.3869  0.0979
 1041TIP3    H124614   3.717   5.526   0.334 -0.8433 -0.1692 -0.4213
 1041TIP3    H224615   3.685   5.560   0.190  0.5713  1.2909 -0.4262
 1042TIP3   OH224616   0.581   7.109  11.999  0.5002 -0.2771 -0.6056
 1042TIP3    H124617   0.493   7.108  11.961  0.7759  0.0094 -1.2609
 1042TIP3    H224618   0.618   7.193  11.971  1.7629 -1.2903 -2.1673
 1043TIP3   OH224619   4.828   2.671   5.171 -0.5187  0.2226 -0.2356
 1043TIP3    H124620   4.845   2.749   5.119  1.6759 -0.3447 -0.5080
 1043TIP3    H224621   4.911   2.656   5.218 -0.9797 -1.7441  0.0323
 1044TIP3   OH224622   0.959   2.657  10.417 -0.6190 -0.4146  0.7901
 1044TIP3    H124623   0.967   2.620  10.505 -3.5206 -1.6232  0.6453
 1044TIP3    H224624   0.909   2.592  10.368 -3.3586  2.2937 -0.3279
 1045TIP3   OH224625   2.635   1.801  12.087  0.0008  0.1225 -0.1172
 1045TIP3    H124626   2.663   1.892  12.072 -1.2191  0.7113  0.9602
 1045TIP3    H224627   2.656   1.784  12.179  0.5226 -0.8205 -0.3956
 1046TIP3   OH224628   4.177   0.306  13.482 -0.3618  0.2548 -0.0052
 1046TIP3    H124629   4.268   0.299  13.455  0.1953  0.3714  1.7655
 1046TIP3    H224630   4.128   0.302  13.400  1.3058  2.1655 -1.1873
 1047TIP3   OH224631   5.909   3.520  11.669  0.1663  0.1184 -0.1721
 1047TIP3    H124632   5.979   3.586  11.673 -0.7996  1.1174  1.3128
 1047TIP3    H224633   5.942   3.447  11.721  0.3213  0.3770  0.0967
 1048TIP3   OH224634   4.037   4.740  10.413 -0.4398  0.4936 -0.2994
 1048TIP3    H124635   4.091   4.806  10.455 -1.1330  2.1559 -1.8821
 1048TIP3    H224636   4.054   4.660  10.462  3.2635  0.9664 -0.5404
 1049TIP3   OH224637   2.057   3.700  13.523  0.4907  0.6394 -0.9028
 1049TIP3    H124638   2.123   3.750  13.475  1.1122 -0.6401 -1.4052
 1049TIP3    H224639   2.100   3.618  13.546 -0.1985  0.7007  0.7599
 1050TIP3   OH224640   0.737   2.741   0.685 -0.1536 -0.0583  0.5274
 1050TIP3    H124641   0.658   2.725   0.633  0.2897  0.5483 -0.3675
 1050TIP3    H224642   0.744   2.665   0.742 -0.1604 -1.2228 -0.9569
 1051TIP3   OH224643   3.137   4.712   4.903  0.1703 -0.2172 -0.2024
 1051TIP3    H124644   3.224   4.729   4.940 -0.9446  2.8186  1.3639
 1051TIP3    H224645   3.080   4.703   4.979 -1.2134 -0.1493 -1.1966
 1052TIP3   OH224646   4.020   0.250   0.420  0.5827 -0.3645 -0.4646
 1052TIP3    H124647   3.928   0.224   0.428  0.0320  1.0388 -1.7489
 1052TIP3    H224648   4.017   0.342   0.393  2.4009  0.5770  2.1043
 1053TIP3   OH224649   1.400   0.455  11.789 -0.2395 -0.6125 -0.3628
 1053TIP3    H124650   1.305   0.468  11.792 -0.2051 -0.0301  3.4303
 1053TIP3    H224651   1.436   0.544  11.795  0.3541 -0.9410  2.6640
 1054TIP3   OH224652   6.382   6.764   3.060  0.0233  0.2991  0.4231
 1054TIP3    H124653   6.301   6.767   3.112  0.9011 -0.6795  1.9015
 1054TIP3    H224654   6.359   6.713   2.983 -1.1851  1.3995  0.0017
 1055TIP3   OH224655   5.889   0.368   1.310  0.0135  0.2621  0.2569
 1055TIP3    H124656   5.903   0.394   1.218  2.2802  0.8310  0.6955
 1055TIP3    H224657   5.914   0.276   1.313  1.5276  0.6440  0.5533
 1056TIP3   OH224658   5.835   1.862  11.428  0.4949 -0.1042 -0.4137
 1056TIP3    H124659   5.824   1.800  11.356 -1.6690  0.1797 -0.4170
 1056TIP3    H224660   5.752   1.911  11.430  2.0166  2.6415 -0.2619
 1057TIP3   OH224661   4.325   4.968   1.498  0.5958 -0.0423 -0.0223
 1057TIP3    H124662   4.409   4.928   1.519  0.4884  0.1398  0.7785
 1057TIP3    H224663   4.329   4.986   1.404  1.0843 -0.8908 -0.1727
 1058TIP3   OH224664   6.289   2.192   1.563 -0.1326 -0.1424 -0.1208
 1058TIP3    H124665   6.312   2.235   1.480 -0.7518  1.0002  0.2785
 1058TIP3    H224666   6.362   2.212   1.621  0.3097 -0.9583 -0.3860
 1059TIP3   OH224667   5.433   6.182  15.142  0.5539  0.1846  0.0959
 1059TIP3    H124668   5.430   6.251  15.075 -0.5398  0.0804  0.0169
 1059TIP3    H224669   5.521   6.147  15.135  0.2391 -0.3509 -1.8592
 1060TIP3   OH224670   3.448   0.879  11.063 -0.3614 -0.5038  0.4923
 1060TIP3    H124671   3.522   0.926  11.025 -0.1771 -0.6931  0.6151
 1060TIP3    H224672   3.381   0.881  10.995  0.8018 -2.9072 -0.8318
 1061TIP3   OH224673   1.174   3.135  15.668  0.0878 -0.2806  0.1687
 1061TIP3    H124674   1.213   3.219  15.644 -1.3277 -0.0951 -1.7180
 1061TIP3    H224675   1.173   3.085  15.586 -3.0422 -0.4586  0.1945
 1062TIP3   OH224676   0.338   0.202   1.056  0.6890 -0.0266 -0.4032
 1062TIP3    H124677   0.406   0.267   1.043  0.7650 -0.4677 -2.5975
 1062TIP3    H224678   0.383   0.118   1.048  0.0711 -0.3242 -0.8622
 1063TIP3   OH224679   4.817   4.023   1.405 -0.2623  0.6389  0.0564
 1063TIP3    H124680   4.786   3.986   1.488  0.1601 -0.5224 -0.3017
 1063TIP3    H224681   4.912   4.025   1.413 -0.1171 -0.9762 -1.0109
 1064TIP3   OH224682   0.122   1.876  11.729  0.0742 -0.5398 -0.2828
 1064TIP3    H124683   0.165   1.956  11.759  0.5899 -0.8042 -0.2862
 1064TIP3    H224684   0.077   1.901  11.649  0.4771 -0.3157 -0.4457
 1065TIP3   OH224685   5.438   3.530   0.201 -0.2467  0.0556  0.7966
 1065TIP3    H124686   5.356   3.543   0.249 -0.4125  3.0098 -0.1166
 1065TIP3    H224687   5.426   3.446   0.156 -1.8279 -0.6716  2.4278
 1066TIP3   OH224688   7.040   1.437   1.491  0.3804 -0.2446  0.5494
 1066TIP3    H124689   7.092   1.466   1.566 -1.8104 -2.3964  3.1054
 1066TIP3    H224690   7.083   1.356   1.462 -0.0010 -0.6095  0.9749
 1067TIP3   OH224691   7.156   2.360  14.771 -0.3326 -0.0183 -0.0652
 1067TIP3    H124692   7.066   2.328  14.766 -0.5696  0.7302 -1.0119
 1067TIP3    H224693   7.192   2.343  14.684  0.1348  0.5396  0.0124
 1068TIP3   OH224694   2.268   3.247  11.147  0.4656 -0.2285 -0.3999
 1068TIP3    H124695   2.262   3.158  11.112  0.8354 -0.3826 -0.0694
 1068TIP3    H224696   2.362   3.267  11.146  0.3263  0.4639 -1.2360
 1069TIP3   OH224697   1.700   2.326   4.438  0.2988 -0.3555  0.5709
 1069TIP3    H124698   1.690   2.372   4.354  0.6049  0.7647  1.1325
 1069TIP3    H224699   1.794   2.328   4.455  0.1057  0.6636  1.6075
 1070TIP3   OH224700   3.366   2.430  11.594 -0.2374  0.5514  0.5113
 1070TIP3    H124701   3.459   2.414  11.577  0.3572  1.0884  2.9670
 1070TIP3    H224702   3.345   2.505  11.538  1.0058  0.9002  0.4775
 1071TIP3   OH224703   1.257   3.397   9.397  0.0083  0.0068  0.0895
 1071TIP3    H124704   1.181   3.339   9.410  0.9086 -1.4137 -0.7400
 1071TIP3    H224705   1.327   3.356   9.449  0.5078  0.6900 -0.0366
 1072TIP3   OH224706   0.542   6.604   1.873  0.6560  0.2640  0.6223
 1072TIP3    H124707   0.557   6.574   1.962  0.0989  1.0614  0.9999
 1072TIP3    H224708   0.447   6.594   1.861  0.3002  2.5926  1.0673
 1073TIP3   OH224709   1.856   1.661  13.580 -0.3369  0.2459  0.3460
 1073TIP3    H124710   1.779   1.669  13.523 -0.0093  0.0212 -0.1364
 1073TIP3    H224711   1.922   1.717  13.540  0.4195 -1.1198 -0.4190
 1074TIP3   OH224712   5.282   6.710   4.629  0.1207 -0.4116 -0.1597
 1074TIP3    H124713   5.248   6.799   4.622  0.9854  0.0156  0.7062
 1074TIP3    H224714   5.207   6.653   4.611 -0.6902  0.4909  0.3031
 1075TIP3   OH224715   0.766   3.928  10.987  0.0098 -0.1444 -0.1605
 1075TIP3    H124716   0.829   3.994  10.959  0.1834  0.4172  1.4440
 1075TIP3    H224717   0.813   3.845  10.980 -0.1144 -0.0963 -1.9155
 1076TIP3   OH224718   2.490   7.075  11.519  0.6932 -0.4097 -0.3232
 1076TIP3    H124719   2.516   7.144  11.458  1.8183  0.9403  1.5762
 1076TIP3    H224720   2.422   7.116  11.573  1.3108 -0.7909  0.7728
 1077TIP3   OH224721   2.370   0.177   2.596  0.0181  0.1825  0.2626
 1077TIP3    H124722   2.425   0.254   2.609  0.0190  0.0238  1.3436
 1077TIP3    H224723   2.286   0.201   2.635 -0.1491 -0.1776  0.1326
 1078TIP3   OH224724   6.098   6.738  12.730  0.4653 -0.1360  0.0646
 1078TIP3    H124725   6.157   6.766  12.800  0.2951  0.0452  0.1346
 1078TIP3    H224726   6.017   6.785  12.746  0.2166 -0.5775  0.1142
 1079TIP3   OH224727   0.863   6.859  11.245 -0.6919 -0.1737 -0.0494
 1079TIP3    H124728   0.959   6.860  11.250 -0.7068  0.7567  0.1369
 1079TIP3    H224729   0.844   6.880  11.154 -0.7138 -1.2849 -0.3154
 1080TIP3   OH224730   1.483   2.915  12.548  0.4500 -0.1343 -0.4195
 1080TIP3    H124731   1.503   3.008  12.540  0.3607 -0.1409 -0.7117
 1080TIP3    H224732   1.445   2.890  12.464 -0.4210 -0.2175 -0.0147
 1081TIP3   OH224733   4.906   0.060  10.989  0.4740  1.0363 -0.3065
 1081TIP3    H124734   4.962   0.094  10.919 -0.3751  0.6279 -1.2126
 1081TIP3    H224735   4.889  -0.031  10.963 -0.8230  1.2334 -0.2000
 1082TIP3   OH224736   1.497   5.488   9.934 -0.0252 -0.6118  0.0824
 1082TIP3    H124737   1.456   5.574   9.932  1.0259 -0.0913 -1.6039
 1082TIP3    H224738   1.572   5.499   9.993  0.3430 -0.2472 -0.4488
 1083TIP3   OH224739   4.649   6.538   5.596  0.3380 -0.2489  0.4869
 1083TIP3    H124740   4.684   6.470   5.654  1.0271 -1.2690 -1.0762
 1083TIP3    H224741   4.575   6.496   5.552 -0.2705  0.5626  0.7233
 1084TIP3   OH224742   6.324   7.133   9.656  0.1314  0.1323 -0.0604
 1084TIP3    H124743   6.261   7.110   9.588  0.4845 -1.6878  0.1760
 1084TIP3    H224744   6.277   7.192   9.715 -1.4693 -1.4046  0.2687
 1085TIP3   OH224745   2.929   2.119  10.791 -0.0611  0.4891  0.5271
 1085TIP3    H124746   2.986   2.042  10.798 -1.7510 -0.7643  0.9878
 1085TIP3    H224747   2.918   2.149  10.881 -0.3216  0.5950  0.4586
 1086TIP3   OH224748   4.600   1.428   4.657  0.0021 -0.1682  0.1099
 1086TIP3    H124749   4.686   1.394   4.633  0.7763 -0.0952  2.5484
 1086TIP3    H224750   4.575   1.378   4.734 -2.0462  0.0051 -0.3883
 1087TIP3   OH224751   6.324   1.989   0.830 -0.5531 -0.2447  0.1443
 1087TIP3    H124752   6.338   1.975   0.737 -2.1127 -2.5934  0.1903
 1087TIP3    H224753   6.364   1.914   0.872 -0.3978  0.4819  1.3522
 1088TIP3   OH224754   3.415   3.235  13.127 -0.1831 -0.0931 -0.0219
 1088TIP3    H124755   3.426   3.319  13.172  0.3164 -0.5594  0.7555
 1088TIP3    H224756   3.358   3.255  13.053  1.5780  1.3672 -1.0966
 1089TIP3   OH224757   4.465   4.630   3.187  0.5440 -0.3333 -0.2588
 1089TIP3    H124758   4.428   4.629   3.099  0.5014  0.6336 -0.2630
 1089TIP3    H224759   4.397   4.670   3.241  0.7042 -0.6099  0.1555
 1090TIP3   OH224760   0.785   4.681   0.377  0.1728 -0.3633  0.4988
 1090TIP3    H124761   0.866   4.643   0.410  0.0862  0.1470  1.3306
 1090TIP3    H224762   0.745   4.611   0.325  0.3948 -1.1294  1.3385
 1091TIP3   OH224763   6.907   1.792   2.402 -0.4543  0.3500 -0.3567
 1091TIP3    H124764   6.898   1.860   2.335 -2.6173  1.3568  0.8748
 1091TIP3    H224765   6.846   1.723   2.373 -0.8922  0.4937  0.2215
 1092TIP3   OH224766   3.423   6.379  14.262 -0.3906 -0.0107  0.2106
 1092TIP3    H124767   3.508   6.395  14.302  0.1284  0.2132 -0.9309
 1092TIP3    H224768   3.360   6.396  14.331  0.4836  0.0233  1.0177
 1093TIP3   OH224769   0.080   1.649  11.524  0.6063 -0.0253 -0.3855
 1093TIP3    H124770   0.003   1.700  11.547  0.8524  0.3958 -0.4902
 1093TIP3    H224771   0.150   1.685  11.579  0.6675 -0.6062 -0.0671
 1094TIP3   OH224772   6.096   6.296  14.290 -0.0273 -0.1466  0.2262
 1094TIP3    H124773   6.016   6.268  14.246  0.5962 -1.1151 -0.3175
 1094TIP3    H224774   6.066   6.353  14.360 -1.0521  1.9217 -1.7556
 1095TIP3   OH224775   5.195   0.988   0.011  0.2879 -0.3410 -0.8397
 1095TIP3    H124776   5.193   0.921  -0.057  0.8806 -1.0918 -0.1373
 1095TIP3    H224777   5.137   0.955   0.079 -1.2222  0.9504 -1.4424
 1096TIP3   OH224778   1.515   5.599  12.667  0.5741 -0.6010 -1.2753
 1096TIP3    H124779   1.446   5.532  12.667  1.6603 -1.7528 -1.1497
 1096TIP3    H224780   1.493   5.655  12.593  0.1992 -1.6986 -2.0253
 1097TIP3   OH224781   6.593   7.124   0.030 -0.4823  0.5762  0.0479
 1097TIP3    H124782   6.682   7.155   0.048 -0.8824  1.6236  0.3287
 1097TIP3    H224783   6.597   7.030   0.046  0.5816  0.5993  0.0171
 1098TIP3   OH224784   4.005   7.041  11.552 -0.2357 -0.6195 -0.6583
 1098TIP3    H124785   3.922   6.997  11.534 -0.4317  0.4803 -2.8522
 1098TIP3    H224786   3.998   7.126  11.508  1.0893  0.6005  1.2934
 1099TIP3   OH224787   1.936   4.508  13.116  0.3324  0.5378 -0.1919
 1099TIP3    H124788   1.883   4.446  13.067  0.5567  0.5476 -0.4505
 1099TIP3    H224789   1.972   4.568  13.050  0.2480  0.8453  0.0343
 1100TIP3   OH224790   6.751   5.443   0.870 -0.2693  0.6566  0.4097
 1100TIP3    H124791   6.820   5.379   0.886 -1.2499 -0.4772  0.1726
 1100TIP3    H224792   6.760   5.465   0.778  0.9087  1.8972  0.7864
 1101TIP3   OH224793   0.175   1.386  11.835  0.4382 -0.3374 -0.3450
 1101TIP3    H124794   0.243   1.447  11.806  2.0266 -1.5327  0.7636
 1101TIP3    H224795   0.181   1.387  11.930 -0.6687 -0.9835 -0.2517
 1102TIP3   OH224796   1.051   1.019   0.859  0.2240 -0.4980 -0.0956
 1102TIP3    H124797   1.122   1.004   0.922 -0.2390 -0.3195  0.4738
 1102TIP3    H224798   1.014   1.103   0.884  0.4168 -0.1349 -0.9875
 1103TIP3   OH224799   2.833   7.119  12.622 -0.0962 -0.1182  0.1136
 1103TIP3    H124800   2.928   7.111  12.628 -0.0400  0.3071 -0.1762
 1103TIP3    H224801   2.812   7.198  12.672 -0.4989 -1.1852  1.7390
 1104TIP3   OH224802   3.180   6.541  10.043  0.4614  0.4409 -0.1184
 1104TIP3    H124803   3.181   6.636  10.053 -1.6351  0.4059  0.8472
 1104TIP3    H224804   3.259   6.511  10.088  1.6532  1.7470 -1.2517
 1105TIP3   OH224805   0.320   6.470  15.204 -0.0729  0.8380  0.4079
 1105TIP3    H124806   0.233   6.434  15.219  1.5332 -2.3263  3.8362
 1105TIP3    H224807   0.338   6.524  15.280  2.2804 -1.8878  1.9907
 1106TIP3   OH224808   6.410   1.098   0.176  0.1175  0.0821  0.0742
 1106TIP3    H124809   6.439   1.007   0.177 -2.2062 -0.7249  1.6294
 1106TIP3    H224810   6.477   1.144   0.227  1.8557 -0.5127 -1.5714
 1107TIP3   OH224811   4.731   5.720  13.944 -0.3032  0.0009 -0.4432
 1107TIP3    H124812   4.692   5.649  13.894  2.1359 -0.6442 -1.5536
 1107TIP3    H224813   4.797   5.758  13.886  0.9853  0.7978  1.4128
 1108TIP3   OH224814   5.168   3.940   1.220  0.7533 -0.1464  0.0378
 1108TIP3    H124815   5.210   3.954   1.305 -0.3197 -0.2504  0.5948
 1108TIP3    H224816   5.121   4.021   1.203 -0.2563 -0.6750  0.2555
 1109TIP3   OH224817   3.536   1.316  14.902 -0.1915  0.2247 -0.3100
 1109TIP3    H124818   3.613   1.268  14.932 -0.5887 -0.4654 -0.3655
 1109TIP3    H224819   3.462   1.272  14.944 -0.6244  0.2836 -0.9893
 1110TIP3   OH224820   6.465   2.255  13.182  0.4673 -0.0948 -0.3144
 1110TIP3    H124821   6.498   2.214  13.261  0.5683  0.8339  0.1447
 1110TIP3    H224822   6.448   2.346  13.208 -0.5965 -0.0707 -1.0527
 1111TIP3   OH224823   1.792   3.561   0.564 -0.1457  0.0060 -0.0825
 1111TIP3    H124824   1.842   3.545   0.484 -0.3894 -0.0869 -0.2158
 1111TIP3    H224825   1.763   3.652   0.556  1.6521  0.7048  0.8999
 1112TIP3   OH224826   5.966   6.775  12.455  0.2204 -0.6423  0.5529
 1112TIP3    H124827   5.932   6.793  12.368 -0.9359 -1.8116  0.7423
 1112TIP3    H224828   6.014   6.693  12.446 -3.9761 -3.5760  1.8671
 1113TIP3   OH224829   0.427   0.945   2.897  0.9523 -0.1445 -0.5176
 1113TIP3    H124830   0.495   0.956   2.964  0.2153 -1.5224  0.5078
 1113TIP3    H224831   0.348   0.927   2.947 -0.0657  0.8346 -1.7183
 1114TIP3   OH224832   7.024   6.915  14.704  0.2202 -0.3599  0.4311
 1114TIP3    H124833   6.985   6.830  14.724 -0.3797 -0.2648 -0.2859
 1114TIP3    H224834   7.067   6.902  14.620  0.7098 -0.1286  0.6423
 1115TIP3   OH224835   6.796   3.768  12.229 -0.2149 -0.6622  0.1102
 1115TIP3    H124836   6.856   3.763  12.303  0.7902  1.4631 -0.4812
 1115TIP3    H224837   6.853   3.777  12.153 -1.2549  1.1081 -0.4977
 1116TIP3   OH224838   0.334   2.593   2.330 -0.0717  0.0195  0.3636
 1116TIP3    H124839   0.315   2.509   2.372 -0.4734  1.0909  2.4352
 1116TIP3    H224840   0.258   2.609   2.274 -1.0883  0.0653  1.7275
 1117TIP3   OH224841   5.884   5.480  13.850 -0.2764 -0.0785  0.7685
 1117TIP3    H124842   5.973   5.494  13.883  0.0668 -0.3820 -0.0066
 1117TIP3    H224843   5.855   5.567  13.822 -0.5482  0.1719  1.7797
 1118TIP3   OH224844   4.587   4.654  13.171 -0.1702 -0.4928 -0.4039
 1118TIP3    H124845   4.653   4.658  13.240  0.8630  2.2315 -1.3942
 1118TIP3    H224846   4.583   4.744  13.137 -0.5443 -1.7064 -3.9576
 1119TIP3   OH224847   0.953   7.015   9.906 -0.2406 -0.0257 -0.2678
 1119TIP3    H124848   0.931   6.938   9.853 -1.8702 -0.2461  0.6391
 1119TIP3    H224849   0.919   6.994   9.993 -1.7258  2.1283 -0.2426
 1120TIP3   OH224850   1.129   2.124  10.826  0.0067 -0.1895 -0.6468
 1120TIP3    H124851   1.061   2.069  10.863  0.7402 -0.0724  0.9717
 1120TIP3    H224852   1.113   2.211  10.864  2.8482 -0.8105  2.4836
 1121TIP3   OH224853   6.575   4.559   3.289  0.0847 -0.0906 -0.0516
 1121TIP3    H124854   6.667   4.569   3.263 -0.4907  0.6635 -1.9477
 1121TIP3    H224855   6.559   4.632   3.348  0.3184  0.6513 -0.8884
 1122TIP3   OH224856   1.653   4.175   4.958  0.2287 -0.0984 -0.5912
 1122TIP3    H124857   1.591   4.117   5.003  0.1766  0.1717 -0.3082
 1122TIP3    H224858   1.668   4.246   5.020  0.8135 -0.1541 -0.6613
 1123TIP3   OH224859   0.457   4.123   0.653 -0.3517  0.2467  0.4411
 1123TIP3    H124860   0.459   4.211   0.615 -0.0513  0.0539  0.0040
 1123TIP3    H224861   0.475   4.064   0.579  1.0689 -0.0899  1.0222
 1124TIP3   OH224862   5.035   4.290  10.635  0.6608 -0.0969  0.4704
 1124TIP3    H124863   5.110   4.289  10.575  1.0401  0.3682  0.9218
 1124TIP3    H224864   4.995   4.376  10.622 -0.3878 -0.7056 -0.4704
 1125TIP3   OH224865   5.612   3.744  11.901  0.2302 -0.4729 -0.5608
 1125TIP3    H124866   5.699   3.719  11.869  1.1050  0.2518  1.1356
 1125TIP3    H224867   5.556   3.669  11.880  0.7640 -0.1967 -3.4349
 1126TIP3   OH224868   3.636   3.902  13.097 -0.0895 -0.2132  0.5297
 1126TIP3    H124869   3.728   3.898  13.121  0.0384 -0.1846  0.0413
 1126TIP3    H224870   3.635   3.933  13.007 -0.6284  0.8254  0.8799
 1127TIP3   OH224871   0.173   3.360  10.867  0.1718  0.8179  0.2291
 1127TIP3    H124872   0.095   3.408  10.894  0.0747  1.1568 -0.6208
 1127TIP3    H224873   0.153   3.269  10.887 -0.1217  0.9870  0.7430
 1128TIP3   OH224874   1.571   3.109   0.142  0.1955 -0.0575  0.1196
 1128TIP3    H124875   1.597   3.060   0.220 -0.1066 -1.5351 -0.6766
 1128TIP3    H224876   1.475   3.103   0.141  0.0826  1.3399  0.4927
 1129TIP3   OH224877   2.296   6.055  14.700 -0.1925  0.1053 -0.0540
 1129TIP3    H124878   2.390   6.054  14.685  0.0861 -0.4159  1.5852
 1129TIP3    H224879   2.269   6.144  14.677  0.6352  0.1952 -0.7513
 1130TIP3   OH224880   5.900   4.816  15.176  0.0638 -0.1968 -0.0051
 1130TIP3    H124881   5.834   4.868  15.221  0.9250  0.7567  0.2102
 1130TIP3    H224882   5.967   4.880  15.150  1.3178 -1.2334  0.5450
 1131TIP3   OH224883   0.246   6.593  14.744  0.0446 -0.2999  0.3170
 1131TIP3    H124884   0.204   6.678  14.756  0.6667  0.0817 -0.1236
 1131TIP3    H224885   0.181   6.529  14.773 -1.3816  0.1980 -1.5905
 1132TIP3   OH224886   4.799   2.131  11.441 -0.2585  0.5434 -0.5178
 1132TIP3    H124887   4.837   2.217  11.422 -0.5663  0.6849 -0.4932
 1132TIP3    H224888   4.725   2.123  11.381 -1.2415  0.9976  0.5854
 1133TIP3   OH224889   0.430   5.900  13.220  0.7163 -0.0459  0.1807
 1133TIP3    H124890   0.386   5.983  13.197  1.7765  0.6221  0.5001
 1133TIP3    H224891   0.520   5.925  13.238  0.7120 -1.0479  1.7783
 1134TIP3   OH224892   7.018   2.811  11.865  0.0060  0.3969 -0.7781
 1134TIP3    H124893   7.082   2.836  11.798  0.4116 -0.9466 -0.9354
 1134TIP3    H224894   6.933   2.828  11.824  0.1450 -2.9030 -2.8124
 1135TIP3   OH224895   5.932   1.097   9.686  0.3942  0.3915 -0.2354
 1135TIP3    H124896   5.937   1.018   9.740 -0.0072 -1.0253 -2.1528
 1135TIP3    H224897   6.015   1.142   9.702  1.4821 -1.3991 -0.4935
 1136TIP3   OH224898   4.326   1.745   1.073 -0.0973  1.0348  0.0680
 1136TIP3    H124899   4.414   1.713   1.091  0.2794  2.1017  0.2151
 1136TIP3    H224900   4.325   1.761   0.979  0.1821  1.8825  0.1980
 1137TIP3   OH224901   6.491   2.323  15.711  0.0878  0.2498  0.3749
 1137TIP3    H124902   6.541   2.261  15.764 -1.4856 -1.4465 -0.0340
 1137TIP3    H224903   6.498   2.406  15.759  2.0625 -0.2496  1.0452
 1138TIP3   OH224904   4.735   0.323  12.048  0.1810  0.0595 -0.3302
 1138TIP3    H124905   4.759   0.360  12.133  0.9145  0.9472 -0.9103
 1138TIP3    H224906   4.661   0.377  12.019 -0.0031 -0.1776 -0.3040
 1139TIP3   OH224907   1.009   1.132   4.775  0.1403 -0.7011  0.8920
 1139TIP3    H124908   1.052   1.207   4.817  0.3945 -0.6195  0.4964
 1139TIP3    H224909   0.919   1.161   4.760  0.0828 -0.6831  1.2537
 1140TIP3   OH224910   0.516   5.262  11.877  0.1618 -0.2033  0.5670
 1140TIP3    H124911   0.435   5.272  11.827 -0.3483 -2.1437  0.9186
 1140TIP3    H224912   0.577   5.324  11.837 -1.1170  0.4369 -0.4811
 1141TIP3   OH224913   2.566   5.215  15.268 -0.0810  0.4781  0.3125
 1141TIP3    H124914   2.497   5.149  15.254  0.2786  0.2546 -0.5046
 1141TIP3    H224915   2.572   5.260  15.184  0.0405  1.2121  0.7102
 1142TIP3   OH224916   2.647   3.006  13.190  0.0589  0.6330  0.5649
 1142TIP3    H124917   2.660   2.926  13.240 -0.9034  0.4150  0.4852
 1142TIP3    H224918   2.735   3.042  13.179  0.7790 -1.4210 -1.1084
 1143TIP3   OH224919   3.363   0.351  11.204  0.0408 -0.0241 -0.5953
 1143TIP3    H124920   3.345   0.332  11.296  0.9302 -0.0185 -0.4117
 1143TIP3    H224921   3.410   0.434  11.205  0.6051 -0.3312 -1.0001
 1144TIP3   OH224922   3.743   0.388  13.160 -0.3373 -0.0239  0.1923
 1144TIP3    H124923   3.759   0.312  13.103 -1.1695 -1.0649  1.3181
 1144TIP3    H224924   3.663   0.427  13.126 -1.3221 -1.1500  1.1076
 1145TIP3   OH224925   4.509   0.464  11.973  0.1418 -0.3517  0.2779
 1145TIP3    H124926   4.417   0.476  11.996  0.2637  0.4501  0.3722
 1145TIP3    H224927   4.527   0.531  11.907  0.8640  0.0386  0.8574
 1146TIP3   OH224928   6.151   7.037   9.880  0.1895  0.1650 -0.5649
 1146TIP3    H124929   6.190   6.949   9.884  0.9381  0.5225  1.9434
 1146TIP3    H224930   6.060   7.024   9.908  0.4535  0.2386  0.3556
 1147TIP3   OH224931   6.371   1.707  13.017  0.4443 -0.8925 -0.3831
 1147TIP3    H124932   6.321   1.745  12.945  0.6089  0.0874  0.0020
 1147TIP3    H224933   6.309   1.651  13.063 -0.9564  1.8407  1.2912
 1148TIP3   OH224934   5.776   4.020  12.431  0.5851 -0.0734  0.2590
 1148TIP3    H124935   5.775   4.095  12.490 -0.3068  0.1354 -0.0146
 1148TIP3    H224936   5.693   4.025  12.383  0.5401 -1.1882  0.1886
 1149TIP3   OH224937   2.549   5.877  12.424 -0.6670 -0.8798 -0.4831
 1149TIP3    H124938   2.625   5.870  12.366 -0.0267  1.2059  0.0244
 1149TIP3    H224939   2.502   5.795  12.412  1.7537 -2.3293 -0.6666
 1150TIP3   OH224940   4.535   7.047   2.592  0.4532 -0.6243  0.4683
 1150TIP3    H124941   4.451   7.093   2.590 -0.1858 -1.7751 -0.2300
 1150TIP3    H224942   4.576   7.075   2.673 -0.2218  0.6274  0.3930
 1151TIP3   OH224943   6.684   4.560   5.183 -0.2681  0.3985  0.3131
 1151TIP3    H124944   6.736   4.488   5.218  1.7200  1.9811  0.7790
 1151TIP3    H224945   6.630   4.588   5.257  1.4076  1.4885  1.1934
 1152TIP3   OH224946   1.328   0.073   4.119 -0.2279 -0.0364 -0.0562
 1152TIP3    H124947   1.279   0.143   4.163 -0.7333  0.0039 -0.6693
 1152TIP3    H224948   1.263   0.028   4.066  0.5183  0.4554 -1.4423
 1153TIP3   OH224949   1.115   0.032  13.413 -0.0324 -0.1806  0.0100
 1153TIP3    H124950   1.192   0.077  13.380 -2.0380  1.9924 -2.1593
 1153TIP3    H224951   1.097   0.074  13.498  1.5626 -1.3064  0.9470
 1154TIP3   OH224952   2.942   1.610   0.710  0.3512  0.0716  0.2087
 1154TIP3    H124953   2.859   1.578   0.675 -0.9097  1.4164  1.7983
 1154TIP3    H224954   2.986   1.650   0.635 -1.5875  1.5620 -0.2207
 1155TIP3   OH224955   1.225   6.856  12.494 -0.8789  0.2242 -0.1215
 1155TIP3    H124956   1.241   6.927  12.556 -2.4767  0.5859 -0.0975
 1155TIP3    H224957   1.225   6.777  12.547 -0.8394  0.3809  0.1118
 1156TIP3   OH224958   3.419   6.362  10.414 -0.0131  0.1591 -0.1259
 1156TIP3    H124959   3.495   6.362  10.356  1.9201  1.7958  2.1533
 1156TIP3    H224960   3.436   6.292  10.477 -1.6244 -1.0161 -0.9390
 1157TIP3   OH224961   6.334   3.674  11.851  0.0870  0.7520  0.1726
 1157TIP3    H124962   6.319   3.758  11.895  0.0319  2.4665 -2.8676
 1157TIP3    H224963   6.423   3.650  11.874  0.1637  1.7168  0.9542
 1158TIP3   OH224964   2.978   6.946  11.900  0.1359  0.5093  0.0126
 1158TIP3    H124965   2.996   6.896  11.980  1.8191 -0.7157 -1.0776
 1158TIP3    H224966   2.883   6.957  11.900  0.1578  1.9132  2.9369
 1159TIP3   OH224967   1.426   0.269   0.660  0.0485  0.1817 -0.1045
 1159TIP3    H124968   1.377   0.336   0.707  0.8606  0.2565  0.6676
 1159TIP3    H224969   1.363   0.199   0.643 -0.3523  0.3322  0.7403
 1160TIP3   OH224970   3.597   4.166   1.424 -0.2297 -0.0202 -0.7597
 1160TIP3    H124971   3.502   4.169   1.435 -0.0536  0.3343  0.9961
 1160TIP3    H224972   3.621   4.254   1.396 -0.2960  0.3464  0.2728
 1161TIP3   OH224973   3.899   2.235  14.527  0.1466  0.3336  0.0243
 1161TIP3    H124974   3.917   2.144  14.503  1.3369  0.3923  0.6186
 1161TIP3    H224975   3.822   2.230  14.583  1.0715 -0.4971  1.2734
 1162TIP3   OH224976   2.929   5.913   1.105 -0.1987  0.0192  0.1200
 1162TIP3    H124977   2.915   5.821   1.081 -2.1869  0.1533  0.5927
 1162TIP3    H224978   2.953   5.956   1.022  1.0572 -0.9402 -0.0511
 1163TIP3   OH224979   3.680   2.142  11.025  0.0935 -0.5711 -0.2761
 1163TIP3    H124980   3.748   2.101  11.078  0.2701 -1.5118 -1.1811
 1163TIP3    H224981   3.681   2.234  11.051 -1.4940 -1.3751  3.0824
 1164TIP3   OH224982   5.036   1.998  11.563  0.2081 -0.2556  0.1274
 1164TIP3    H124983   5.104   2.050  11.521 -0.0192  1.3480  1.6258
 1164TIP3    H224984   4.954   2.037  11.532  0.0370  0.3073  1.2126
 1165TIP3   OH224985   6.588   1.530   2.618  0.5530 -0.1164  0.3693
 1165TIP3    H124986   6.553   1.445   2.644 -0.4729  0.1473 -0.0954
 1165TIP3    H224987   6.642   1.557   2.692 -0.3883 -0.4560  1.2043
 1166TIP3   OH224988   0.044   1.439   2.717  0.7517  0.2087  0.8962
 1166TIP3    H124989   0.132   1.475   2.724  0.6444  0.5352  0.6141
 1166TIP3    H224990  -0.006   1.507   2.671  0.7386 -0.6624 -0.4137
 1167TIP3   OH224991   2.385   6.498   9.727 -0.4102 -0.6513 -0.2698
 1167TIP3    H124992   2.427   6.569   9.677  1.2812 -1.8348 -0.6245
 1167TIP3    H224993   2.439   6.491   9.806 -0.7360 -1.3678 -0.1100
 1168TIP3   OH224994   3.965   4.250  13.606  0.4241 -0.1790  0.0899
 1168TIP3    H124995   3.984   4.313  13.676 -1.4779 -0.6983  1.1123
 1168TIP3    H224996   3.994   4.295  13.526  0.8642  1.2125  0.9956
 1169TIP3   OH224997   2.737   3.520   2.017 -0.1963 -0.4340  0.0280
 1169TIP3    H124998   2.820   3.479   2.038 -0.5535 -0.3820  1.6904
 1169TIP3    H224999   2.761   3.603   1.976  0.5937 -0.2881  0.7480
 1170TIP3   OH225000   4.114   5.279  12.295  0.0510 -0.4266 -0.4301
 1170TIP3    H125001   4.056   5.347  12.329  0.8751 -0.0516  0.2820
 1170TIP3    H225002   4.059   5.227  12.236 -1.5103 -1.1720  1.5512
 1171TIP3   OH225003   5.461   5.935  11.731 -0.5144 -0.2179  0.3942
 1171TIP3    H125004   5.444   5.891  11.647  0.5332  0.3607 -0.1430
 1171TIP3    H225005   5.552   5.962  11.726 -0.4546 -0.1005  1.7074
 1172TIP3   OH225006   1.846   4.450  11.937 -0.2978 -0.8155  0.2479
 1172TIP3    H125007   1.818   4.529  11.984  1.3838 -1.3349  2.2887
 1172TIP3    H225008   1.932   4.429  11.974  0.1715 -2.5259 -1.6207
 1173TIP3   OH225009   5.210   5.983  12.754  0.1807  0.2974  0.5271
 1173TIP3    H125010   5.159   6.049  12.707  0.8214  0.9257  0.6961
 1173TIP3    H225011   5.301   5.998  12.726  0.3119 -0.6614  0.3937
 1174TIP3   OH225012   2.975   0.412  14.869  0.3409  0.1625  0.0966
 1174TIP3    H125013   3.009   0.446  14.786  0.1795  0.6086  0.2112
 1174TIP3    H225014   3.044   0.430  14.933  0.5936 -0.4525  0.0077
 1175TIP3   OH225015   0.212   1.427  11.005 -0.2747 -0.0171  0.3153
 1175TIP3    H125016   0.298   1.394  11.030  0.4168  1.5024  0.0262
 1175TIP3    H225017   0.204   1.511  11.051 -1.2708  0.2307 -0.2842
 1176TIP3   OH225018   1.566   4.306  11.151  0.0570  0.3462 -0.0814
 1176TIP3    H125019   1.570   4.309  11.247 -2.2872 -1.4353  0.1652
 1176TIP3    H225020   1.658   4.305  11.124  0.7930  0.6624  2.1498
 1177TIP3   OH225021   6.686   1.552  10.638 -0.4330 -0.0358  0.0899
 1177TIP3    H125022   6.668   1.496  10.713 -0.6417 -1.4296 -0.9565
 1177TIP3    H225023   6.753   1.505  10.588  1.0360  1.7130  0.2830
 1178TIP3   OH225024   2.178   5.228  13.327  0.5555  0.2406 -1.2419
 1178TIP3    H125025   2.243   5.175  13.373  0.5344 -0.3215 -1.8395
 1178TIP3    H225026   2.195   5.318  13.355  1.5759  0.0959 -1.3788
 1179TIP3   OH225027   4.853   5.582  14.935 -0.1275  0.2810 -0.3393
 1179TIP3    H125028   4.777   5.614  14.983 -0.4610 -1.5081  0.4020
 1179TIP3    H225029   4.913   5.656  14.934 -1.6601  1.5802 -0.5111
 1180TIP3   OH225030   7.024   4.931  12.721  0.1753  0.1118  0.1445
 1180TIP3    H125031   7.074   4.891  12.650 -2.7260 -0.4493 -1.7782
 1180TIP3    H225032   7.049   5.023  12.719 -0.6224  0.3651 -2.5013
 1181TIP3   OH225033   2.005   1.199  11.376 -1.3007 -0.1455 -0.2163
 1181TIP3    H125034   1.936   1.211  11.441 -2.3042 -2.9217 -0.6606
 1181TIP3    H225035   1.997   1.108  11.348  1.9868 -0.3318 -0.9613
 1182TIP3   OH225036   3.864   5.476  13.492  0.7366  0.3054 -0.4990
 1182TIP3    H125037   3.894   5.451  13.405  2.1311 -0.9570  0.2993
 1182TIP3    H225038   3.944   5.489  13.542 -0.0131  2.4527  0.2575
 1183TIP3   OH225039   2.214   5.902  11.354  0.2888  0.0118 -0.2603
 1183TIP3    H125040   2.208   5.873  11.445 -0.8985  0.2884 -0.2335
 1183TIP3    H225041   2.184   5.993  11.356 -1.8177 -0.5966 -1.2131
 1184TIP3   OH225042   2.790   0.799  12.027 -0.7516 -0.0703 -0.4942
 1184TIP3    H125043   2.779   0.714  11.985  0.2659 -2.1639  3.0040
 1184TIP3    H225044   2.884   0.815  12.026 -0.7681  0.1545  0.2962
 1185TIP3   OH225045   6.287   5.386  13.510  0.4201  0.0266  0.0388
 1185TIP3    H125046   6.240   5.451  13.458  0.2415  0.2945  0.5237
 1185TIP3    H225047   6.369   5.371  13.462  0.0779 -0.0422 -0.5271
 1186TIP3   OH225048   2.515   2.196  12.243 -0.1162  0.1911 -0.0581
 1186TIP3    H125049   2.550   2.244  12.168  0.1063 -1.7424 -1.2527
 1186TIP3    H225050   2.437   2.152  12.209 -0.3375 -0.2739  1.0091
 1187TIP3   OH225051   2.744   0.083  11.523 -0.4322  0.9508 -1.1552
 1187TIP3    H125052   2.796   0.017  11.569 -2.4759  0.7149  1.0489
 1187TIP3    H225053   2.728   0.046  11.437 -0.5694 -0.9796 -0.3537
 1188TIP3   OH225054   4.349   5.457   1.374 -0.6424  0.8062  0.3509
 1188TIP3    H125055   4.418   5.410   1.422 -0.9294  0.4641  0.4320
 1188TIP3    H225056   4.267   5.425   1.412 -0.9250 -0.2973 -1.0925
 1189TIP3   OH225057   2.238   4.187  11.679  0.0139  0.1511 -0.0945
 1189TIP3    H125058   2.148   4.216  11.694  0.2481  1.0331 -0.3200
 1189TIP3    H225059   2.231   4.121  11.610 -0.3030  1.4616 -1.3739
 1190TIP3   OH225060   1.753   5.137   1.361  0.9226  0.2159  0.2486
 1190TIP3    H125061   1.806   5.213   1.384 -2.6234  2.4998  1.6697
 1190TIP3    H225062   1.664   5.171   1.353 -0.6663 -3.5753 -0.5179
 1191TIP3   OH225063   3.395   6.821  15.051  0.4438  0.4374  0.2205
 1191TIP3    H125064   3.423   6.733  15.025  0.4793  0.3767  0.4550
 1191TIP3    H225065   3.473   6.875  15.042  0.1041  0.7354 -1.1859
 1192TIP3   OH225066   2.198   5.170  13.717  0.3702 -0.2653  0.0013
 1192TIP3    H125067   2.259   5.230  13.673  0.3189 -0.4619 -0.3433
 1192TIP3    H225068   2.245   5.142  13.795  0.1298  0.7521  0.5409
 1193TIP3   OH225069   4.346   3.359  10.476 -0.2654  0.1746  0.1974
 1193TIP3    H125070   4.399   3.438  10.485  0.5560  0.0609 -2.6315
 1193TIP3    H225071   4.256   3.389  10.485 -0.2476  2.3056 -4.3420
 1194TIP3   OH225072   4.841   5.863  13.540  0.7482  0.2027  0.1420
 1194TIP3    H125073   4.872   5.854  13.631  3.0681  0.6079 -0.5364
 1194TIP3    H225074   4.824   5.957  13.530 -1.7027 -0.1141  0.7490
 1195TIP3   OH225075   6.380   2.266  10.251 -0.5621  0.0178  0.1284
 1195TIP3    H125076   6.366   2.263  10.156  1.1061 -0.5588 -0.1354
 1195TIP3    H225077   6.325   2.339  10.281 -2.1407 -0.6230 -1.0662
 1196TIP3   OH225078   4.113   0.692  13.073  0.4690  0.0963  0.3909
 1196TIP3    H125079   4.128   0.600  13.052  0.5965 -0.0220  0.9743
 1196TIP3    H225080   4.025   0.710  13.041  1.6060  0.7121 -2.7890
 1197TIP3   OH225081   6.198   3.943  12.416  0.3547 -0.3783  0.0740
 1197TIP3    H125082   6.119   3.958  12.467  1.2663 -1.4453  1.9497
 1197TIP3    H225083   6.170   3.889  12.343 -0.8397  0.2892  0.0165
 1198TIP3   OH225084   4.108   4.597   1.774  0.0844 -0.8133  0.3400
 1198TIP3    H125085   4.203   4.609   1.771  0.2784 -2.0737  0.8789
 1198TIP3    H225086   4.084   4.563   1.688  0.2398 -1.2404  0.4636
 1199TIP3   OH225087   5.671   3.325  12.480  0.4968 -0.1342  0.1532
 1199TIP3    H125088   5.598   3.286  12.528  0.5165  0.7435  0.9372
 1199TIP3    H225089   5.639   3.334  12.390 -0.2790  0.0304  0.4388
 1200TIP3   OH225090   3.830   6.988   1.964  0.1602 -0.0204  0.3374
 1200TIP3    H125091   3.917   6.983   1.925  0.4731  0.2564  0.9701
 1200TIP3    H225092   3.785   6.908   1.937  0.6146 -0.1637  0.0128
 1201TIP3   OH225093   6.512   6.361  11.341 -0.0531  0.3278 -0.2024
 1201TIP3    H125094   6.536   6.401  11.257 -1.0328 -1.0556 -1.1744
 1201TIP3    H225095   6.549   6.273  11.338  1.3070  0.7767  1.5418
 1202TIP3   OH225096   1.563   1.079  13.846 -0.3888  0.1668 -0.4673
 1202TIP3    H125097   1.635   1.138  13.824 -0.8295  1.1033  0.5501
 1202TIP3    H225098   1.549   1.092  13.940 -0.5644 -1.4886 -0.2402
 1203TIP3   OH225099   3.522   0.575  11.172 -0.2907 -0.5712  0.5089
 1203TIP3    H125100   3.528   0.544  11.082 -1.7331 -1.9035  0.8266
 1203TIP3    H225101   3.549   0.667  11.168  0.2021 -0.7574 -1.1679
 1204TIP3   OH225102   3.490   4.891  10.366  0.2547  0.2369  0.1028
 1204TIP3    H125103   3.506   4.885  10.460  1.0474  1.0283  0.0294
 1204TIP3    H225104   3.573   4.922  10.329 -0.3990  1.0563 -0.7254
 1205TIP3   OH225105   1.586   5.904  13.944  0.0250 -0.0533  0.4982
 1205TIP3    H125106   1.547   5.923  14.029 -0.4584 -1.6843  0.6750
 1205TIP3    H225107   1.515   5.864  13.893 -0.1289  2.1873 -1.2331
 1206TIP3   OH225108   6.439   3.355  11.989  0.2053  0.2831  0.1734
 1206TIP3    H125109   6.442   3.389  12.078  1.2243  2.2091 -0.5391
 1206TIP3    H225110   6.498   3.279  11.990  1.0366  0.9203  0.9118
 1207TIP3   OH225111   1.753   5.766  12.301 -0.1900 -0.5698 -0.1801
 1207TIP3    H125112   1.721   5.677  12.318 -2.1264  0.0622 -0.1745
 1207TIP3    H225113   1.766   5.804  12.388 -1.7972 -0.0946 -0.0995
 1208TIP3   OH225114   5.188   3.938  12.284 -0.6625  0.0769 -0.3540
 1208TIP3    H125115   5.283   3.949  12.274 -0.8629  1.2125 -1.1930
 1208TIP3    H225116   5.160   3.896  12.203 -0.5811 -2.6788  0.9144
 1209TIP3   OH225117   3.198   3.116   4.255 -0.1517 -0.0761 -0.0739
 1209TIP3    H125118   3.143   3.078   4.186 -0.1993  0.4125 -0.3108
 1209TIP3    H225119   3.173   3.208   4.257 -0.6581 -0.2174  1.0726
 1210TIP3   OH225120   0.187   1.725  13.701 -0.2650  0.1273  0.3475
 1210TIP3    H125121   0.186   1.751  13.794  1.7901 -0.3320  0.5432
 1210TIP3    H225122   0.222   1.802  13.656 -0.3199 -0.0087  0.0735
 1211TIP3   OH225123   4.794   0.157  10.624 -0.4720  0.2949  0.0651
 1211TIP3    H125124   4.839   0.094  10.568 -0.9240  1.4801 -1.7004
 1211TIP3    H225125   4.862   0.189  10.683  0.3864  0.1318 -0.8184
 1212TIP3   OH225126   4.961   5.257  15.612 -0.5993 -0.3437  0.4480
 1212TIP3    H125127   4.986   5.343  15.580 -1.6025 -0.1711  0.0969
 1212TIP3    H225128   5.000   5.251  15.699 -1.6167  0.9910  1.0140
 1213TIP3   OH225129   4.086   4.155  10.108 -0.2964  0.2157  0.4153
 1213TIP3    H125130   4.020   4.224  10.095 -0.5944 -0.4408 -1.9702
 1213TIP3    H225131   4.058   4.084  10.050  0.3645 -1.7055  2.3210
 1214TIP3   OH225132   4.084   6.824  12.981  0.3221  0.1426  0.7846
 1214TIP3    H125133   3.994   6.813  12.951  0.2690  0.3732  0.8615
 1214TIP3    H225134   4.100   6.919  12.978 -0.3498  0.4087  3.4265
 1215TIP3   OH225135   1.919   1.573  12.093 -0.2915 -0.5405  0.6109
 1215TIP3    H125136   1.971   1.518  12.034 -0.6379  1.0284 -1.2316
 1215TIP3    H225137   1.983   1.622  12.143  0.0094 -0.3127  0.0061
 1216TIP3   OH225138   5.600   2.038  11.389 -0.0216 -0.0785  0.0502
 1216TIP3    H125139   5.643   2.122  11.374 -0.0287 -0.1253 -0.2459
 1216TIP3    H225140   5.555   2.019  11.307 -0.1747 -0.2812  0.1795
 1217TIP3   OH225141   5.667   0.386   3.023  0.0267  0.0049 -0.2088
 1217TIP3    H125142   5.602   0.437   2.974  1.3670 -0.2875 -2.4163
 1217TIP3    H225143   5.748   0.394   2.972  1.6422 -0.0848  2.1447
 1218TIP3   OH225144   0.541   5.828  14.605 -0.1685 -0.1820 -0.4832
 1218TIP3    H125145   0.453   5.864  14.602  0.1100  0.7704  1.3861
 1218TIP3    H225146   0.529   5.734  14.623 -0.8157  0.3934  2.5327
 1219TIP3   OH225147   0.967   2.748   0.426  0.1394  0.4796  0.0959
 1219TIP3    H125148   0.892   2.806   0.445  0.4504  0.1895  2.5600
 1219TIP3    H225149   0.958   2.727   0.334 -1.6519  2.1185 -0.1723
 1220TIP3   OH225150   4.731   0.200  12.998  0.3769 -0.0367 -0.2256
 1220TIP3    H125151   4.786   0.263  13.044  0.6502 -0.6064  0.2449
 1220TIP3    H225152   4.774   0.116  13.013  1.1379 -0.1122 -2.4985
 1221TIP3   OH225153   6.506   1.859   2.457 -0.1522  0.2932 -0.2861
 1221TIP3    H125154   6.551   1.934   2.497 -2.7265  1.7354  0.1587
 1221TIP3    H225155   6.511   1.876   2.363  0.9668 -0.0628 -0.3071
 1222TIP3   OH225156   3.103   2.492   0.694 -0.4934 -0.1912  0.0902
 1222TIP3    H125157   3.188   2.458   0.724 -0.2423 -0.3631 -0.7929
 1222TIP3    H225158   3.058   2.415   0.658 -1.1419 -0.1536  0.7859
 1223TIP3   OH225159   1.548   6.521  11.723 -0.0515 -0.3945 -0.1665
 1223TIP3    H125160   1.573   6.613  11.718 -1.1246 -0.1345 -1.0710
 1223TIP3    H225161   1.456   6.522  11.747  0.0125 -1.2463  0.1386
 1224TIP3   OH225162   6.786   2.874  12.874 -0.8509 -0.1731 -0.4700
 1224TIP3    H125163   6.788   2.956  12.824 -0.2576  0.0657 -0.0690
 1224TIP3    H225164   6.695   2.845  12.868 -1.3717  1.1631  0.4356
 1225TIP3   OH225165   2.558   3.634  14.464 -0.3074  0.4730  0.2117
 1225TIP3    H125166   2.617   3.709  14.453  0.4754 -0.2759 -0.7792
 1225TIP3    H225167   2.475   3.674  14.491 -0.0320  1.7431 -0.7135
 1226TIP3   OH225168   4.614   0.943  10.616  0.4303 -0.3685 -0.5089
 1226TIP3    H125169   4.548   1.013  10.617  1.7680  1.0110 -1.9534
 1226TIP3    H225170   4.697   0.989  10.626  1.2511 -2.0180  0.8033
 1227TIP3   OH225171   3.185   5.854   1.935  0.0130  0.1421 -0.3916
 1227TIP3    H125172   3.127   5.930   1.932 -1.1975 -0.7654 -1.1360
 1227TIP3    H225173   3.140   5.791   1.991  0.1131 -0.6816 -1.2018
 1228TIP3   OH225174   0.100   5.875   9.929 -0.1627  0.2546  0.0926
 1228TIP3    H125175   0.191   5.902   9.922 -0.2695  0.8807  1.0021
 1228TIP3    H225176   0.053   5.954   9.955 -0.8794 -0.1909  0.1920
 1229TIP3   OH225177   1.654   2.454  12.212  0.1920 -0.1791 -0.4624
 1229TIP3    H125178   1.707   2.526  12.247  0.7213 -0.6996 -0.1689
 1229TIP3    H225179   1.595   2.496  12.150 -0.2053  0.6572  0.4425
 1230TIP3   OH225180   0.455   6.556  11.419  0.0316 -0.0794 -0.1043
 1230TIP3    H125181   0.420   6.618  11.484  0.2115 -0.5391  0.4413
 1230TIP3    H225182   0.424   6.589  11.335 -0.3924  0.4022  0.2362
 1231TIP3   OH225183   5.871   0.382   2.835  0.2388 -0.1190  0.6945
 1231TIP3    H125184   5.837   0.360   2.748  0.7404  0.0560  0.4564
 1231TIP3    H225185   5.925   0.459   2.822  1.2076 -0.7364  0.9811
 1232TIP3   OH225186   7.013   4.218  10.616 -0.1450 -0.1307 -0.4338
 1232TIP3    H125187   6.955   4.145  10.635  0.4342 -0.5947 -0.4014
 1232TIP3    H225188   7.073   4.185  10.549 -0.7779  0.7884 -1.4914
 1233TIP3   OH225189   1.461   2.575   5.449  0.2027  0.6692  0.3111
 1233TIP3    H125190   1.534   2.514   5.457 -0.2615  0.1719  0.8868
 1233TIP3    H225191   1.460   2.600   5.357  1.4946  1.1930  0.4224
 1234TIP3   OH225192   5.814   0.565  10.541 -0.1982  0.2888  0.2872
 1234TIP3    H125193   5.744   0.548  10.478 -0.8298 -1.7637  1.4514
 1234TIP3    H225194   5.768   0.598  10.619  0.4642  1.7653  0.0870
 1235TIP3   OH225195   2.640   2.382  12.021 -0.1327 -0.0908  0.4267
 1235TIP3    H125196   2.569   2.436  12.054  0.6418  1.0105  0.3552
 1235TIP3    H225197   2.630   2.383  11.926 -1.7071 -2.3468  0.5037
 1236TIP3   OH225198   6.833   5.698  15.046 -0.1019 -0.3980  0.2315
 1236TIP3    H125199   6.889   5.654  14.982  1.2537 -1.4094  2.0242
 1236TIP3    H225200   6.755   5.642  15.052 -0.5714  0.0836 -0.9972
 1237TIP3   OH225201   6.926   0.057  15.669  0.2698  0.2172  0.8064
 1237TIP3    H125202   6.942   0.037  15.761  1.5223 -1.9894  0.1924
 1237TIP3    H225203   7.011   0.088  15.636  0.3325 -0.7056  0.0418
 1238TIP3   OH225204   1.310   2.390   9.837 -0.8317 -0.1122  0.0239
 1238TIP3    H125205   1.310   2.313   9.780 -1.4551 -0.0298 -0.0893
 1238TIP3    H225206   1.271   2.459   9.784  1.1709  0.7332 -0.4559
 1239TIP3   OH225207   6.846   3.160  15.622  0.6150 -0.1466 -0.7122
 1239TIP3    H125208   6.889   3.135  15.541  0.1793 -0.5534 -0.8285
 1239TIP3    H225209   6.837   3.255  15.617 -0.0249 -0.2314 -1.4641
 1240TIP3   OH225210   0.768   5.852  13.932  0.3708 -0.2848 -0.2227
 1240TIP3    H125211   0.773   5.759  13.953 -1.3460 -0.2226  0.6666
 1240TIP3    H225212   0.857   5.876  13.905  1.0739 -1.9410  0.5019
 1241TIP3   OH225213   7.028   6.754  12.316 -0.3216 -0.2284  0.3438
 1241TIP3    H125214   7.007   6.845  12.336 -0.9284 -0.6833  1.9497
 1241TIP3    H225215   7.102   6.733  12.374  0.6709 -0.3920 -0.9488
 1242TIP3   OH225216   0.176   6.197  13.991  0.1853 -0.0161  0.0817
 1242TIP3    H125217   0.182   6.130  13.923  2.0221 -1.3259  1.4267
 1242TIP3    H225218   0.098   6.174  14.041 -0.3600  0.1067 -0.6983
 1243TIP3   OH225219   3.388   4.492  10.891  0.3394 -0.1401 -0.1567
 1243TIP3    H125220   3.460   4.452  10.841  0.3052  0.6512 -0.8651
 1243TIP3    H225221   3.430   4.529  10.969  0.3476 -1.6700  0.5947
 1244TIP3   OH225222   1.980   1.598   9.851 -0.4367 -0.6377 -0.0860
 1244TIP3    H125223   1.908   1.660   9.845  0.5370  0.4779 -0.7147
 1244TIP3    H225224   2.044   1.629   9.787 -0.5008 -3.1388 -1.5189
 1245TIP3   OH225225   5.998   7.020   2.746 -0.1882  0.3254 -0.1121
 1245TIP3    H125226   5.988   6.969   2.826 -1.2256 -1.2847 -1.1894
 1245TIP3    H225227   6.092   7.037   2.739 -0.0304  0.0184  1.1439
 1246TIP3   OH225228   6.899   0.548  10.290  0.0126 -0.1772  0.1245
 1246TIP3    H125229   6.898   0.456  10.263 -1.1892  0.0205 -0.5710
 1246TIP3    H225230   6.959   0.551  10.365 -0.3345 -1.6273  0.4866
 1247TIP3   OH225231   0.816   7.003  11.980 -0.0412  0.0553  0.3779
 1247TIP3    H125232   0.834   7.037  11.893  2.4834 -1.7914  0.0647
 1247TIP3    H225233   0.722   7.016  11.992 -0.0726  2.4067 -1.6501
 1248TIP3   OH225234   5.969   0.822  13.090  0.3467 -0.5098  0.4898
 1248TIP3    H125235   5.999   0.789  13.176  2.4792 -0.4041 -0.1573
 1248TIP3    H225236   6.018   0.769  13.027  2.0685  2.2308 -0.6142
 1249TIP3   OH225237   1.566   0.644  10.280 -0.2856  0.0299 -0.4280
 1249TIP3    H125238   1.576   0.603  10.195 -0.3874 -2.0234  0.4937
 1249TIP3    H225239   1.471   0.643  10.295 -0.2614  0.3080 -0.2559
 1250TIP3   OH225240   4.269   5.480   1.941  0.2455  0.6487  0.2072
 1250TIP3    H125241   4.179   5.495   1.971 -0.1433 -0.6432 -0.2783
 1250TIP3    H225242   4.323   5.501   2.018 -0.6276 -1.0602  1.3539
 1251TIP3   OH225243   1.966   6.559  12.008 -0.2177  0.5383 -0.4266
 1251TIP3    H125244   1.905   6.504  12.058  0.4495  0.6849  0.5689
 1251TIP3    H225245   1.934   6.554  11.918 -2.1813  1.2589  0.1858
 1252TIP3   OH225246   2.321   0.863  13.737  0.2102 -0.3925  0.4822
 1252TIP3    H125247   2.353   0.781  13.699 -1.1195 -0.4094 -0.6619
 1252TIP3    H225248   2.236   0.877  13.696  0.0132  1.1076  1.3389
 1253TIP3   OH225249   0.623   5.660  12.402  0.1690  0.2580  0.4997
 1253TIP3    H125250   0.587   5.572  12.414 -0.0618 -0.3441 -3.2850
 1253TIP3    H225251   0.713   5.645  12.372 -0.0817  1.2239 -0.8310
 1254TIP3   OH225252   3.923   6.622  13.221 -0.2380  0.4070  0.4371
 1254TIP3    H125253   3.855   6.672  13.266  0.6423  0.3554  1.9082
 1254TIP3    H225254   3.951   6.556  13.285 -1.7761 -2.4531 -1.6372
 1255TIP3   OH225255   1.994   4.469   0.810  0.1466 -0.3873  0.4025
 1255TIP3    H125256   1.935   4.504   0.876 -0.4763  1.4988 -1.0774
 1255TIP3    H225257   2.081   4.470   0.852 -0.1185  1.3954  0.9970
 1256TIP3   OH225258   1.840   5.263   1.999  0.5690  0.7463 -1.0024
 1256TIP3    H125259   1.866   5.262   2.091  2.0928  0.9351 -1.4008
 1256TIP3    H225260   1.851   5.355   1.972  1.1536  0.5064 -1.6212
 1257TIP3   OH225261   0.416   1.449  12.131 -0.4816  0.4779  0.4610
 1257TIP3    H125262   0.367   1.439  12.212 -1.9892  0.3646 -0.4291
 1257TIP3    H225263   0.374   1.522  12.086 -1.3422 -1.0356 -1.3407
 1258TIP3   OH225264   3.813   6.297  13.837 -0.0064  0.2720  0.0469
 1258TIP3    H125265   3.751   6.370  13.833  2.4837  2.6293  1.1984
 1258TIP3    H225266   3.817   6.274  13.930  0.4591 -0.1976 -0.0824
 1259TIP3   OH225267   6.028   2.879  13.844  0.4043 -0.0162 -0.4356
 1259TIP3    H125268   6.099   2.942  13.857  1.2610 -1.1484  0.5910
 1259TIP3    H225269   6.072   2.798  13.818 -0.6780 -0.2417 -1.7045
 1260TIP3   OH225270   6.386   4.874  12.915  0.1808 -0.2752  0.0436
 1260TIP3    H125271   6.367   4.780  12.916  0.7621 -0.4179 -0.9472
 1260TIP3    H225272   6.304   4.914  12.943  0.9185 -1.1439  4.1231
 1261TIP3   OH225273   7.103   5.078  11.385 -0.6268  0.6825  0.3409
 1261TIP3    H125274   7.012   5.069  11.360 -0.5446  0.8177 -0.0073
 1261TIP3    H225275   7.101   5.136  11.462 -0.8249  0.7441  0.2885
 1262TIP3   OH225276   4.879   6.369  10.285 -0.1617 -0.8030  0.2007
 1262TIP3    H125277   4.825   6.301  10.245 -1.5660 -0.3367  1.2278
 1262TIP3    H225278   4.914   6.418  10.210 -1.2497 -1.0769 -0.5166
 1263TIP3   OH225279   1.176   2.633  14.592  0.6692 -0.2196  0.1070
 1263TIP3    H125280   1.139   2.559  14.640  1.0605  0.5437  1.6564
 1263TIP3    H225281   1.242   2.594  14.535 -0.2484 -1.2244 -0.3160
 1264TIP3   OH225282   2.737   0.806  10.714 -0.5041  0.3789  0.7070
 1264TIP3    H125283   2.804   0.738  10.717 -1.9090 -1.1666 -0.7894
 1264TIP3    H225284   2.769   0.874  10.774  1.8513 -0.7492  0.8514
 1265TIP3   OH225285   0.209   1.610  12.118 -0.9253  0.2827 -0.2269
 1265TIP3    H125286   0.162   1.616  12.035 -0.5578 -3.5583 -0.8978
 1265TIP3    H225287   0.182   1.525  12.155 -0.8082  1.6576  3.4800
 1266TIP3   OH225288   0.332   4.148   0.886  0.4480 -0.1735 -0.2215
 1266TIP3    H125289   0.245   4.178   0.858  0.5559  2.1779  1.5638
 1266TIP3    H225290   0.386   4.153   0.808 -0.3391  1.4035 -0.7124
 1267TIP3   OH225291   1.374   0.481  15.749  0.3108  0.1535  0.2087
 1267TIP3    H125292   1.424   0.553  15.712  0.5561  0.8712  1.8316
 1267TIP3    H225293   1.361   0.505  15.841  1.6330 -2.4759  1.2169
 1268TIP3   OH225294   3.053   3.854  13.600 -0.1093  0.2989  0.6343
 1268TIP3    H125295   3.122   3.919  13.614 -0.1365  0.7715 -1.2350
 1268TIP3    H225296   3.034   3.857  13.507 -1.6375 -0.8852  0.8476
 1269TIP3   OH225297   1.936   0.303  14.212  0.0225  0.7163  0.5230
 1269TIP3    H125298   1.891   0.291  14.296 -2.5942  1.5727 -0.6346
 1269TIP3    H225299   1.952   0.397  14.207 -2.5231  1.1831 -1.0538
 1270TIP3   OH225300   3.217   2.471  12.295 -0.5468 -0.3986  0.3953
 1270TIP3    H125301   3.228   2.538  12.228  2.6384 -0.0194  1.1380
 1270TIP3    H225302   3.141   2.420  12.266 -0.5310  0.9927 -2.3878
 1271TIP3   OH225303   3.468   4.550   3.270 -0.0991  0.1639  0.0126
 1271TIP3    H125304   3.381   4.543   3.309 -0.7673 -0.3123 -1.4705
 1271TIP3    H225305   3.483   4.644   3.260 -0.4698  0.2448  0.2331
 1272TIP3   OH225306   0.493   1.715  11.002 -0.5303 -0.0957  0.0911
 1272TIP3    H125307   0.456   1.679  11.082 -0.7308 -1.6087 -0.6297
 1272TIP3    H225308   0.588   1.717  11.018 -0.4037 -1.9661 -0.1819
 1273TIP3   OH225309   0.959   3.793  13.127  0.2502  0.0626 -0.3311
 1273TIP3    H125310   1.044   3.832  13.147 -0.5086  0.7947  1.7165
 1273TIP3    H225311   0.969   3.757  13.039  2.7758 -0.1533 -0.0193
 1274TIP3   OH225312   5.477   0.638   0.564 -0.1121  0.5847  0.7266
 1274TIP3    H125313   5.398   0.585   0.568  0.2806 -0.1556 -0.6736
 1274TIP3    H225314   5.460   0.703   0.496  1.4746 -1.4385 -1.8009
 1275TIP3   OH225315   4.126   5.755   0.781  0.0993  0.0836 -0.3168
 1275TIP3    H125316   4.074   5.809   0.722 -0.0954  0.7111  0.4127
 1275TIP3    H225317   4.065   5.728   0.849  0.7423  0.9777  0.6488
 1276TIP3   OH225318   6.395   3.247  10.672  0.1872 -0.2389 -0.1769
 1276TIP3    H125319   6.419   3.256  10.580  1.9003 -0.8830  0.1630
 1276TIP3    H225320   6.380   3.336  10.702 -0.4623 -0.0294 -1.0878
 1277TIP3   OH225321   3.790   3.167  10.172  0.2812  0.3097  0.0159
 1277TIP3    H125322   3.778   3.170  10.077  1.3185  0.0644 -0.1379
 1277TIP3    H225323   3.749   3.247  10.204  0.3584  0.6459 -0.7016
 1278TIP3   OH225324   2.156   5.761  13.752  0.6664 -0.8216 -0.2941
 1278TIP3    H125325   2.185   5.716  13.831 -0.5454 -1.2080 -0.0479
 1278TIP3    H225326   2.185   5.851  13.763 -1.1239 -0.4087  1.4974
 1279TIP3   OH225327   7.022   5.223   3.582 -0.1664 -0.3543 -0.1286
 1279TIP3    H125328   7.095   5.205   3.522 -0.7122 -0.1596 -0.8546
 1279TIP3    H225329   6.945   5.186   3.539 -0.5278 -0.4506  0.5796
 1280TIP3   OH225330   0.286   0.185  11.262 -0.1235 -0.6433 -1.0305
 1280TIP3    H125331   0.192   0.199  11.258 -0.2308 -1.0697 -0.1312
 1280TIP3    H225332   0.300   0.133  11.341  0.6856 -1.9561 -1.9916
 1281TIP3   OH225333   2.315   6.988  15.606  0.1355 -0.2002 -0.0306
 1281TIP3    H125334   2.230   6.945  15.599 -0.4168  0.6760  1.0280
 1281TIP3    H225335   2.306   7.047  15.681  2.6335 -2.2362  2.0068
 1282TIP3   OH225336   3.895   3.934  13.153 -0.1278  0.1030 -0.0066
 1282TIP3    H125337   3.924   3.932  13.244 -0.9897  1.1071  0.3129
 1282TIP3    H225338   3.975   3.919  13.102  0.4494  0.0021  0.9042
 1283TIP3   OH225339   6.209   5.153   0.866  0.8218  0.2624 -0.7191
 1283TIP3    H125340   6.229   5.237   0.908  0.4302  0.9486 -1.8604
 1283TIP3    H225341   6.135   5.172   0.808 -0.1537 -1.1732 -0.0277
 1284TIP3   OH225342   6.736   1.555   0.452  0.4339 -0.2089  0.0983
 1284TIP3    H125343   6.752   1.461   0.456 -0.8722 -0.6137 -2.4244
 1284TIP3    H225344   6.681   1.573   0.528 -1.0362 -1.8959 -0.5155
 1285TIP3   OH225345   1.432   5.428  13.325  0.7960  0.7634  0.3358
 1285TIP3    H125346   1.439   5.363  13.395 -2.5981  0.4441  0.5501
 1285TIP3    H225347   1.409   5.509  13.370 -0.4830  0.7756 -0.3005
 1286TIP3   OH225348   5.675   0.338  14.666 -0.0382  0.0011 -0.1439
 1286TIP3    H125349   5.704   0.340  14.575  0.7597  2.6192  0.0866
 1286TIP3    H225350   5.642   0.249  14.679  0.9095 -0.7928 -2.6303
 1287TIP3   OH225351   0.066   0.517  10.125 -0.4703  0.1516  0.0606
 1287TIP3    H125352  -0.009   0.465  10.097 -0.0858 -0.1949 -0.3260
 1287TIP3    H225353   0.076   0.583  10.056  0.4391 -0.6651 -0.6162
 1288TIP3   OH225354   1.870   3.284  12.931 -0.2868 -0.2549 -0.4726
 1288TIP3    H125355   1.811   3.226  12.977  0.2521 -1.5751 -1.3964
 1288TIP3    H225356   1.914   3.333  13.000 -0.2519 -1.4367  0.3678
 1289TIP3   OH225357   0.746   6.045   5.614 -0.6163  0.2738  0.0110
 1289TIP3    H125358   0.693   6.085   5.545  0.2930  1.4554 -0.0406
 1289TIP3    H225359   0.803   6.116   5.644  0.1802 -0.6760  0.8046
 1290TIP3   OH225360   5.093   6.629  12.628 -0.3108  0.9279 -0.1563
 1290TIP3    H125361   5.145   6.650  12.550 -2.0059  2.7825 -0.8835
 1290TIP3    H225362   5.068   6.538  12.617 -0.3583  1.1056 -1.7139
 1291TIP3   OH225363   6.773   2.209  11.096 -0.5923 -0.3857  0.1229
 1291TIP3    H125364   6.764   2.280  11.159  0.1764  1.1215 -1.4135
 1291TIP3    H225365   6.857   2.224  11.054 -1.2608 -1.1101 -1.5524
 1292TIP3   OH225366   2.541   4.227  13.249  0.3002 -0.1865  0.1145
 1292TIP3    H125367   2.520   4.311  13.289 -1.6376 -0.1130 -0.9344
 1292TIP3    H225368   2.496   4.162  13.302 -0.1396 -0.3357 -0.4358
 1293TIP3   OH225369   5.823   5.399  15.310  0.0896 -0.2020 -0.1606
 1293TIP3    H125370   5.906   5.407  15.358  1.8324 -0.2574 -2.9528
 1293TIP3    H225371   5.771   5.338  15.363  1.4270  0.5301  2.1460
 1294TIP3   OH225372   2.035   6.788  12.558 -0.2225  0.3654 -0.0659
 1294TIP3    H125373   1.957   6.733  12.548  0.8082 -1.2927  0.6304
 1294TIP3    H225374   2.010   6.872  12.519 -1.6270 -0.7836 -1.8163
 1295TIP3   OH225375   3.934   5.316  12.954 -0.1254  0.0817 -0.2414
 1295TIP3    H125376   4.003   5.381  12.970  0.7878 -1.1493  1.0839
 1295TIP3    H225377   3.853   5.362  12.978  0.7268  0.0246  3.3070
 1296TIP3   OH225378   1.538   1.472   0.611  0.3903 -0.2645  0.1727
 1296TIP3    H125379   1.610   1.442   0.666  1.1068  0.7769 -0.1773
 1296TIP3    H225380   1.547   1.567   0.610 -1.7588  0.0133  1.1733
 1297TIP3   OH225381   4.308   2.236  11.376 -0.0369 -0.2762  0.1070
 1297TIP3    H125382   4.334   2.184  11.453  0.9154 -1.7929 -1.1873
 1297TIP3    H225383   4.387   2.281  11.349 -0.1523 -0.4183 -0.4820
 1298TIP3   OH225384   6.654   1.051  14.312  0.1248  0.4505  0.2465
 1298TIP3    H125385   6.693   0.963  14.315 -1.4471 -0.2781  0.2264
 1298TIP3    H225386   6.680   1.086  14.227  0.9516  0.1033  0.3482
 1299TIP3   OH225387   0.153   4.635   4.773 -0.6032 -0.3898  0.0309
 1299TIP3    H125388   0.151   4.574   4.846 -2.1691 -1.1894 -0.6414
 1299TIP3    H225389   0.171   4.720   4.813 -2.0818 -0.7000  1.4537
 1300TIP3   OH225390   3.899   4.389  10.794  0.2872  0.0698  0.2804
 1300TIP3    H125391   3.944   4.338  10.726 -1.1291 -0.2769 -0.4271
 1300TIP3    H225392   3.934   4.355  10.876 -0.0658 -1.5323 -0.2003
 1301TIP3   OH225393   2.500   3.438   1.503 -0.7849 -0.2670 -0.0305
 1301TIP3    H125394   2.595   3.449   1.497 -0.8396 -0.5665 -2.7342
 1301TIP3    H225395   2.479   3.462   1.594  1.4236  3.2719 -0.2452
 1302TIP3   OH225396   5.640   6.425   0.565 -0.0667  0.2163 -0.0304
 1302TIP3    H125397   5.646   6.475   0.484  2.2566 -1.1219 -0.7946
 1302TIP3    H225398   5.585   6.349   0.543 -2.6908  1.7518  0.8287
 1303TIP3   OH225399   2.469   5.116   0.166 -0.3762 -0.2074  0.2367
 1303TIP3    H125400   2.393   5.076   0.124 -0.1572  1.0229 -1.4352
 1303TIP3    H225401   2.536   5.047   0.166 -0.8961 -0.7170  0.0232
 1304TIP3   OH225402   5.688   6.700  11.070  0.6316 -0.0511  0.0923
 1304TIP3    H125403   5.764   6.732  11.118  2.1190  0.9884 -2.7075
 1304TIP3    H225404   5.701   6.731  10.980 -1.5555 -2.4781 -1.2236
 1305TIP3   OH225405   0.861   2.419   0.237 -0.6300 -0.3964 -0.4637
 1305TIP3    H125406   0.770   2.389   0.239 -0.4987 -0.8340 -0.9058
 1305TIP3    H225407   0.887   2.412   0.145 -0.6346  1.2146 -0.6005
 1306TIP3   OH225408   2.168   5.213  14.127 -0.2384  0.1068 -0.1902
 1306TIP3    H125409   2.227   5.254  14.190  0.9661 -1.9370  0.1154
 1306TIP3    H225410   2.098   5.176  14.181 -1.4729  1.8691 -0.4869
 1307TIP3   OH225411   6.419   1.713  15.582 -0.3426  0.8286  0.1512
 1307TIP3    H125412   6.373   1.633  15.608  0.4024  0.8059  1.4713
 1307TIP3    H225413   6.350   1.780  15.575 -0.7532  0.4615  0.6810
 1308TIP3   OH225414   4.152   1.861  13.801 -0.0509  0.0075  0.0261
 1308TIP3    H125415   4.169   1.782  13.852  0.0831 -0.2537 -0.4162
 1308TIP3    H225416   4.061   1.853  13.773  0.5108 -0.9556 -1.6522
 1309TIP3   OH225417   4.241   1.743   0.158  0.6417  0.1568 -0.1416
 1309TIP3    H125418   4.197   1.829   0.163 -1.2876 -0.8146  1.3802
 1309TIP3    H225419   4.282   1.733   0.244 -1.8161 -1.6729  0.9379
 1310TIP3   OH225420   2.469   3.323  13.228 -0.0574 -0.3610 -0.1709
 1310TIP3    H125421   2.436   3.239  13.197 -0.1550 -0.0501 -0.9497
 1310TIP3    H225422   2.478   3.313  13.323 -1.0776 -0.9072 -0.1211
 1311TIP3   OH225423   5.963   1.670  15.647 -0.2021  0.0734  0.2915
 1311TIP3    H125424   5.891   1.630  15.695 -0.5126  1.1937  0.8024
 1311TIP3    H225425   6.019   1.708  15.715  1.1725 -1.2164 -0.0620
 1312TIP3   OH225426   1.759   5.453  11.027 -0.2726  0.1836 -1.0241
 1312TIP3    H125427   1.797   5.380  11.075 -0.7498  0.6461  0.0741
 1312TIP3    H225428   1.802   5.450  10.941  1.7378  0.2736 -0.0706
 1313TIP3   OH225429   6.213   4.716  11.129  0.3943 -0.1484  1.3476
 1313TIP3    H125430   6.272   4.709  11.204  1.0476  2.3454  1.1776
 1313TIP3    H225431   6.271   4.735  11.055 -0.4490  0.0844  0.7345
 1314TIP3   OH225432   4.724   5.558  11.384  0.6196 -0.1602  0.5749
 1314TIP3    H125433   4.758   5.475  11.350 -0.6634 -0.1982 -0.7331
 1314TIP3    H225434   4.637   5.566  11.345  0.6210  1.7014  0.8517
 1315TIP3   OH225435   4.612   4.818   0.327 -0.2090  0.5226 -0.4170
 1315TIP3    H125436   4.606   4.729   0.292  0.7024  1.0926 -2.1131
 1315TIP3    H225437   4.609   4.875   0.250  1.2646  1.8669  0.4672
 1316TIP3   OH225438   1.213   0.169  12.750  0.2713 -0.0688 -0.2574
 1316TIP3    H125439   1.186   0.147  12.660  2.0950 -0.1880 -0.8123
 1316TIP3    H225440   1.187   0.260  12.761  0.5079  0.1136 -1.1049
 1317TIP3   OH225441   5.875   1.818  14.617 -0.1120 -0.0130 -0.1239
 1317TIP3    H125442   5.812   1.864  14.672  0.9143  0.1129  0.9932
 1317TIP3    H225443   5.933   1.887  14.584 -0.4529 -0.1429 -1.0279
 1318TIP3   OH225444   1.668   6.939   2.281 -0.0007  1.3632  0.3441
 1318TIP3    H125445   1.755   6.920   2.245  1.0051  2.8414  1.8653
 1318TIP3    H225446   1.665   6.892   2.364 -1.4020 -0.0968 -0.4471
 1319TIP3   OH225447   1.404   1.270  15.557 -0.1845 -0.1924 -0.1858
 1319TIP3    H125448   1.492   1.303  15.541  0.0063 -0.9811 -0.7816
 1319TIP3    H225449   1.395   1.194  15.500  0.1378 -2.4777  2.5453
 1320TIP3   OH225450   1.604   0.070  11.756 -0.6932  0.7374 -0.3935
 1320TIP3    H125451   1.642   0.140  11.809 -1.4072  1.2636 -0.5589
 1320TIP3    H225452   1.615  -0.009  11.809  0.4174  0.9102 -0.3488
 1321TIP3   OH225453   0.011   1.816  14.135  0.6031  0.4107  0.1110
 1321TIP3    H125454   0.078   1.845  14.197 -0.0193  1.5701  0.2637
 1321TIP3    H225455  -0.068   1.862  14.162 -0.9436 -2.7146  1.4383
 1322TIP3   OH225456   6.159   5.380  10.585  0.3262 -0.0066 -0.4447
 1322TIP3    H125457   6.084   5.408  10.638  0.4023 -0.3509 -0.1489
 1322TIP3    H225458   6.120   5.346  10.504  0.1583 -0.1886 -0.2893
 1323TIP3   OH225459   7.055   0.665  12.045 -0.0855  0.7211 -0.0317
 1323TIP3    H125460   7.038   0.570  12.044  3.4322 -0.0655  0.1696
 1323TIP3    H225461   6.978   0.703  12.087 -0.8314 -2.2766  1.6289
 1324TIP3   OH225462   5.889   3.527   4.033  0.5426 -0.0752 -0.0376
 1324TIP3    H125463   5.921   3.571   4.112  0.5868  1.3532 -0.8401
 1324TIP3    H225464   5.868   3.597   3.972 -1.5434 -1.0491 -0.5467
 1325TIP3   OH225465   1.850   2.100  14.692 -0.4642 -0.7653  0.2162
 1325TIP3    H125466   1.798   2.165  14.645 -0.2154 -0.5129  0.2851
 1325TIP3    H225467   1.802   2.088  14.775  0.1708  0.3067  0.7672
 1326TIP3   OH225468   2.493   5.134  14.166 -0.5530 -0.7035 -0.0335
 1326TIP3    H125469   2.460   5.200  14.228 -0.5337  0.5559 -1.3016
 1326TIP3    H225470   2.433   5.060  14.176  0.0985 -1.0107  2.2579
 1327TIP3   OH225471   0.623   0.993   1.961 -0.1408  0.0094  0.2603
 1327TIP3    H125472   0.704   0.956   1.995 -1.5314 -2.5272  1.1169
 1327TIP3    H225473   0.651   1.049   1.889  2.3425 -1.2634  0.1073
 1328TIP3   OH225474   3.826   2.360  12.166 -0.0880 -0.4868 -0.1656
 1328TIP3    H125475   3.763   2.405  12.110 -0.8626 -0.6775  0.5130
 1328TIP3    H225476   3.891   2.426  12.188 -0.5304 -0.0358 -0.1846
 1329TIP3   OH225477   5.564   1.646  10.501  0.1514 -0.3038 -0.1022
 1329TIP3    H125478   5.648   1.600  10.495 -0.4743 -1.4037 -0.7720
 1329TIP3    H225479   5.534   1.632  10.591  0.7664  0.2713  0.2018
 1330TIP3   OH225480   3.254   0.657  12.323 -0.0254 -0.5410  0.1040
 1330TIP3    H125481   3.301   0.641  12.405  2.5906  1.4711 -0.8340
 1330TIP3    H225482   3.320   0.644  12.255 -1.5947 -0.2521 -1.5426
 1331TIP3   OH225483   0.212   3.604  15.101 -0.2645  0.0616 -0.0619
 1331TIP3    H125484   0.205   3.661  15.024  0.8129 -0.2229 -0.3962
 1331TIP3    H225485   0.305   3.582  15.105 -0.6752 -1.7999 -0.0398
 1332TIP3   OH225486   4.183   0.171  10.971  0.3175 -0.6544 -0.2598
 1332TIP3    H125487   4.268   0.172  11.014 -0.6604  0.0680  1.8476
 1332TIP3    H225488   4.131   0.108  11.022 -0.9524  0.3346 -0.2701
 1333TIP3   OH225489   2.329   1.003  13.011 -0.7896 -0.0921 -0.1530
 1333TIP3    H125490   2.260   1.003  13.078  1.1230  2.3692  2.0527
 1333TIP3    H225491   2.295   1.058  12.940 -1.8762 -0.6053 -0.0341
 1334TIP3   OH225492   6.507   5.180  13.554 -0.1923 -0.0193 -0.1379
 1334TIP3    H125493   6.537   5.093  13.579  1.4673  0.2586 -1.0277
 1334TIP3    H225494   6.455   5.166  13.475 -0.4755 -0.2494  0.0846
 1335TIP3   OH225495   4.730   3.712  13.246  0.3828  0.8805  0.0483
 1335TIP3    H125496   4.761   3.651  13.314 -0.8847  0.1876  0.0282
 1335TIP3    H225497   4.809   3.757  13.217  1.0834  0.5574  1.3684
 1336TIP3   OH225498   3.320   2.554  11.814 -0.0406 -0.1250  0.1091
 1336TIP3    H125499   3.247   2.531  11.756 -0.9099  0.9121  0.7487
 1336TIP3    H225500   3.394   2.502  11.782 -0.1405  1.3116 -2.7040
 1337TIP3   OH225501   2.266   6.979   4.499  0.0165  0.4794 -0.0147
 1337TIP3    H125502   2.358   6.989   4.525 -0.4487  1.0268  1.5377
 1337TIP3    H225503   2.268   6.916   4.427  1.3956 -1.3939  1.5581
 1338TIP3   OH225504   4.748   2.964  13.582  0.3978 -0.0096 -1.2749
 1338TIP3    H125505   4.826   2.996  13.537  0.3066 -0.7902 -2.0075
 1338TIP3    H225506   4.782   2.904  13.648  0.6143  1.9667  0.5121
 1339TIP3   OH225507   5.422   0.504  10.848 -0.6728  0.0027  0.0570
 1339TIP3    H125508   5.496   0.549  10.888 -1.4716  0.9681  0.4823
 1339TIP3    H225509   5.460   0.458  10.773  0.2107  1.2392 -0.2828
 1340TIP3   OH225510   4.667   2.714  11.425  0.5130 -0.0744  0.0220
 1340TIP3    H125511   4.740   2.687  11.481  0.9990  0.1060 -0.5248
 1340TIP3    H225512   4.693   2.798  11.389 -0.5138  0.6104  0.8149
 1341TIP3   OH225513   4.599   5.148   1.698  0.4866  0.0154  0.4237
 1341TIP3    H125514   4.646   5.070   1.669 -1.5961 -2.4478  3.0887
 1341TIP3    H225515   4.664   5.200   1.745  1.4778 -1.1560  0.3816
 1342TIP3   OH225516   4.841   0.499  10.614  0.0790  0.3140 -0.3906
 1342TIP3    H125517   4.915   0.447  10.647  0.2778  1.1965  0.5912
 1342TIP3    H225518   4.777   0.433  10.588 -0.0400 -0.4784  1.6680
 1343TIP3   OH225519   0.194   1.354  10.651 -0.1769  0.7495  0.2796
 1343TIP3    H125520   0.163   1.416  10.718  0.4162  2.2629 -0.8039
 1343TIP3    H225521   0.179   1.268  10.690  1.5058  1.5519  3.0292
 1344TIP3   OH225522   4.379   4.835  11.110 -0.4647  0.5804 -0.8448
 1344TIP3    H125523   4.358   4.874  11.194  1.0611 -0.9615  0.3458
 1344TIP3    H225524   4.326   4.755  11.106  2.2011 -1.4706  0.6001
 1345TIP3   OH225525   5.792   1.470  10.547 -0.1728 -0.1033  0.2445
 1345TIP3    H125526   5.830   1.406  10.607  0.9355  0.4959  0.2094
 1345TIP3    H225527   5.833   1.450  10.463 -0.3788  0.1886  0.0745
 1346TIP3   OH225528   1.204   2.019  14.252  0.6367 -0.5008 -0.1065
 1346TIP3    H125529   1.152   2.099  14.259  2.3422  0.6604  0.1253
 1346TIP3    H225530   1.293   2.047  14.273  0.9994 -2.8862  2.1588
 1347TIP3   OH225531   7.051   1.331   3.187  0.5182 -0.1517 -0.1752
 1347TIP3    H125532   7.041   1.248   3.141 -0.9248  0.3138 -0.7824
 1347TIP3    H225533   7.126   1.374   3.146  2.4451 -1.8536  1.3416
 1348TIP3   OH225534   3.408   0.908  12.071 -0.3199 -1.0662  0.0857
 1348TIP3    H125535   3.334   0.945  12.118 -0.9269 -2.3977  0.2279
 1348TIP3    H225536   3.369   0.845  12.010  0.4585  0.5136 -2.1476
 1349TIP3   OH225537   6.195   3.784  12.194 -0.0813  0.3973 -0.4438
 1349TIP3    H125538   6.116   3.818  12.151  0.6210  2.0742 -0.4992
 1349TIP3    H225539   6.267   3.835  12.156  0.9415 -0.5274  0.1902
 1350TIP3   OH225540   7.129   4.665  13.602  0.0262 -0.0562 -0.4007
 1350TIP3    H125541   7.061   4.605  13.633 -0.8223  0.3965 -1.3139
 1350TIP3    H225542   7.175   4.617  13.534 -1.2172  0.5754 -1.7498
 1351TIP3   OH225543   0.979   6.133  12.627 -0.2041  0.2939  0.5576
 1351TIP3    H125544   0.957   6.053  12.579 -0.7218  0.1169  1.0817
 1351TIP3    H225545   1.065   6.158  12.593  0.0074 -0.5378  0.4438
 1352TIP3   OH225546   4.040   4.549  10.624 -0.3347  0.2433  0.1375
 1352TIP3    H125547   4.101   4.606  10.670  0.9550 -0.4832 -0.6091
 1352TIP3    H225548   3.963   4.545  10.681 -0.4647  2.6664  0.2152
 1353TIP3   OH225549   0.538   5.781  10.889 -0.1422 -0.2941  0.4269
 1353TIP3    H125550   0.527   5.688  10.908 -1.9454 -0.0669  0.6346
 1353TIP3    H225551   0.627   5.787  10.852 -1.0758 -2.5995 -2.6535
 1354TIP3   OH225552   4.850   2.440  12.511  0.0034  0.2206  0.3010
 1354TIP3    H125553   4.914   2.409  12.447 -0.3613 -0.0379  0.0557
 1354TIP3    H225554   4.768   2.397  12.486 -0.2928  0.6343  0.5412
 1355TIP3   OH225555   2.156   3.807  11.735  0.4161 -0.2462 -0.0221
 1355TIP3    H125556   2.067   3.830  11.708  0.3856  2.5937  2.0586
 1355TIP3    H225557   2.153   3.712  11.747 -2.3079 -0.2675 -0.1120
 1356TIP3   OH225558   0.882   5.866   4.654  0.0943 -0.5268  0.3821
 1356TIP3    H125559   0.797   5.869   4.698 -0.3512  0.4629 -0.4990
 1356TIP3    H225560   0.916   5.955   4.662  0.0188 -0.3254 -1.2058
 1357TIP3   OH225561   3.296   6.084  11.676 -0.3021 -0.0928 -0.1527
 1357TIP3    H125562   3.203   6.099  11.660 -0.0812  0.4787 -0.9253
 1357TIP3    H225563   3.299   6.042  11.762 -1.2674 -0.0721 -0.1031
 1358TIP3   OH225564   5.633   6.542  15.754 -0.0003 -0.1271 -0.0678
 1358TIP3    H125565   5.725   6.544  15.779  0.2441 -0.3962 -0.9387
 1358TIP3    H225566   5.632   6.511  15.664 -0.9983 -1.0219  0.2183
 1359TIP3   OH225567   1.578   3.764  11.798  0.1254  0.0419  0.0366
 1359TIP3    H125568   1.634   3.792  11.870  3.0781  0.8064 -2.3580
 1359TIP3    H225569   1.598   3.672  11.786  1.6315  0.5110 -1.3597
 1360TIP3   OH225570   4.553   6.698   0.001  0.0772  0.0975 -0.1037
 1360TIP3    H125571   4.632   6.746   0.027 -0.5378  0.9770  0.1775
 1360TIP3    H225572   4.509   6.677   0.083 -1.2980  1.9060 -0.3092
 1361TIP3   OH225573   6.732   7.113  11.549 -0.2807 -0.5328  0.4531
 1361TIP3    H125574   6.757   7.182  11.488  0.1409 -1.5880 -0.6036
 1361TIP3    H225575   6.754   7.148  11.635  0.9560  0.2091 -0.1425
 1362TIP3   OH225576   1.893   7.155   0.727 -0.0071  0.4915 -0.0922
 1362TIP3    H125577   1.888   7.061   0.712 -0.0869  0.0180  2.3534
 1362TIP3    H225578   1.843   7.169   0.809 -0.5775  2.7623 -0.7317
 1363TIP3   OH225579   6.786   5.261  11.130 -0.9020 -0.0864 -0.4695
 1363TIP3    H125580   6.843   5.209  11.187 -0.1720  0.4206 -0.7091
 1363TIP3    H225581   6.721   5.199  11.097  1.0851 -1.3524 -2.3026
 1364TIP3   OH225582   5.056   1.928   4.846 -0.4873 -1.2968 -0.4639
 1364TIP3    H125583   5.150   1.919   4.827  0.2476 -3.9049  3.2940
 1364TIP3    H225584   5.042   2.023   4.849  1.5839 -0.8091 -2.6225
 1365TIP3   OH225585   1.381   6.458   0.444  0.3616 -0.6692  0.0466
 1365TIP3    H125586   1.391   6.504   0.527 -2.3483 -1.4611  0.9030
 1365TIP3    H225587   1.287   6.456   0.428  0.7626  0.5607 -3.7367
 1366TIP3   OH225588   7.072   3.545  12.574  0.1173 -0.2071 -0.3629
 1366TIP3    H125589   6.985   3.573  12.600  0.2329  0.3769 -0.6006
 1366TIP3    H225590   7.116   3.524  12.657 -0.0196  0.1577 -0.1970
 1367TIP3   OH225591   2.982   1.157  14.458  0.2147  0.2541  0.1641
 1367TIP3    H125592   3.006   1.065  14.461  0.7448  0.3176 -1.2097
 1367TIP3    H225593   3.063   1.202  14.433 -0.5396  0.8336 -1.3637
 1368TIP3   OH225594   2.381   2.223   2.527  0.1275 -0.1728  0.0517
 1368TIP3    H125595   2.475   2.235   2.540  0.2000  0.5141 -0.9649
 1368TIP3    H225596   2.374   2.167   2.450 -0.3003 -0.9557  0.6450
 1369TIP3   OH225597   0.666   3.661   0.141 -0.1772  0.1264  0.3660
 1369TIP3    H125598   0.748   3.643   0.096 -1.6523 -1.8446 -1.7569
 1369TIP3    H225599   0.636   3.576   0.173 -2.2852  0.4497 -0.5934
 1370TIP3   OH225600   0.742   6.717   9.249  0.2582 -0.5658 -0.3852
 1370TIP3    H125601   0.678   6.788   9.244 -3.9047 -3.8862  0.6041
 1370TIP3    H225602   0.772   6.718   9.340  0.5693  0.1363 -0.4880
 1371TIP3   OH225603   2.947   3.763   2.163  0.0743  0.6826  0.5199
 1371TIP3    H125604   2.974   3.673   2.181  0.9786  0.7747 -0.3001
 1371TIP3    H225605   2.934   3.766   2.068  1.5571  1.7971  0.3244
 1372TIP3   OH225606   4.091   4.924  10.974  0.0614  0.9887 -0.5619
 1372TIP3    H125607   4.125   4.999  10.926 -2.5717  2.2321 -0.6241
 1372TIP3    H225608   4.060   4.960  11.057 -0.1663 -0.2490 -0.0826
 1373TIP3   OH225609   4.434   0.715   0.432  0.1325  0.0914  0.6228
 1373TIP3    H125610   4.519   0.749   0.406  0.8434 -0.9725  1.4726
 1373TIP3    H225611   4.448   0.621   0.444 -1.8187 -0.6365 -1.8910
 1374TIP3   OH225612   3.790   5.832  13.573  0.0355 -0.1492  0.5242
 1374TIP3    H125613   3.731   5.782  13.629 -0.5816  1.2409  1.1616
 1374TIP3    H225614   3.800   5.917  13.617  0.7599  0.4370 -0.6922
 1375TIP3   OH225615   6.020   3.503  10.301  0.2075 -0.4097 -0.3329
 1375TIP3    H125616   6.089   3.569  10.291  2.6228 -1.9249  3.8843
 1375TIP3    H225617   6.048   3.431  10.245  1.2606 -0.4031  0.1559
 1376TIP3   OH225618   2.324   0.802  10.464 -0.2126 -0.3225  0.3219
 1376TIP3    H125619   2.272   0.882  10.456 -0.8675 -0.6837  0.8694
 1376TIP3    H225620   2.262   0.731  10.446  0.2110 -0.7353  0.4807
 1377TIP3   OH225621   6.523   4.412  11.328 -0.0327  0.5061 -0.0543
 1377TIP3    H125622   6.535   4.357  11.406  0.7397  1.3798  0.4635
 1377TIP3    H225623   6.595   4.387  11.270 -0.4735  0.0207 -0.4031
 1378TIP3   OH225624   4.792   5.669  10.861  0.5272 -0.2319 -0.5774
 1378TIP3    H125625   4.825   5.756  10.885 -1.7734  0.5714 -0.1168
 1378TIP3    H225626   4.800   5.665  10.766  0.6533  0.4764 -0.5976
 1379TIP3   OH225627   6.829   4.765  14.409  0.0818 -0.2479 -0.6221
 1379TIP3    H125628   6.808   4.767  14.316  0.8488 -2.2903 -0.9094
 1379TIP3    H225629   6.827   4.672  14.432  2.5847 -0.0608  0.7352
 1380TIP3   OH225630   4.662   3.454  11.590  0.4280 -1.2104  0.6264
 1380TIP3    H125631   4.647   3.497  11.674 -0.4053 -1.2987  0.5342
 1380TIP3    H225632   4.748   3.486  11.561 -0.8684  1.8006 -0.2962
 1381TIP3   OH225633   6.978   4.298  11.940  0.2653 -0.8743 -0.3537
 1381TIP3    H125634   7.035   4.331  12.010  1.3046 -2.4223 -0.4149
 1381TIP3    H225635   6.961   4.207  11.965 -0.9723 -0.8709 -1.1247
 1382TIP3   OH225636   3.720   1.695  14.650 -0.3539  0.7342  0.5251
 1382TIP3    H125637   3.683   1.768  14.600 -1.4874  0.4431  0.9230
 1382TIP3    H225638   3.715   1.724  14.741 -0.1155  0.4616  0.6242
 1383TIP3   OH225639   3.440   2.412  10.479 -0.2607 -0.5687  0.1128
 1383TIP3    H125640   3.509   2.391  10.541 -0.0490 -0.7371 -0.1736
 1383TIP3    H225641   3.361   2.422  10.532 -0.2550 -1.5598  0.3281
 1384TIP3   OH225642   0.744   3.658  13.222 -0.0094  0.5640 -0.3970
 1384TIP3    H125643   0.809   3.714  13.179 -1.4126  1.2704 -1.6861
 1384TIP3    H225644   0.778   3.569  13.213  0.3620  0.8360 -1.8212
 1385TIP3   OH225645   3.332   2.405  13.802  0.8227 -0.2822 -0.1776
 1385TIP3    H125646   3.405   2.464  13.781 -0.6641  1.8328  0.2004
 1385TIP3    H225647   3.276   2.408  13.724  0.7716 -1.3231 -0.1955
 1386TIP3   OH225648   1.653   1.275  10.073 -0.0029  0.6077 -0.3883
 1386TIP3    H125649   1.641   1.349  10.133 -1.2655  0.1221 -0.0153
 1386TIP3    H225650   1.739   1.290  10.034  0.1896  1.7429  0.4172
 1387TIP3   OH225651   3.636   6.324   0.712 -0.2537 -0.2664  0.2894
 1387TIP3    H125652   3.721   6.307   0.753  1.2194  1.3651 -1.8382
 1387TIP3    H225653   3.606   6.405   0.752  0.2153  0.2454 -0.3639
 1388TIP3   OH225654   5.485   4.083   9.781  0.0248  0.1768  0.2711
 1388TIP3    H125655   5.543   4.151   9.746 -0.1008  0.1962  0.1024
 1388TIP3    H225656   5.451   4.121   9.863  1.4560 -0.4388  1.1995
 1389TIP3   OH225657   0.555   0.413  12.767  0.3422 -0.3269  0.1278
 1389TIP3    H125658   0.553   0.454  12.853  1.8078  1.2617 -0.5389
 1389TIP3    H225659   0.555   0.319  12.785 -1.3009 -0.0640  1.7688
 1390TIP3   OH225660   4.513   1.749  13.880 -0.5536  0.0702 -0.6303
 1390TIP3    H125661   4.423   1.723  13.899 -0.4878  1.0494  1.3254
 1390TIP3    H225662   4.515   1.760  13.785 -2.3009 -0.6583 -0.7919
 1391TIP3   OH225663   5.791   4.638  15.460 -0.3476  0.4541  0.2761
 1391TIP3    H125664   5.736   4.647  15.382 -0.3379  0.6036  0.2868
 1391TIP3    H225665   5.738   4.589  15.521  0.8881 -2.8803 -1.0766
 1392TIP3   OH225666   1.058   4.451   1.457  0.0582 -0.0156  0.2797
 1392TIP3    H125667   1.018   4.367   1.435  0.4667 -0.1048 -0.1260
 1392TIP3    H225668   0.985   4.513   1.456 -0.4760 -0.5632  1.7981
 1393TIP3   OH225669   4.093   4.819  15.748 -0.5352  0.5097 -0.5256
 1393TIP3    H125670   4.044   4.883  15.799  0.5462  0.8055  0.1658
 1393TIP3    H225671   4.065   4.734  15.783  1.4552  0.7187  1.8807
 1394TIP3   OH225672   4.718   5.149  12.081  0.2644  0.4832 -0.5821
 1394TIP3    H125673   4.767   5.069  12.061  2.1934  0.7628  2.3530
 1394TIP3    H225674   4.637   5.117  12.121  0.0435  0.0090 -1.3893
 1395TIP3   OH225675   4.683   1.631  10.111  0.5045  0.0851  0.2351
 1395TIP3    H125676   4.778   1.637  10.101  0.3429  0.6612 -1.1814
 1395TIP3    H225677   4.654   1.722  10.115 -0.0311 -0.0826  0.1949
 1396TIP3   OH225678   2.713   1.112  12.626  0.3906 -0.4824 -0.2634
 1396TIP3    H125679   2.683   1.023  12.645 -0.3443 -0.1010  0.4291
 1396TIP3    H225680   2.690   1.162  12.704  0.0297  0.4909 -0.9810
 1397TIP3   OH225681   1.934   0.913  14.219 -0.3155  0.6101  0.4324
 1397TIP3    H125682   2.007   0.975  14.209 -1.2848  1.7223 -0.0547
 1397TIP3    H225683   1.965   0.848  14.282  1.7796 -0.0202 -1.1583
 1398TIP3   OH225684   5.554   1.872  12.562  0.2973 -0.3921  0.7273
 1398TIP3    H125685   5.571   1.929  12.487  0.4404  0.1375  1.1479
 1398TIP3    H225686   5.641   1.840  12.587  0.1590 -1.2658  0.1448
 1399TIP3   OH225687   1.651   7.041  11.940  0.0425  0.1696  0.3390
 1399TIP3    H125688   1.707   7.077  12.008  0.4311 -1.4147  0.9114
 1399TIP3    H225689   1.580   6.999  11.988 -0.1840 -0.1517 -0.2695
 1400TIP3   OH225690   6.051   6.928   2.422  0.6009  0.0021 -0.3468
 1400TIP3    H125691   5.981   6.863   2.425 -0.1950  0.7079 -2.2849
 1400TIP3    H225692   6.011   7.008   2.455  0.5913  0.3064 -1.0720
 1401TIP3   OH225693   3.223   4.586   9.874 -0.3113 -0.0386 -0.1703
 1401TIP3    H125694   3.228   4.495   9.902  0.1396 -0.0473 -0.2694
 1401TIP3    H225695   3.314   4.613   9.861 -0.5018 -0.3638 -2.6606
 1402TIP3   OH225696   1.940   2.945   1.211 -0.4902 -0.4864  0.3431
 1402TIP3    H125697   1.878   2.878   1.240 -0.2474 -0.3522  1.1978
 1402TIP3    H225698   2.026   2.905   1.223 -0.3155  0.1503  1.3721
 1403TIP3   OH225699   5.011   2.888  11.774 -0.0617  0.6411  0.1631
 1403TIP3    H125700   4.930   2.879  11.724  0.6471  1.3232 -1.1801
 1403TIP3    H225701   5.070   2.824  11.735 -0.3928 -0.9507  2.1560
 1404TIP3   OH225702   1.765   4.910  12.301 -0.3138  0.3848  0.1012
 1404TIP3    H125703   1.758   4.817  12.321  0.9754  0.4992  1.2602
 1404TIP3    H225704   1.736   4.918  12.210  0.2443 -1.2497 -0.2514
 1405TIP3   OH225705   1.542   1.819  12.518 -0.4843  0.4201 -0.1418
 1405TIP3    H125706   1.483   1.889  12.493  0.1379  0.5721 -1.2471
 1405TIP3    H225707   1.577   1.786  12.435 -0.3411 -0.8179  0.3905
 1406TIP3   OH225708   0.298   1.474   2.133 -0.1643  0.3234  0.0607
 1406TIP3    H125709   0.345   1.395   2.158 -1.5007 -0.2443  0.8928
 1406TIP3    H225710   0.366   1.538   2.116  0.9288 -0.8284 -0.0193
 1407TIP3   OH225711   0.709   5.569  10.003  0.0217 -0.2919  0.0682
 1407TIP3    H125712   0.668   5.656  10.007 -0.0582 -0.2446 -1.2963
 1407TIP3    H225713   0.780   5.573  10.067 -0.7582  0.3551  0.9149
 1408TIP3   OH225714   3.600   3.550  15.316  0.6307 -0.2860  0.6406
 1408TIP3    H125715   3.562   3.462  15.309  1.1068 -0.3711 -2.2554
 1408TIP3    H225716   3.692   3.535  15.339  1.2819 -0.7790 -2.0007
 1409TIP3   OH225717   6.981   0.640   2.616 -0.5559  0.4863 -0.1746
 1409TIP3    H125718   6.925   0.623   2.541  2.8556  0.4010 -3.0056
 1409TIP3    H225719   6.969   0.733   2.634 -1.9166  0.3637 -0.3391
 1410TIP3   OH225720   2.192   2.091  13.560 -0.2332 -0.4196 -0.8786
 1410TIP3    H125721   2.207   2.119  13.470 -0.7772  0.3273 -0.7482
 1410TIP3    H225722   2.114   2.140  13.588 -1.2885 -2.1609 -0.6744
 1411TIP3   OH225723   2.940   3.297  13.927 -0.1002  0.2205 -0.3648
 1411TIP3    H125724   3.009   3.292  13.993  0.9848 -0.8782 -1.5340
 1411TIP3    H225725   2.893   3.377  13.949  0.7961  0.3825  1.1721
 1412TIP3   OH225726   2.951   2.052   2.635 -0.2633  0.2359  0.1872
 1412TIP3    H125727   2.964   2.131   2.582 -1.2041  0.4246  0.2258
 1412TIP3    H225728   2.856   2.043   2.642 -0.1566 -0.4705  0.8325
 1413TIP3   OH225729   3.757   2.295   1.314  0.5024 -0.8565 -0.0438
 1413TIP3    H125730   3.810   2.215   1.312  1.8000 -0.0257 -0.3523
 1413TIP3    H225731   3.673   2.270   1.276  1.1156 -1.9227 -0.7467
 1414TIP3   OH225732   0.083   4.079   2.303  0.0823  0.0154 -0.0576
 1414TIP3    H125733   0.125   4.147   2.356  2.0831 -1.8028  0.8501
 1414TIP3    H225734  -0.008   4.107   2.295  0.5371  2.1189  1.3466
 1415TIP3   OH225735   1.774   4.654  11.214  0.2646  0.1503 -0.5016
 1415TIP3    H125736   1.700   4.659  11.153 -1.2497  0.5835  1.2703
 1415TIP3    H225737   1.734   4.666  11.300  2.1988 -1.2290  0.6637
 1416TIP3   OH225738   6.107   4.612   1.647  0.8917  0.3246  0.5032
 1416TIP3    H125739   6.131   4.657   1.566  1.4508  0.1340  0.5576
 1416TIP3    H225740   6.135   4.672   1.716  1.0926  0.1566  0.5667
 1417TIP3   OH225741   3.019   0.480   1.336 -0.5623 -0.3368 -0.2098
 1417TIP3    H125742   3.096   0.453   1.287 -0.7523 -1.7607  0.2266
 1417TIP3    H225743   3.055   0.529   1.411 -0.2768  1.8334 -1.6789
 1418TIP3   OH225744   4.051   6.140  10.427  0.4726 -0.0891  0.3012
 1418TIP3    H125745   3.956   6.146  10.439  0.6081 -1.0631  2.3216
 1418TIP3    H225746   4.067   6.048  10.406  0.8764  0.3419 -1.3807
 1419TIP3   OH225747   2.974   0.139   5.294  0.7368  0.3677 -0.3023
 1419TIP3    H125748   2.917   0.200   5.342  0.0315 -0.4201 -0.1195
 1419TIP3    H225749   3.037   0.196   5.248  1.5023  1.1413  1.6100
 1420TIP3   OH225750   5.141   0.168  14.004  0.1642 -0.4373 -0.5761
 1420TIP3    H125751   5.052   0.179  13.970  0.7039 -1.1614 -2.3173
 1420TIP3    H225752   5.168   0.082  13.973  1.2680 -0.4961  0.4668
 1421TIP3   OH225753   1.946   4.934   0.816  0.1213 -0.0831 -0.0163
 1421TIP3    H125754   2.025   4.904   0.861 -0.6841 -0.5625  1.1273
 1421TIP3    H225755   1.876   4.920   0.879 -0.8346  0.6780 -0.8740
 1422TIP3   OH225756   3.918   6.057  14.655 -0.0702 -0.0385  0.4488
 1422TIP3    H125757   3.939   6.097  14.571 -0.0518 -3.2048 -1.2371
 1422TIP3    H225758   3.878   5.973  14.632 -0.7669 -0.7330  3.6363
 1423TIP3   OH225759   2.088   3.732  10.265 -0.0861 -0.1895 -0.5268
 1423TIP3    H125760   2.006   3.706  10.307 -0.0973 -0.7401 -0.8786
 1423TIP3    H225761   2.130   3.649  10.242  0.5539  0.0926 -0.3818
 1424TIP3   OH225762   5.601   2.544  11.450 -0.3694 -0.6867  0.5151
 1424TIP3    H125763   5.537   2.587  11.394 -0.5938 -0.2229  1.1102
 1424TIP3    H225764   5.673   2.607  11.457 -0.1209 -0.9482  0.3498
 1425TIP3   OH225765   0.511   3.292  15.008 -0.1101  0.1501 -0.5373
 1425TIP3    H125766   0.509   3.293  15.103  0.9720  1.3830 -0.5088
 1425TIP3    H225767   0.576   3.358  14.984 -0.5930  0.0885 -2.1412
 1426TIP3   OH225768   5.367   5.606  15.544  0.3178  0.1021  0.1566
 1426TIP3    H125769   5.429   5.604  15.471 -0.7123  0.1290 -0.7516
 1426TIP3    H225770   5.332   5.695  15.541  0.1800  0.0609  0.6072
 1427TIP3   OH225771   1.822   4.083  10.512  0.2830  0.2479  0.5331
 1427TIP3    H125772   1.788   4.144  10.447  0.4289  1.1534  1.2868
 1427TIP3    H225773   1.847   4.005  10.462  1.5597  1.3788 -0.6758
 1428TIP3   OH225774   2.209   0.882  11.094 -0.0984  0.0941 -0.2742
 1428TIP3    H125775   2.195   0.873  11.000  1.1273 -0.2337 -0.4416
 1428TIP3    H225776   2.299   0.912  11.102  0.4100 -1.6093  0.8476
 1429TIP3   OH225777   2.972   0.972   3.049  0.5015  0.5244  0.0092
 1429TIP3    H125778   2.944   1.016   2.968 -0.7047 -1.1812 -0.5557
 1429TIP3    H225779   3.007   0.888   3.019 -2.9119 -1.5788  1.3438
 1430TIP3   OH225780   2.429   1.096   0.196 -0.0547  0.0182  0.2433
 1430TIP3    H125781   2.397   1.006   0.188  0.0461  0.0904 -1.5039
 1430TIP3    H225782   2.524   1.088   0.188  0.0080  0.2130  0.8114
 1431TIP3   OH225783   7.098   5.637  13.349  0.3116  0.1724  0.0928
 1431TIP3    H125784   7.169   5.623  13.412 -1.0318 -0.5931  1.4932
 1431TIP3    H225785   7.026   5.672  13.401 -0.0747  1.8684 -1.4605
 1432TIP3   OH225786   4.050   6.820  12.169  0.3925 -0.2962  0.1383
 1432TIP3    H125787   4.061   6.821  12.264  1.2737  1.2013  0.0570
 1432TIP3    H225788   3.956   6.812  12.155  0.1774  0.3378  1.1500
 1433TIP3   OH225789   3.577   2.233  11.598  0.3051 -0.1689 -0.2216
 1433TIP3    H125790   3.644   2.246  11.531 -1.4249  2.4575 -1.5969
 1433TIP3    H225791   3.570   2.138  11.606  1.1668 -0.5882 -3.2110
 1434TIP3   OH225792   4.991   2.340  10.834  0.6778  0.1052  0.4785
 1434TIP3    H125793   4.940   2.408  10.789  0.3793  1.2450  2.4050
 1434TIP3    H225794   5.049   2.305  10.767 -1.6258 -0.2363 -1.4591
 1435TIP3   OH225795   5.526   2.407  13.314 -0.3713  0.4299  0.0922
 1435TIP3    H125796   5.458   2.412  13.247 -1.2303 -0.4138  0.8636
 1435TIP3    H225797   5.582   2.482  13.298  0.3685 -0.5929 -2.5532
 1436TIP3   OH225798   0.578   1.126  13.754  0.0342 -0.1574  0.3733
 1436TIP3    H125799   0.608   1.037  13.773 -0.1341 -0.1941  0.4679
 1436TIP3    H225800   0.649   1.183  13.785  0.6269 -0.3009 -0.6651
 1437TIP3   OH225801   2.594   6.329  13.538 -0.2329  0.2484  0.6893
 1437TIP3    H125802   2.525   6.347  13.474  0.4568  3.5148  0.6511
 1437TIP3    H225803   2.555   6.267  13.599 -2.3103  0.0727 -0.7034
 1438TIP3   OH225804   1.379   6.731   5.431  0.3532 -0.7830 -0.2634
 1438TIP3    H125805   1.284   6.720   5.424  0.3098 -0.9726  0.4881
 1438TIP3    H225806   1.409   6.747   5.342 -0.9605  3.8698 -0.1536
 1439TIP3   OH225807   1.408   4.903  11.493 -0.4321 -0.8384  0.3370
 1439TIP3    H125808   1.406   4.814  11.456  2.3839 -0.9908  0.3467
 1439TIP3    H225809   1.432   4.890  11.585  2.3415 -0.0547 -0.1907
 1440TIP3   OH225810   3.230   0.323   4.430  0.4470  0.3978  0.0630
 1440TIP3    H125811   3.315   0.325   4.473 -0.2050  1.3573  1.3628
 1440TIP3    H225812   3.249   0.289   4.342  2.1158  0.3455  0.4040
 1441TIP3   OH225813   3.321   0.063  13.077 -0.0053  0.3373  0.3186
 1441TIP3    H125814   3.253   0.097  13.019 -1.3837 -0.5255  1.3681
 1441TIP3    H225815   3.334   0.133  13.141  0.8309  0.9023 -0.4486
 1442TIP3   OH225816   2.544   7.138   0.380 -0.7616  0.2609 -0.3002
 1442TIP3    H125817   2.541   7.234   0.375  1.1300  0.3448 -0.7007
 1442TIP3    H225818   2.589   7.120   0.462  2.1031 -0.1310 -1.8437
 1443TIP3   OH225819   2.896   3.667  10.247  0.2246  0.2171 -0.3376
 1443TIP3    H125820   2.955   3.743  10.241  0.0917  0.4234  0.7484
 1443TIP3    H225821   2.936   3.602  10.190  1.2809  0.5138  0.0296
 1444TIP3   OH225822   0.412   6.208  10.980  0.0946 -0.0562 -0.0823
 1444TIP3    H125823   0.382   6.119  10.999  0.1170 -0.3489 -1.3536
 1444TIP3    H225824   0.483   6.224  11.043  0.9517 -1.4071 -0.6792
 1445TIP3   OH225825   2.321   1.903  10.948 -0.7455 -0.0299  0.0540
 1445TIP3    H125826   2.334   1.994  10.920 -0.9690 -0.2225 -0.7035
 1445TIP3    H225827   2.252   1.908  11.014 -0.8561  0.3381 -0.0818
 1446TIP3   OH225828   2.516   0.201   1.288  0.1595 -0.2487 -0.6144
 1446TIP3    H125829   2.554   0.257   1.220  0.3035  1.6202  0.9145
 1446TIP3    H225830   2.506   0.259   1.364  0.1363 -2.2728  1.0201
 1447TIP3   OH225831   5.989   3.619   3.438 -0.3444 -0.0651 -0.0516
 1447TIP3    H125832   6.065   3.598   3.493 -0.5981  0.4704  0.5151
 1447TIP3    H225833   5.978   3.542   3.382  0.0557 -0.5290  0.4960
 1448TIP3   OH225834   4.403   2.359  12.103 -0.1379 -0.2654 -0.2045
 1448TIP3    H125835   4.379   2.289  12.164  2.1482 -0.8450  0.1421
 1448TIP3    H225836   4.493   2.381  12.127 -0.7424  2.7333 -0.4060
 1449TIP3   OH225837   3.333   5.662   0.274  0.0961  0.3236  0.6736
 1449TIP3    H125838   3.258   5.714   0.246  0.6911  1.2427  0.7552
 1449TIP3    H225839   3.295   5.577   0.298 -0.9141  0.7722  0.7316
 1450TIP3   OH225840   2.372   1.805  10.696  0.1095 -0.2139  0.4187
 1450TIP3    H125841   2.364   1.842  10.784 -2.0167 -2.1381  1.1330
 1450TIP3    H225842   2.463   1.776  10.690  0.3519  0.1549  1.8973
 1451TIP3   OH225843   0.693   6.538  11.790 -0.4524 -0.1957  0.3189
 1451TIP3    H125844   0.715   6.625  11.757  2.2120 -0.9287 -0.0897
 1451TIP3    H225845   0.641   6.499  11.720 -0.9429  0.7674  0.1330
 1452TIP3   OH225846   1.769   6.826  10.655 -0.1220  0.5509 -0.2519
 1452TIP3    H125847   1.823   6.869  10.589  1.8372  0.2587  1.0526
 1452TIP3    H225848   1.787   6.732  10.643  1.9065  0.5703  1.8981
 1453TIP3   OH225849   4.222   1.542  11.714 -0.0577 -0.3537 -0.1987
 1453TIP3    H125850   4.180   1.540  11.628 -1.8529 -0.3982  0.6116
 1453TIP3    H225851   4.316   1.545  11.696 -0.4186  1.3785 -2.1621
 1454TIP3   OH225852   1.527   6.280  11.987  0.5518 -0.6042  0.3413
 1454TIP3    H125853   1.456   6.218  11.972  1.0898 -0.7771 -1.7757
 1454TIP3    H225854   1.546   6.272  12.081 -2.1559 -0.5540  0.9677
 1455TIP3   OH225855   1.128   5.670   0.803 -0.2310 -0.5528  0.0813
 1455TIP3    H125856   1.101   5.612   0.731 -1.6651  1.3811 -1.0513
 1455TIP3    H225857   1.169   5.745   0.759 -0.1888  0.1988  1.3457
 1456TIP3   OH225858   2.367   6.298  13.720  0.4592 -0.0412  0.1958
 1456TIP3    H125859   2.365   6.385  13.680  1.9677  0.3543  0.9033
 1456TIP3    H225860   2.374   6.315  13.814  0.7085 -0.9247  0.3425
 1457TIP3   OH225861   1.281   0.463  12.744  0.2131 -0.0392 -0.4577
 1457TIP3    H125862   1.371   0.485  12.764  0.3340 -0.1261 -0.8934
 1457TIP3    H225863   1.268   0.490  12.653 -1.2956  3.3736  0.6119
 1458TIP3   OH225864   3.870   4.994   9.928 -0.5763 -0.5301 -0.3338
 1458TIP3    H125865   3.797   5.036   9.974  0.2311 -1.1696  1.6250
 1458TIP3    H225866   3.836   4.908   9.901 -1.7032  0.5937 -2.8987
 1459TIP3   OH225867   0.611   2.040  12.436  0.2486  0.5081 -0.0650
 1459TIP3    H125868   0.629   2.123  12.479  0.3671 -0.0132  0.9182
 1459TIP3    H225869   0.692   2.018  12.391  0.8314  0.0633  1.1539
 1460TIP3   OH225870   2.590   6.270   1.159  0.1786  0.0348 -0.4368
 1460TIP3    H125871   2.528   6.213   1.113  0.7312 -1.1493  0.2442
 1460TIP3    H225872   2.563   6.359   1.135 -0.4704 -0.5099 -1.8201
 1461TIP3   OH225873   2.275   2.578  13.409  0.1855  0.1947  0.1725
 1461TIP3    H125874   2.206   2.532  13.456  0.0621 -0.1756 -0.3497
 1461TIP3    H225875   2.344   2.590  13.473  1.0342 -2.4702 -0.0914
 1462TIP3   OH225876   7.141   5.663  12.377  0.3511 -0.3447  0.2592
 1462TIP3    H125877   7.067   5.699  12.425 -0.2219  0.0445 -0.8818
 1462TIP3    H225878   7.175   5.736  12.326  0.7856 -0.8046 -0.1246
 1463TIP3   OH225879   5.429   3.745   2.777 -0.1111  0.2276 -0.5284
 1463TIP3    H125880   5.342   3.776   2.753  0.0375  0.8445 -0.2901
 1463TIP3    H225881   5.444   3.780   2.865  0.7524  0.9247 -0.9370
 1464TIP3   OH225882   2.141   6.458  10.039  0.2084 -0.6602  0.6315
 1464TIP3    H125883   2.065   6.475   9.984  1.6831  1.5594 -0.8897
 1464TIP3    H225884   2.155   6.540  10.086  1.2694 -1.2458  1.3624
 1465TIP3   OH225885   3.151   0.512  11.602 -0.4376 -0.1350  0.1691
 1465TIP3    H125886   3.111   0.598  11.589  0.0507  0.2125  0.8937
 1465TIP3    H225887   3.184   0.515  11.692  0.3445 -0.7614 -0.0911
 1466TIP3   OH225888   5.914   4.041  12.838 -0.2295  0.4273  0.2703
 1466TIP3    H125889   5.990   4.012  12.888 -0.9146  0.1897  1.1954
 1466TIP3    H225890   5.929   4.134  12.821  0.9365  0.0724 -0.8008
 1467TIP3   OH225891   2.968   0.640  10.737  0.8569 -0.4076 -0.4037
 1467TIP3    H125892   2.991   0.680  10.654  0.1821 -0.7703 -0.7752
 1467TIP3    H225893   3.021   0.687  10.802  2.9133 -1.4553 -1.2352
 1468TIP3   OH225894   4.776   2.873  13.159 -0.3330 -0.1696  0.2119
 1468TIP3    H125895   4.808   2.833  13.240 -0.9507  0.6525  0.8897
 1468TIP3    H225896   4.706   2.815  13.129 -0.5959 -0.0982  0.6762
 1469TIP3   OH225897   2.856   6.264  12.111  0.2048  0.6880 -0.0548
 1469TIP3    H125898   2.910   6.202  12.062  1.8360  1.5332  0.5811
 1469TIP3    H225899   2.881   6.350  12.076 -0.3430  1.1387  0.6315
 1470TIP3   OH225900   4.996   1.468  10.898  0.3411 -0.1299  0.8221
 1470TIP3    H125901   5.081   1.445  10.936  1.9951 -0.9144 -2.9506
 1470TIP3    H225902   4.937   1.399  10.926  2.3492 -2.6443 -0.7542
 1471TIP3   OH225903   5.647   1.595   0.734 -0.0280 -0.4217 -0.2561
 1471TIP3    H125904   5.667   1.526   0.797 -0.6456  2.0750  3.0046
 1471TIP3    H225905   5.667   1.676   0.781 -1.0504  1.6811 -3.1643
 1472TIP3   OH225906   2.737   2.871   0.207  0.4402  0.1148  0.4586
 1472TIP3    H125907   2.680   2.913   0.143  0.4268 -0.2210  0.2461
 1472TIP3    H225908   2.767   2.791   0.164  2.2761  0.9989 -0.0231
 1473TIP3   OH225909   2.095   3.826   4.831  0.4922 -0.0145  0.5786
 1473TIP3    H125910   2.127   3.744   4.795  0.4231 -0.3329  1.2216
 1473TIP3    H225911   2.173   3.882   4.836  0.1453  0.8846 -2.1761
 1474TIP3   OH225912   6.969   0.020   0.533 -0.3938  0.2712  0.5314
 1474TIP3    H125913   7.057   0.055   0.520 -1.0362  1.5621 -0.5946
 1474TIP3    H225914   6.983  -0.068   0.568  1.3719 -0.3368 -1.5015
 1475TIP3   OH225915   6.427   5.162  14.340 -0.4900  0.1747 -0.3248
 1475TIP3    H125916   6.488   5.105  14.386 -0.4409  0.8899  0.5357
 1475TIP3    H225917   6.453   5.157  14.248 -0.3965 -1.0550 -0.2415
 1476TIP3   OH225918   7.014   2.510  11.993  0.3752  0.2274 -0.0750
 1476TIP3    H125919   7.051   2.592  11.961  2.5525 -0.0961  1.3986
 1476TIP3    H225920   7.072   2.442  11.957 -0.3574 -0.5398  0.1513
 1477TIP3   OH225921   1.058   6.399  15.616 -0.8381 -0.2065  0.3185
 1477TIP3    H125922   1.138   6.405  15.564 -0.2345  0.5778  1.3061
 1477TIP3    H225923   0.988   6.392  15.551 -0.0749  0.3702 -0.5992
 1478TIP3   OH225924   4.674   5.502  13.194  0.6925 -0.2561 -0.5800
 1478TIP3    H125925   4.633   5.562  13.256 -0.4322 -0.9851 -0.5923
 1478TIP3    H225926   4.755   5.474  13.237 -0.2765 -1.0849  0.7734
 1479TIP3   OH225927   6.948   3.380   1.730  0.1473 -0.2970  0.4626
 1479TIP3    H125928   6.999   3.328   1.668 -2.3486 -0.1198 -1.9047
 1479TIP3    H225929   6.972   3.470   1.710 -1.4027 -0.1729 -1.0977
 1480TIP3   OH225930   0.156   2.775  15.650  0.1104  0.2924  0.0498
 1480TIP3    H125931   0.169   2.704  15.713 -1.0222 -0.9491 -1.0576
 1480TIP3    H225932   0.185   2.739  15.567 -0.5931  1.0801 -0.5535
 1481TIP3   OH225933   1.702   6.565   2.184  0.0441  0.3560  0.6748
 1481TIP3    H125934   1.774   6.581   2.245 -0.5565  2.1238  0.9961
 1481TIP3    H225935   1.653   6.492   2.222  0.2737  0.7545  1.7780
 1482TIP3   OH225936   5.074   3.664  11.354 -0.1417 -0.2960  0.3529
 1482TIP3    H125937   5.148   3.709  11.395  2.2510 -0.5486 -3.2686
 1482TIP3    H225938   5.029   3.732  11.305 -0.9320 -0.5909  0.6552
 1483TIP3   OH225939   0.622   0.168   1.453  0.3665 -0.0362 -0.4660
 1483TIP3    H125940   0.657   0.086   1.487 -0.1309 -0.1669 -0.2649
 1483TIP3    H225941   0.578   0.209   1.527 -0.2861 -0.0850 -0.8179
 1484TIP3   OH225942   3.477   1.381  12.060 -0.1365 -0.1501  0.2614
 1484TIP3    H125943   3.531   1.316  12.104  1.5739 -0.6225 -2.3377
 1484TIP3    H225944   3.437   1.335  11.986 -0.7340  1.1920 -0.2984
 1485TIP3   OH225945   3.177   0.407  12.752 -0.2464 -0.2536  0.0921
 1485TIP3    H125946   3.116   0.478  12.731  2.0894  1.3323 -1.8584
 1485TIP3    H225947   3.157   0.339  12.689 -2.5808 -1.5399  2.0488
 1486TIP3   OH225948   2.452   6.557  13.659 -0.1765  0.4411 -0.5906
 1486TIP3    H125949   2.534   6.511  13.644 -0.3161  0.5829 -1.8667
 1486TIP3    H225950   2.450   6.626  13.593 -0.9790  0.9160 -0.0958
 1487TIP3   OH225951   0.304   2.632  15.047 -0.3127  0.3003  0.3542
 1487TIP3    H125952   0.357   2.636  14.967 -0.0947  0.5977  0.5114
 1487TIP3    H225953   0.213   2.631  15.016 -0.2175 -1.4800  0.0322
 1488TIP3   OH225954   1.796   5.655   9.714 -0.2141  0.0881  0.6037
 1488TIP3    H125955   1.792   5.570   9.671  0.9258 -0.8276  2.1699
 1488TIP3    H225956   1.874   5.697   9.677 -1.1560  0.7828 -0.6660
 1489TIP3   OH225957   7.098   5.552  15.704 -0.7471  0.1774 -0.1992
 1489TIP3    H125958   7.120   5.623  15.644  0.4610  0.8993  1.0176
 1489TIP3    H225959   7.164   5.558  15.773 -1.3776 -1.3510  0.5957
 1490TIP3   OH225960   4.791   6.804  11.304  0.0627  0.2013  0.3201
 1490TIP3    H125961   4.883   6.787  11.327 -0.0258 -1.6919 -0.5344
 1490TIP3    H225962   4.746   6.809  11.389  0.6176 -1.1120  0.7244
 1491TIP3   OH225963   2.300   4.987  10.638  0.3956  0.1585  0.3508
 1491TIP3    H125964   2.339   5.019  10.556 -2.4283 -0.5725 -1.4193
 1491TIP3    H225965   2.350   4.907  10.657  0.8880  0.1369 -0.8799
 1492TIP3   OH225966   1.376   0.079  10.799  0.3372  0.0172 -0.3142
 1492TIP3    H125967   1.352   0.172  10.796  1.3103  0.2778 -0.5216
 1492TIP3    H225968   1.434   0.067  10.724  0.5600 -0.6620 -0.0398
 1493TIP3   OH225969   5.330   1.573  10.238  0.6630 -0.1424 -0.3662
 1493TIP3    H125970   5.355   1.665  10.225  0.7546 -0.1755 -0.4301
 1493TIP3    H225971   5.250   1.562  10.187 -0.8387  0.5783  1.7043
 1494TIP3   OH225972   6.066   5.074  11.600 -0.4553  0.7224  0.5011
 1494TIP3    H125973   6.120   5.029  11.536 -1.1510 -0.5572  0.7900
 1494TIP3    H225974   6.012   5.134  11.548  1.1382  1.9783  0.2029
 1495TIP3   OH225975   4.829   1.414   9.825 -0.2027 -0.7697  0.3721
 1495TIP3    H125976   4.739   1.438   9.847  0.0797 -0.9936  1.8436
 1495TIP3    H225977   4.824   1.388   9.733 -1.4357  0.2155  0.1197
 1496TIP3   OH225978   5.337   5.274  11.936 -0.0593  0.1874  0.0364
 1496TIP3    H125979   5.392   5.287  12.013  0.2845 -1.8094  0.1815
 1496TIP3    H225980   5.399   5.258  11.864 -0.4010  0.7814 -0.4004
 1497TIP3   OH225981   2.677   2.418  13.013  0.2834 -0.5317 -0.4421
 1497TIP3    H125982   2.648   2.503  13.047  1.6174 -0.3382  0.2878
 1497TIP3    H225983   2.598   2.379  12.974 -0.4141  0.8975 -0.5106
 1498TIP3   OH225984   0.331   5.921   3.097  0.3304  0.3883  0.2138
 1498TIP3    H125985   0.334   5.991   3.032 -0.1183 -0.4815 -0.7750
 1498TIP3    H225986   0.255   5.869   3.072  0.9129 -0.6997  0.6630
 1499TIP3   OH225987   5.210   4.359   4.894 -0.1037 -0.5722 -0.1139
 1499TIP3    H125988   5.203   4.283   4.951  0.7195  0.1140  0.9544
 1499TIP3    H225989   5.289   4.342   4.842  0.3000 -0.3115  0.3906
 1500TIP3   OH225990   7.002   4.032  11.136  0.1742  0.2311  0.2150
 1500TIP3    H125991   6.995   4.123  11.167 -2.0010  0.3323 -0.3492
 1500TIP3    H225992   6.924   3.990  11.172  0.2950 -0.9847 -0.8971
 1501TIP3   OH225993   3.886   7.056  15.169 -0.0475 -0.0686 -0.5312
 1501TIP3    H125994   3.893   7.140  15.214 -1.7943  0.0606 -0.4324
 1501TIP3    H225995   3.976   7.034  15.145  0.5783  1.2505  0.4757
 1502TIP3   OH225996   3.408   6.557  14.070  0.1519  0.6318 -0.2159
 1502TIP3    H125997   3.314   6.561  14.057  0.4430  1.3845 -2.5046
 1502TIP3    H225998   3.421   6.484  14.131 -1.8152 -0.6211 -1.1948
 1503TIP3   OH225999   5.268   1.836   3.926 -0.1947  0.0066 -0.6720
 1503TIP3    H126000   5.359   1.811   3.912 -0.5053 -1.9644  0.5164
 1503TIP3    H226001   5.223   1.810   3.845  0.1727  0.4570 -1.0301
 1504TIP3   OH226002   0.318   4.977  14.270 -0.2769 -0.4542 -0.2681
 1504TIP3    H126003   0.411   4.986  14.294 -0.4194 -0.7835  0.4265
 1504TIP3    H226004   0.304   4.882  14.266 -1.5221 -0.5965  3.5340
 1505TIP3   OH226005   5.598   4.466   2.886 -0.1538 -0.0018 -0.0219
 1505TIP3    H126006   5.633   4.542   2.931  0.2032  0.1239 -0.5051
 1505TIP3    H226007   5.675   4.420   2.853 -0.3446 -0.7653  0.5589
 1506TIP3   OH226008   4.771   5.052  15.615  0.1458  0.5899 -0.6508
 1506TIP3    H126009   4.689   5.100  15.607  0.2340  1.1340  1.2385
 1506TIP3    H226010   4.839   5.119  15.615  0.3238  0.4785  1.1708
 1507TIP3   OH226011   0.308   2.569   3.922  0.5760 -0.3983 -0.7075
 1507TIP3    H126012   0.397   2.565   3.955  0.0475  0.5511  0.9779
 1507TIP3    H226013   0.273   2.481   3.937  1.0604 -0.6264 -0.9018
 1508TIP3   OH226014   4.723   4.740  12.621 -0.3515  0.1083 -0.1794
 1508TIP3    H126015   4.733   4.661  12.568 -2.9933 -1.9355  2.0618
 1508TIP3    H226016   4.635   4.733  12.659 -0.2380  3.5592  1.1242
 1509TIP3   OH226017   7.124   6.162  15.199  0.0971  0.0282 -0.5362
 1509TIP3    H126018   7.070   6.100  15.150  0.6353 -0.7055 -0.2227
 1509TIP3    H226019   7.211   6.123  15.199  0.0097 -0.2761  1.4418
 1510TIP3   OH226020   0.421   6.747  11.655  0.1750  0.3993 -0.5741
 1510TIP3    H126021   0.504   6.794  11.645  1.1600 -0.9177  0.9890
 1510TIP3    H226022   0.413   6.731  11.749 -1.9171  0.5638 -0.6842
 1511TIP3   OH226023   2.266   4.847  12.951 -0.3003  0.4598 -0.1663
 1511TIP3    H126024   2.322   4.842  12.873  1.0316  0.3150  0.7813
 1511TIP3    H226025   2.285   4.933  12.989  1.0443 -0.5003  1.4282
 1512TIP3   OH226026   2.246   0.024  13.825 -0.1342  0.6179 -0.2270
 1512TIP3    H126027   2.242  -0.034  13.901 -0.4346  0.1347 -0.5996
 1512TIP3    H226028   2.241  -0.036  13.750  0.1318  1.0903 -0.6219
 1513TIP3   OH226029   3.720   2.365  11.162  0.6319 -0.2337 -0.0436
 1513TIP3    H126030   3.656   2.404  11.221  1.3009 -1.2600  1.4193
 1513TIP3    H226031   3.780   2.436  11.140 -0.2129  0.4027 -0.3413
 1514TIP3   OH226032   1.442   0.052  10.084  0.2643 -0.1895  0.6900
 1514TIP3    H126033   1.471   0.141  10.103 -1.0052  0.1301  1.2039
 1514TIP3    H226034   1.442   0.009  10.170 -0.3114 -0.3193  0.6282
 1515TIP3   OH226035   1.068   6.036  10.635 -0.3481 -0.5156  0.5580
 1515TIP3    H126036   1.123   6.087  10.575  0.9789 -0.4320  1.7879
 1515TIP3    H226037   1.108   5.949  10.636 -0.4164 -0.5411  1.2385
 1516TIP3   OH226038   4.545   3.150  13.474 -0.3717  0.7843 -0.6642
 1516TIP3    H126039   4.556   3.059  13.447 -1.3242  0.2985  0.4752
 1516TIP3    H226040   4.508   3.144  13.562 -0.5451  2.2819 -0.6115
 1517TIP3   OH226041   6.371   4.522   0.988  0.3427 -0.4192 -0.1936
 1517TIP3    H126042   6.342   4.450   0.931  0.2646 -1.5241  1.1950
 1517TIP3    H226043   6.323   4.598   0.956 -0.1829 -1.1363 -1.1971
 1518TIP3   OH226044   0.858   0.942  12.830 -0.0736  0.0535 -0.1718
 1518TIP3    H126045   0.813   0.949  12.914 -0.6626 -0.4142 -0.4393
 1518TIP3    H226046   0.894   1.029  12.814 -0.3207  0.2563  0.3614
 1519TIP3   OH226047   7.138   3.800   9.869  0.0908 -0.3617  0.3391
 1519TIP3    H126048   7.076   3.852   9.819 -1.1024 -1.6392  0.4484
 1519TIP3    H226049   7.223   3.842   9.853 -0.5232  0.3162 -1.2883
 1520TIP3   OH226050   0.570   6.716   9.871  0.0008  0.2130  0.1952
 1520TIP3    H126051   0.655   6.681   9.844 -0.6891 -0.6669 -0.9757
 1520TIP3    H226052   0.533   6.752   9.790 -1.5825 -1.3013  0.1764
 1521TIP3   OH226053   0.968   2.899  12.132 -0.3819  0.3159  0.2392
 1521TIP3    H126054   1.038   2.914  12.195  0.1052 -2.2791  0.4461
 1521TIP3    H226055   0.888   2.910  12.182 -0.0148 -0.5409  1.0572
 1522TIP3   OH226056   5.122   0.400  12.038  0.3897  0.1270  0.3232
 1522TIP3    H126057   5.120   0.316  11.993  0.2387  0.4305 -0.2468
 1522TIP3    H226058   5.049   0.395  12.100  0.3092 -0.1209  0.2094
 1523TIP3   OH226059   2.140   4.536  14.760 -0.1439  0.3896  0.4886
 1523TIP3    H126060   2.045   4.535  14.772 -0.2891 -1.5790 -0.4438
 1523TIP3    H226061   2.168   4.447  14.777  1.1915  0.3426 -1.5626
 1524TIP3   OH226062   3.209   6.576   5.618 -0.3006 -0.6564  0.2417
 1524TIP3    H126063   3.157   6.536   5.687  1.9558 -0.6855  2.0130
 1524TIP3    H226064   3.144   6.620   5.562 -2.2926 -1.6491  1.6482
 1525TIP3   OH226065   0.387   5.669   0.436 -0.4626 -0.2243  0.2066
 1525TIP3    H126066   0.314   5.648   0.496 -1.5093 -0.3196 -1.0627
 1525TIP3    H226067   0.392   5.764   0.437  0.1013 -0.2517  1.0955
 1526TIP3   OH226068   1.480   4.650   1.672  0.2906  0.1104  0.2024
 1526TIP3    H126069   1.498   4.616   1.760 -1.6505  3.4983  2.1089
 1526TIP3    H226070   1.421   4.585   1.634 -0.3075 -0.5829  2.1593
 1527TIP3   OH226071   1.920   5.656  11.653  0.9480 -0.5418  0.0744
 1527TIP3    H126072   1.877   5.722  11.707 -1.0132  0.0604 -2.0276
 1527TIP3    H226073   1.891   5.573  11.689 -0.2535 -0.1580  0.0454
 1528TIP3   OH226074   0.257   0.829   9.846  0.6650  0.4915  0.3195
 1528TIP3    H126075   0.205   0.751   9.828  0.1385  1.3227 -2.2559
 1528TIP3    H226076   0.339   0.815   9.799 -0.6330  2.6321 -3.0026
 1529TIP3   OH226077   0.629   2.087   2.882 -0.5289  0.3394 -0.3437
 1529TIP3    H126078   0.563   2.020   2.863 -0.2313 -0.1473  0.3028
 1529TIP3    H226079   0.704   2.062   2.828 -1.3894  1.8260 -2.3738
 1530TIP3   OH226080   4.223   1.641  15.666  0.1315  0.1796  1.1115
 1530TIP3    H126081   4.174   1.690  15.600  0.6177  1.7213  1.8497
 1530TIP3    H226082   4.215   1.694  15.746 -0.4570 -1.6487  2.3162
 1531TIP3   OH226083   4.422   5.857   3.127 -0.2573 -0.7634  0.0304
 1531TIP3    H126084   4.344   5.871   3.181 -0.4687 -0.8508 -0.2523
 1531TIP3    H226085   4.486   5.820   3.187 -0.3905 -0.5679  0.2947
 1532TIP3   OH226086   0.618   5.174  14.797 -0.1434 -0.1695 -0.2256
 1532TIP3    H126087   0.667   5.162  14.878  1.4012 -0.4660 -1.1650
 1532TIP3    H226088   0.670   5.128  14.731 -0.4340  1.5159 -1.7069
 1533TIP3   OH226089   0.671   2.664   0.252  0.6975  0.5158  0.0331
 1533TIP3    H126090   0.603   2.607   0.215 -0.9594  2.4640 -0.0952
 1533TIP3    H226091   0.754   2.623   0.226 -0.3549 -2.2699  0.6910
 1534TIP3   OH226092   0.418   1.596  15.652  0.5194  0.3212  0.0705
 1534TIP3    H126093   0.496   1.631  15.695  0.6983 -1.5224  1.3418
 1534TIP3    H226094   0.403   1.655  15.578  0.9013  2.9089  1.9481
 1535TIP3   OH226095   4.528   1.215  11.691 -0.3707 -0.4097  0.5406
 1535TIP3    H126096   4.566   1.251  11.611 -1.6535 -2.4614 -1.0681
 1535TIP3    H226097   4.602   1.212  11.752  0.8367  0.4477 -0.7914
 1536TIP3   OH226098   3.041   1.687   1.771  0.6900 -0.2389  0.0833
 1536TIP3    H126099   3.023   1.777   1.740  3.3215  0.9521  1.7332
 1536TIP3    H226100   3.007   1.685   1.860  0.9254 -0.7809  0.1642
 1537TIP3   OH226101   3.103   4.977  13.753  0.3150  0.2231  0.5359
 1537TIP3    H126102   3.047   4.967  13.831  0.2105  1.4672  0.6434
 1537TIP3    H226103   3.158   5.053  13.773  0.6995  0.1904 -0.3711
 1538TIP3   OH226104   6.334   3.075  10.117  0.0567 -0.3120  0.0263
 1538TIP3    H126105   6.249   3.117  10.104 -0.1027 -0.1692  1.3672
 1538TIP3    H226106   6.376   3.079  10.032 -1.2871 -0.4001 -0.6724
 1539TIP3   OH226107   6.028   4.266  12.344 -0.2073 -0.0832 -0.3722
 1539TIP3    H126108   6.021   4.334  12.411  0.1002  0.8905 -1.3148
 1539TIP3    H226109   5.954   4.208  12.362 -1.7093  1.6118 -0.7938
 1540TIP3   OH226110   3.339   2.140  13.633  0.1430  0.6577  0.1746
 1540TIP3    H126111   3.360   2.046  13.633  0.0004  0.6227 -0.1515
 1540TIP3    H226112   3.369   2.171  13.718  0.7340  0.4367  0.0526
 1541TIP3   OH226113   0.197   7.046  11.436 -0.0437  0.3926  0.0012
 1541TIP3    H126114   0.131   7.027  11.369 -0.1970  0.3157  0.1764
 1541TIP3    H226115   0.243   6.963  11.448 -1.1893 -0.0711  1.2978
 1542TIP3   OH226116   2.258   0.362   2.365 -0.0772 -0.5075 -0.3309
 1542TIP3    H126117   2.174   0.319   2.345 -0.9506  1.2363 -0.5809
 1542TIP3    H226118   2.260   0.367   2.460 -0.5358 -0.0557 -0.3396
 1543TIP3   OH226119   4.808   4.404  14.751  0.1699 -0.2102  0.1542
 1543TIP3    H126120   4.727   4.363  14.723 -0.2248  0.2824  0.5512
 1543TIP3    H226121   4.861   4.332  14.785 -0.2224 -0.4925  0.1769
 1544TIP3   OH226122   1.534   5.443  14.825  0.4106 -0.0357  0.3972
 1544TIP3    H126123   1.559   5.504  14.894  0.3890 -1.5460  1.7745
 1544TIP3    H226124   1.439   5.439  14.830  0.4824 -1.1252  1.1712
 1545TIP3   OH226125   6.990   5.056  12.337  0.4621  0.1823 -0.3236
 1545TIP3    H126126   7.035   5.133  12.372 -2.3408  1.4871  0.6797
 1545TIP3    H226127   7.031   4.982  12.382 -0.4971  1.5481  3.0821
 1546TIP3   OH226128   7.129   1.840   3.552  0.3010 -0.7279  0.2958
 1546TIP3    H126129   7.058   1.832   3.616 -0.8602  1.0802 -0.6853
 1546TIP3    H226130   7.093   1.804   3.471  0.5409  0.0774 -0.1765
 1547TIP3   OH226131   1.799   2.827  11.399 -0.7817  0.5190  0.4390
 1547TIP3    H126132   1.707   2.806  11.414 -0.8160 -1.7789 -2.3281
 1547TIP3    H226133   1.813   2.814  11.305  2.5871 -0.1585  0.8884
 1548TIP3   OH226134   4.849   6.330  11.351 -0.3308 -0.4873 -0.2209
 1548TIP3    H126135   4.863   6.356  11.259  0.1403 -0.2157 -0.0771
 1548TIP3    H226136   4.852   6.235  11.349 -2.6735 -0.6086 -0.8538
 1549TIP3   OH226137   0.500   0.416  12.028  0.0790  0.0827  0.0709
 1549TIP3    H126138   0.422   0.429  12.081  0.7004 -2.0980  1.6507
 1549TIP3    H226139   0.559   0.487  12.054 -0.4259  0.2527  0.7729
 1550TIP3   OH226140   2.451   5.198  11.137 -0.2473 -0.8636 -0.3527
 1550TIP3    H126141   2.470   5.291  11.135  0.5517 -1.0140 -2.1899
 1550TIP3    H226142   2.510   5.163  11.203  0.6284 -0.2722 -0.7986
 1551TIP3   OH226143   6.189   1.867  11.202  0.2633  0.0724 -0.0888
 1551TIP3    H126144   6.251   1.834  11.137  0.5158 -0.3737  0.3677
 1551TIP3    H226145   6.141   1.789  11.231 -0.7482  0.4534 -0.6631
 1552TIP3   OH226146   0.548   7.068  11.384  0.0824  0.2380  0.0839
 1552TIP3    H126147   0.500   7.076  11.467  1.3743 -1.7879  1.0975
 1552TIP3    H226148   0.638   7.049  11.410  0.4468 -0.8028 -1.7848
 1553TIP3   OH226149   2.496   1.574  10.325  0.2038 -0.0540 -0.0783
 1553TIP3    H126150   2.495   1.631  10.248  2.2333  0.0734 -0.0606
 1553TIP3    H226151   2.403   1.566  10.350 -0.2227  2.9338 -0.3182
 1554TIP3   OH226152   3.546   5.700  14.465 -0.3264 -0.3295 -0.1530
 1554TIP3    H126153   3.451   5.696  14.454 -0.7232  3.7623  0.3043
 1554TIP3    H226154   3.560   5.686  14.559 -0.8483  1.6710  0.2724
 1555TIP3   OH226155   0.304   2.111  12.679 -0.0827  0.1879 -0.0965
 1555TIP3    H126156   0.380   2.149  12.723 -1.2789  0.5807  1.7286
 1555TIP3    H226157   0.238   2.180  12.681 -0.6746 -0.3025 -1.2543
 1556TIP3   OH226158   7.105   2.747   5.132 -0.3322 -0.1643 -0.0167
 1556TIP3    H126159   7.190   2.704   5.122  0.1637  0.6728  0.5045
 1556TIP3    H226160   7.053   2.685   5.182  0.1385 -0.4629  0.1132
 1557TIP3   OH226161   2.412   1.889  12.569 -0.1688  0.0879 -0.1782
 1557TIP3    H126162   2.321   1.877  12.597 -0.2892  0.8518 -0.2318
 1557TIP3    H226163   2.436   1.804  12.532 -1.0454  0.0358 -0.6677
 1558TIP3   OH226164   2.616   4.093  10.561 -0.0640 -0.0068 -0.1670
 1558TIP3    H126165   2.532   4.080  10.517 -0.3642  1.4586 -0.0848
 1558TIP3    H226166   2.673   4.129  10.493  0.3009 -0.3349 -0.0412
 1559TIP3   OH226167   5.738   0.397  11.606 -0.2775  0.2349  0.0881
 1559TIP3    H126168   5.726   0.306  11.632  0.6651  0.7847  2.6753
 1559TIP3    H226169   5.666   0.443  11.649  1.3172  1.1737  1.8943
 1560TIP3   OH226170   6.493   2.374  12.641  0.4233  0.1940 -0.2859
 1560TIP3    H126171   6.408   2.369  12.597  0.7913  1.9232 -1.2415
 1560TIP3    H226172   6.500   2.290  12.686 -1.5462 -0.2168 -0.6240
 1561TIP3   OH226173   2.500   3.065  10.727  0.1977 -0.1466  0.7970
 1561TIP3    H126174   2.577   3.086  10.780  0.4107 -1.4621  1.0515
 1561TIP3    H226175   2.531   2.998  10.665 -0.6225 -0.3304  0.5721
 1562TIP3   OH226176   1.011   2.165   0.778 -0.2785 -0.8956 -0.1818
 1562TIP3    H126177   1.088   2.142   0.831 -0.2172 -0.2231  0.0393
 1562TIP3    H226178   0.988   2.084   0.732  0.5441 -1.1165 -0.2260
 1563TIP3   OH226179   0.849   1.180  11.282  0.1672  0.0472  0.0170
 1563TIP3    H126180   0.842   1.199  11.189 -0.8614 -1.4188 -0.2395
 1563TIP3    H226181   0.758   1.172  11.312  0.4797  0.4306  1.1389
 1564TIP3   OH226182   0.474   3.706  13.262 -0.2769 -0.2083 -0.1875
 1564TIP3    H126183   0.478   3.610  13.267  0.6593 -0.1163  1.0545
 1564TIP3    H226184   0.560   3.736  13.289 -1.0970  1.0576  1.1622
 1565TIP3   OH226185   4.526   2.079   0.508 -0.1024 -0.4704 -0.0452
 1565TIP3    H126186   4.552   2.101   0.597 -0.6528  2.6614 -0.5528
 1565TIP3    H226187   4.435   2.109   0.501 -0.3973 -1.5545 -1.3881
 1566TIP3   OH226188   4.688   2.184   0.305  0.1857  0.1416  0.0142
 1566TIP3    H126189   4.646   2.133   0.374 -0.4571  0.2738 -0.2660
 1566TIP3    H226190   4.720   2.263   0.349  1.6656 -0.7164  0.5552
 1567TIP3   OH226191   3.910   2.863   1.185  0.2190  0.2098 -0.1735
 1567TIP3    H126192   3.953   2.918   1.119  0.5073 -0.2157 -0.3420
 1567TIP3    H226193   3.895   2.922   1.259  2.2114  0.1180  0.3841
 1568TIP3   OH226194   6.746   6.341  12.445  0.6168 -0.4223 -0.0946
 1568TIP3    H126195   6.719   6.325  12.536 -4.8247  1.7334 -0.9601
 1568TIP3    H226196   6.754   6.436  12.439 -3.5301 -0.0261 -2.5807
 1569TIP3   OH226197   1.183   3.948  13.139 -0.0655  0.0501  0.5855
 1569TIP3    H126198   1.229   3.899  13.071  0.5502  0.3504  0.7791
 1569TIP3    H226199   1.124   4.007  13.091 -0.0947 -0.1850  0.3300
 1570TIP3   OH226200   3.915   0.932   0.954  0.1532  0.0239 -0.3864
 1570TIP3    H126201   3.911   0.947   0.859  0.2613 -1.2881 -0.6176
 1570TIP3    H226202   3.997   0.883   0.966 -0.6150 -1.1536  0.1815
 1571TIP3   OH226203   4.862   1.187  11.594 -0.7504 -0.0353  0.1677
 1571TIP3    H126204   4.811   1.112  11.565  0.3702  0.0644 -2.3449
 1571TIP3    H226205   4.858   1.249  11.521  0.3671  1.3096  1.1670
 1572TIP3   OH226206   1.057   6.870  13.006  0.2943 -0.3179 -0.4292
 1572TIP3    H126207   1.044   6.777  13.023  2.0338 -0.6879 -0.9363
 1572TIP3    H226208   0.998   6.914  13.068  0.6515 -1.7274  0.9716
 1573TIP3   OH226209   4.048   0.779  10.653  0.3896 -0.0312  1.0875
 1573TIP3    H126210   4.064   0.703  10.708  0.7563  0.9949  2.4581
 1573TIP3    H226211   4.099   0.763  10.573 -0.8296 -1.9382  0.6320
 1574TIP3   OH226212   4.808   6.974  13.327  0.6544  0.0247 -0.2731
 1574TIP3    H126213   4.780   6.900  13.381  0.0445  2.1021  2.4832
 1574TIP3    H226214   4.901   6.959  13.313  0.5521 -1.2431  0.2356
 1575TIP3   OH226215   6.006   2.437  11.567  0.1635 -0.0158 -0.3204
 1575TIP3    H126216   5.966   2.464  11.650  0.6961 -0.8681  0.2215
 1575TIP3    H226217   5.944   2.376  11.529  0.2666 -0.2128 -0.1765
 1576TIP3   OH226218   0.791   2.057  10.086 -0.5581 -0.0437 -0.0737
 1576TIP3    H126219   0.856   2.020  10.026 -0.9445 -0.9582  0.0563
 1576TIP3    H226220   0.725   1.988  10.096  0.0621 -0.3792  2.3197
 1577TIP3   OH226221   1.155   5.786  11.240  0.6582  0.1426 -0.4396
 1577TIP3    H126222   1.111   5.781  11.155  1.3402  2.6924 -1.0422
 1577TIP3    H226223   1.239   5.742  11.225  0.9327  0.9035 -1.2342
 1578TIP3   OH226224   3.088   6.335  12.884  0.2133 -0.4941 -0.3783
 1578TIP3    H126225   3.060   6.412  12.932 -0.1611 -1.1232  0.4427
 1578TIP3    H226226   3.181   6.325  12.906  0.2577 -0.2809 -0.4744
 1579TIP3   OH226227   1.922   4.472  10.026  0.1165  0.1685 -0.1517
 1579TIP3    H126228   1.881   4.470  10.113  0.3484 -0.7543 -0.0560
 1579TIP3    H226229   1.848   4.467   9.965 -0.0101  0.1460  0.0023
 1580TIP3   OH226230   2.788   5.721  14.629 -0.1114 -0.1959 -0.0842
 1580TIP3    H126231   2.821   5.714  14.718 -0.7930 -0.0420  0.1860
 1580TIP3    H226232   2.694   5.707  14.637 -0.0217 -1.3752 -0.9394
 1581TIP3   OH226233   7.122   0.460   0.322 -0.1893  0.4623 -0.3477
 1581TIP3    H126234   7.119   0.372   0.286  1.4954 -0.2673  1.1627
 1581TIP3    H226235   7.033   0.475   0.355  0.3481 -2.3446  2.9654
 1582TIP3   OH226236   5.655   4.283  15.549 -0.5344  0.2476  0.1270
 1582TIP3    H126237   5.620   4.261  15.635 -0.2944 -0.7599 -0.0188
 1582TIP3    H226238   5.748   4.300  15.565 -0.7042  1.1458  0.2268
 1583TIP3   OH226239   3.813   2.041  10.327  0.1017 -0.3426 -0.1598
 1583TIP3    H126240   3.778   2.082  10.406  0.3855  1.0680 -0.7391
 1583TIP3    H226241   3.749   1.973  10.305 -0.2357 -0.4143  0.9874
 1584TIP3   OH226242   2.283   4.286  10.817 -0.1504  0.6276  0.3507
 1584TIP3    H126243   2.346   4.289  10.745 -0.1538  0.8753  0.3573
 1584TIP3    H226244   2.240   4.372  10.814  1.1146  1.3618  1.7839
 1585TIP3   OH226245   5.776   6.666  13.386 -0.4293  0.8488 -0.1872
 1585TIP3    H126246   5.779   6.742  13.328  0.2453  0.5637 -0.5418
 1585TIP3    H226247   5.860   6.621  13.371 -0.3238  0.6643  0.8717
 1586TIP3   OH226248   7.119   5.649   9.909  0.2760 -0.7509  0.7423
 1586TIP3    H126249   7.132   5.602   9.826 -1.0386  0.3395 -0.1296
 1586TIP3    H226250   7.175   5.727   9.902  0.1495 -0.6472  0.8744
 1587TIP3   OH226251   0.650   0.542   9.641 -0.2068  0.6728 -0.5294
 1587TIP3    H126252   0.660   0.535   9.545  0.3694  0.2865 -0.4514
 1587TIP3    H226253   0.728   0.590   9.669 -0.3444  0.7287 -0.2485
 1588TIP3   OH226254   0.105   5.620   4.336 -0.1024 -0.3086  0.5258
 1588TIP3    H126255   0.085   5.608   4.429 -2.5031 -0.5592  0.0407
 1588TIP3    H226256   0.022   5.648   4.297  0.8554 -0.1743 -1.5499
 1589TIP3   OH226257   3.767   3.231  10.996 -0.3790 -0.2163 -0.5071
 1589TIP3    H126258   3.712   3.187  10.931 -0.4742 -0.0345 -0.5495
 1589TIP3    H226259   3.841   3.265  10.946  0.7150 -2.0069 -0.1914
 1590TIP3   OH226260   5.280   0.629  10.445  0.1850 -0.3719  0.5178
 1590TIP3    H126261   5.295   0.549  10.395 -1.5413 -1.3029  1.4302
 1590TIP3    H226262   5.249   0.692  10.380  0.2423 -0.8379  0.0250
 1591TIP3   OH226263   6.663   5.698  14.291 -0.1349 -0.6333  0.5740
 1591TIP3    H126264   6.713   5.619  14.272 -1.2682 -1.4652  0.9856
 1591TIP3    H226265   6.687   5.721  14.381 -0.4974 -1.0407  0.7772
 1592TIP3   OH226266   0.283   4.623  13.129  0.2540 -0.3827 -0.4398
 1592TIP3    H126267   0.266   4.647  13.220 -0.5707  0.6795 -0.8452
 1592TIP3    H226268   0.376   4.602  13.126 -0.0118 -1.9737  0.9634
 1593TIP3   OH226269   3.757   5.713  11.915  0.1337 -0.4033 -0.4550
 1593TIP3    H126270   3.661   5.707  11.915  0.0418  0.5917  0.5574
 1593TIP3    H226271   3.787   5.624  11.933 -0.6784 -0.3637  1.2946
 1594TIP3   OH226272   0.382   4.804  15.604  0.3855 -0.7618 -0.0597
 1594TIP3    H126273   0.305   4.814  15.660  0.1223  0.3256 -0.5972
 1594TIP3    H226274   0.414   4.715  15.623 -0.0921 -0.6688  1.2993
 1595TIP3   OH226275   4.428   6.133  13.070  0.4582  0.2212 -0.2554
 1595TIP3    H126276   4.360   6.194  13.040  1.0584  1.8604  1.5239
 1595TIP3    H226277   4.382   6.074  13.130  0.4143  0.7771  0.2680
 1596TIP3   OH226278   4.303   5.417   4.524  0.2227 -0.6414  0.4103
 1596TIP3    H126279   4.290   5.512   4.528  2.3394 -0.2918  0.0704
 1596TIP3    H226280   4.370   5.405   4.456  1.5279 -2.1920  1.8895
 1597TIP3   OH226281   2.483   0.155  11.384 -0.3106  0.5035 -0.0784
 1597TIP3    H126282   2.547   0.169  11.314  1.4714  0.6186  1.4794
 1597TIP3    H226283   2.405   0.122  11.339  0.9352  0.0322 -2.0427
 1598TIP3   OH226284   3.083   2.503  11.113  0.2122 -0.2484 -0.0430
 1598TIP3    H126285   3.032   2.477  11.189 -0.1818  1.4472  0.3108
 1598TIP3    H226286   3.116   2.591  11.134 -0.3569  0.5159 -2.0134
 1599TIP3   OH226287   0.774   4.075  11.508  0.4076 -0.6231  0.1683
 1599TIP3    H126288   0.763   4.170  11.518 -2.4606 -1.0210  1.8698
 1599TIP3    H226289   0.768   4.060  11.414  0.2837  0.8167 -0.0740
 1600TIP3   OH226290   1.942   1.626   5.075 -0.1617  0.3349  0.3207
 1600TIP3    H126291   1.949   1.696   5.140 -0.4111 -1.3603  2.3178
 1600TIP3    H226292   2.000   1.557   5.109  0.3573 -0.3220 -1.7438
 1601TIP3   OH226293   4.631   1.795  14.453  0.0291 -0.1554  0.5743
 1601TIP3    H126294   4.639   1.818  14.360  2.0203  5.3775  1.7369
 1601TIP3    H226295   4.550   1.838  14.482  0.6825  0.3075  1.8083
 1602TIP3   OH226296   6.550   7.045   4.270 -0.0495 -0.0219 -0.6745
 1602TIP3    H126297   6.557   7.065   4.176  1.6306  1.7820 -0.2149
 1602TIP3    H226298   6.588   6.958   4.279  1.3394  0.4789 -1.4568
 1603TIP3   OH226299   6.368   1.911   9.390 -0.2956 -0.1676 -0.3087
 1603TIP3    H126300   6.313   1.891   9.314 -0.0005  1.6613 -1.0742
 1603TIP3    H226301   6.456   1.918   9.354 -0.1535  0.7082  0.1763
 1604TIP3   OH226302   0.379   4.386  13.902  0.2090  0.1300 -0.0561
 1604TIP3    H126303   0.390   4.480  13.885  0.2780  0.7043  2.6541
 1604TIP3    H226304   0.342   4.351  13.821  0.5971  2.4064 -1.3062
 1605TIP3   OH226305   5.240   3.312  14.944 -0.1270 -1.2355 -0.0420
 1605TIP3    H126306   5.185   3.378  14.902 -0.8022 -2.0474 -0.4621
 1605TIP3    H226307   5.250   3.243  14.879  1.7576 -0.9257 -0.1273
 1606TIP3   OH226308   1.954   4.019  10.038  0.5867  0.3293  0.2071
 1606TIP3    H126309   1.936   3.938   9.990  0.8052  1.4618 -1.8912
 1606TIP3    H226310   1.889   4.021  10.108 -3.1108  0.9506 -2.9541
 1607TIP3   OH226311   2.708   4.242  13.041 -0.1789 -0.1294 -0.3513
 1607TIP3    H126312   2.641   4.222  13.107  0.3716  2.9605  1.3431
 1607TIP3    H226313   2.659   4.255  12.960 -1.6598  1.4071  0.7107
 1608TIP3   OH226314   2.595   5.158  10.600  0.5601 -0.2689  0.6018
 1608TIP3    H126315   2.529   5.119  10.543  0.6152  0.5082 -0.0057
 1608TIP3    H226316   2.675   5.109  10.581  0.0654 -1.5826  1.7399
 1609TIP3   OH226317   6.583   1.590  14.589 -0.7007  0.1185 -0.7126
 1609TIP3    H126318   6.566   1.559  14.501 -0.5120  0.2799 -0.8058
 1609TIP3    H226319   6.597   1.510  14.640  1.6235  0.0818 -1.3253
 1610TIP3   OH226320   0.615   0.136  14.695 -0.2626  0.3796 -0.2353
 1610TIP3    H126321   0.564   0.179  14.764 -0.6765  0.7023 -0.7326
 1610TIP3    H226322   0.621   0.045  14.723  0.0636  0.6223  0.5081
 1611TIP3   OH226323   2.294   5.679  14.690 -0.5969 -0.0410  0.1700
 1611TIP3    H126324   2.371   5.719  14.730  0.7647 -0.7193 -1.5983
 1611TIP3    H226325   2.256   5.748  14.636  0.1710 -0.3448 -0.7797
 1612TIP3   OH226326   0.395   3.352   1.379 -0.0021 -0.2167 -0.6799
 1612TIP3    H126327   0.413   3.408   1.455 -0.8301 -1.7123  0.6674
 1612TIP3    H226328   0.473   3.298   1.370 -1.0125 -2.1275  1.0662
 1613TIP3   OH226329   2.749   1.373  14.118 -0.0732 -0.0269  0.5034
 1613TIP3    H126330   2.680   1.434  14.093  0.8733  1.0932  0.5702
 1613TIP3    H226331   2.788   1.345  14.036  0.3031  0.4254  0.5251
 1614TIP3   OH226332   4.150   5.097  11.194  0.6423  0.3722 -0.4480
 1614TIP3    H126333   4.066   5.135  11.171 -0.1562 -1.6083 -1.0833
 1614TIP3    H226334   4.128   5.022  11.250  2.2480  1.9425  2.5388
 1615TIP3   OH226335   4.418   0.050  10.173  0.2676  0.1253  0.6996
 1615TIP3    H126336   4.468  -0.025  10.140 -0.1893 -0.6002  1.6305
 1615TIP3    H226337   4.354   0.069  10.104  2.3076  1.6224 -0.9229
 1616TIP3   OH226338   4.822   3.593  14.837 -0.4497 -0.2573 -0.3499
 1616TIP3    H126339   4.864   3.637  14.763  0.5715 -0.3745  0.1317
 1616TIP3    H226340   4.735   3.571  14.806  0.0824 -0.6369 -1.6545
 1617TIP3   OH226341   4.744   4.788   1.315  0.6881 -0.2932 -0.5776
 1617TIP3    H126342   4.649   4.792   1.312  0.5448 -0.9613  1.3178
 1617TIP3    H226343   4.764   4.695   1.304  1.1055 -0.1825 -0.7730
 1618TIP3   OH226344   2.908   0.691   3.902  0.3586  0.1433  0.1370
 1618TIP3    H126345   2.901   0.785   3.884 -0.2628 -0.0553 -0.6968
 1618TIP3    H226346   2.827   0.654   3.868  0.4031 -0.6462  0.8633
 1619TIP3   OH226347   5.513   4.327  12.342 -0.0439 -0.1275 -0.6067
 1619TIP3    H126348   5.458   4.254  12.373 -0.6243  0.2802 -0.6677
 1619TIP3    H226349   5.583   4.284  12.292  0.4191 -0.7363  0.5353
 1620TIP3   OH226350   3.277   1.489   1.139  0.4608 -0.6722 -0.2723
 1620TIP3    H126351   3.201   1.520   1.090  0.8287  1.3509  0.3681
 1620TIP3    H226352   3.240   1.453   1.220  0.2045  2.3881  1.1068
 1621TIP3   OH226353   3.154   6.361   1.195  0.2232  0.2457 -0.9216
 1621TIP3    H126354   3.095   6.386   1.124  0.7749  0.6747 -1.2385
 1621TIP3    H226355   3.184   6.274   1.171 -0.9319 -0.3502 -0.3201
 1622TIP3   OH226356   1.612   5.277  12.610 -1.0655 -0.1299  0.6015
 1622TIP3    H126357   1.620   5.260  12.704 -1.1207 -3.0639  0.1671
 1622TIP3    H226358   1.681   5.225  12.570 -1.3469  0.6876 -1.0327
 1623TIP3   OH226359   2.895   5.398  15.496  0.2927  0.4030 -0.2211
 1623TIP3    H126360   2.941   5.469  15.452 -0.4202  0.4669 -0.8775
 1623TIP3    H226361   2.924   5.403  15.587  1.2926  0.6678 -0.5421
 1624TIP3   OH226362   0.320   3.514   1.150  0.7288 -0.0024 -0.1459
 1624TIP3    H126363   0.359   3.535   1.235 -2.3644  0.7604  1.2417
 1624TIP3    H226364   0.328   3.594   1.099 -0.6877  0.8460  0.8753
 1625TIP3   OH226365   0.286   6.173  13.296 -0.8204  0.1503  0.3459
 1625TIP3    H126366   0.212   6.222  13.261  0.7050  2.0326 -0.4653
 1625TIP3    H226367   0.324   6.231  13.362 -0.0479 -0.7362  0.7066
 1626TIP3   OH226368   2.734   4.915   2.856  0.1002 -0.3517  0.0732
 1626TIP3    H126369   2.702   4.826   2.870 -2.0575  0.5255  1.2960
 1626TIP3    H226370   2.822   4.916   2.893  0.2433 -2.0173 -0.1607
 1627TIP3   OH226371   6.464   3.484   1.620 -0.5311 -0.1861  0.1421
 1627TIP3    H126372   6.421   3.539   1.555  0.7521 -0.5938 -1.1148
 1627TIP3    H226373   6.504   3.546   1.682 -2.5646  0.1950  1.1611
 1628TIP3   OH226374   2.387   6.996  12.334  0.2189 -0.8836  0.4312
 1628TIP3    H126375   2.355   6.916  12.292 -1.2034 -0.7560  1.2233
 1628TIP3    H226376   2.313   7.027  12.386  1.3304 -0.0123  1.5398
 1629TIP3   OH226377   4.612   2.539  11.075  0.4858 -0.2535 -0.3026
 1629TIP3    H126378   4.654   2.617  11.039 -0.1821  0.1246 -0.2717
 1629TIP3    H226379   4.682   2.473  11.077  1.1335  0.4295 -0.0403
 1630TIP3   OH226380   1.280   1.797  11.277 -0.4795 -0.1050  0.5362
 1630TIP3    H126381   1.356   1.850  11.303 -0.5470 -0.7566  2.2030
 1630TIP3    H226382   1.314   1.708  11.267 -1.3833 -0.9979  4.0442
 1631TIP3   OH226383   1.889   0.630  12.478 -0.0321  0.6505 -0.2673
 1631TIP3    H126384   1.929   0.714  12.500 -0.2031  0.8533 -0.7159
 1631TIP3    H226385   1.916   0.571  12.548  0.9741  0.8052 -0.5121
 1632TIP3   OH226386   4.882   6.221  11.635 -0.3653  0.2528  0.0072
 1632TIP3    H126387   4.837   6.241  11.553  2.0755 -0.1026 -1.5051
 1632TIP3    H226388   4.874   6.302  11.686 -0.4723  1.0858 -1.2793
 1633TIP3   OH226389   0.450   6.566   0.018 -0.0230 -0.0739  0.6909
 1633TIP3    H126390   0.364   6.532  -0.008 -0.2930  0.8529  0.3279
 1633TIP3    H226391   0.457   6.650  -0.028  0.9509  0.0005  0.9597
 1634TIP3   OH226392   1.865   0.774   1.743  0.5949 -0.0816  0.3808
 1634TIP3    H126393   1.904   0.779   1.656 -1.6049 -0.9964 -0.7503
 1634TIP3    H226394   1.804   0.848   1.746 -0.9491 -1.2854  0.2101
 1635TIP3   OH226395   0.957   6.406   3.397  0.1266 -0.2740  0.3193
 1635TIP3    H126396   0.907   6.370   3.324  0.2497  1.1271 -0.4933
 1635TIP3    H226397   1.018   6.336   3.422 -0.3661 -1.0007 -0.4811
 1636TIP3   OH226398   3.819   1.150  11.529 -0.0832  0.0223  0.2611
 1636TIP3    H126399   3.786   1.163  11.618  0.2033  2.0895  0.0983
 1636TIP3    H226400   3.910   1.124  11.540 -0.4983 -1.4259  0.5764
 1637TIP3   OH226401   2.704   0.722  11.289  0.4782 -0.6858 -0.4709
 1637TIP3    H126402   2.617   0.731  11.252 -1.4917 -0.9098  3.5415
 1637TIP3    H226403   2.713   0.629  11.308  0.7458 -0.4096  0.8649
 1638TIP3   OH226404   4.581   6.611  10.959 -0.3779 -0.0943  0.4975
 1638TIP3    H126405   4.522   6.658  10.901 -0.3611 -1.2006 -0.4498
 1638TIP3    H226406   4.531   6.598  11.039 -0.7220  0.6634  0.4121
 1639TIP3   OH226407   5.860   3.748  10.311  0.1704  0.4766  0.3572
 1639TIP3    H126408   5.917   3.744  10.234 -0.7850  0.8503 -0.3973
 1639TIP3    H226409   5.850   3.657  10.338 -0.4779  0.1998 -0.7403
 1640TIP3   OH226410   3.245   3.473  15.620 -0.1882  0.1693  0.5235
 1640TIP3    H126411   3.250   3.508  15.531 -1.8651  1.9146  1.0270
 1640TIP3    H226412   3.331   3.436  15.637  0.0260 -0.6231 -1.9697
 1641TIP3   OH226413   7.075   0.274   3.979 -0.0132  0.1973  0.7436
 1641TIP3    H126414   6.999   0.332   3.968 -0.0340  0.2797  1.3368
 1641TIP3    H226415   7.134   0.298   3.907 -0.7523 -0.2007 -0.0220
 1642TIP3   OH226416   4.363   0.562  15.054  0.0287 -0.1336 -0.2162
 1642TIP3    H126417   4.298   0.522  14.996  1.2165 -0.4144 -1.3849
 1642TIP3    H226418   4.338   0.531  15.141 -1.9943  0.5806 -0.4879
 1643TIP3   OH226419   2.371   3.224   1.388  0.2735 -0.5827  0.2064
 1643TIP3    H126420   2.430   3.296   1.411  1.3448 -1.8255  1.5196
 1643TIP3    H226421   2.423   3.145   1.404 -1.3761 -1.6922  0.2505
 1644TIP3   OH226422   3.661   7.160  12.150 -0.6509  0.1677 -0.3944
 1644TIP3    H126423   3.640   7.096  12.217  0.0869  0.1144 -0.2084
 1644TIP3    H226424   3.585   7.158  12.091 -0.5391 -1.0421 -0.5210
 1645TIP3   OH226425   2.118   6.719   0.443  0.4059  0.3164 -0.2595
 1645TIP3    H126426   2.084   6.634   0.472 -0.9573  1.1413  0.7199
 1645TIP3    H226427   2.198   6.732   0.495  1.2438 -0.8314 -1.2240
 1646TIP3   OH226428   0.116   1.336  14.634  0.7127 -0.1289 -0.6816
 1646TIP3    H126429   0.163   1.419  14.633 -1.5731  1.3314  1.2407
 1646TIP3    H226430   0.141   1.293  14.553  3.5991  1.4659 -0.7600
 1647TIP3   OH226431   4.101   6.664  10.188 -0.6386 -0.5846 -0.3287
 1647TIP3    H126432   4.092   6.644  10.095 -0.0270 -0.6881 -0.3689
 1647TIP3    H226433   4.054   6.747  10.199 -0.1566 -0.2273 -0.8674
 1648TIP3   OH226434   4.530   0.371  14.343 -0.6168 -0.1012  0.0087
 1648TIP3    H126435   4.444   0.387  14.383 -1.3129 -0.2963 -1.3620
 1648TIP3    H226436   4.511   0.315  14.268  0.5833  0.7646 -0.9649
 1649TIP3   OH226437   1.239   5.376  11.348 -0.0751  0.0098 -0.1907
 1649TIP3    H126438   1.218   5.283  11.340  1.4689 -0.5576  1.6688
 1649TIP3    H226439   1.192   5.405  11.427  0.2708  0.5538 -0.1813
 1650TIP3   OH226440   2.549   6.778  13.510 -0.1099  0.0076  0.0046
 1650TIP3    H126441   2.590   6.864  13.504  0.6110 -0.1154  2.2290
 1650TIP3    H226442   2.600   6.723  13.451 -0.0120  0.8846 -0.7541
 1651TIP3   OH226443   1.358   3.561   5.588 -0.5471  0.1469  0.2324
 1651TIP3    H126444   1.419   3.633   5.606 -2.0420  1.3030  0.8749
 1651TIP3    H226445   1.404   3.483   5.620  1.5783  0.5950 -1.5209
 1652TIP3   OH226446   5.545   3.368  14.107 -0.3227 -0.4850  0.1430
 1652TIP3    H126447   5.508   3.456  14.113  0.0792 -0.3262  0.3033
 1652TIP3    H226448   5.473   3.310  14.132 -0.1509 -0.1244  1.5212
 1653TIP3   OH226449   5.054   4.781  11.489  0.3096 -0.4554  0.1930
 1653TIP3    H126450   5.101   4.863  11.473  2.2997 -1.7634 -1.2153
 1653TIP3    H226451   4.963   4.808  11.505  1.4168  2.1936  2.9567
 1654TIP3   OH226452   0.600   6.577  13.473  0.9359  0.3084  0.4504
 1654TIP3    H126453   0.689   6.562  13.442  0.9421  0.6080  0.3218
 1654TIP3    H226454   0.588   6.672  13.468  0.7066  0.2970  0.7332
 1655TIP3   OH226455   3.503   6.416  12.156 -0.1579 -0.0310  0.0608
 1655TIP3    H126456   3.418   6.459  12.160  0.4128  1.1799 -0.2657
 1655TIP3    H226457   3.527   6.400  12.248 -1.3042 -1.6036  0.1232
 1656TIP3   OH226458   6.989   0.391  10.734  0.0993  0.5587 -0.4079
 1656TIP3    H126459   6.939   0.332  10.791  0.3886  0.3731 -0.3444
 1656TIP3    H226460   7.054   0.335  10.692  0.8372  0.9467  0.1860
 1657TIP3   OH226461   4.199   2.442  15.519 -0.4413 -0.1000 -0.3489
 1657TIP3    H126462   4.227   2.351  15.520  0.0453  0.0114  2.0790
 1657TIP3    H226463   4.175   2.459  15.428  1.0850 -2.1353 -1.1980
 1658TIP3   OH226464   6.795   4.413  10.660 -0.0283  0.2554 -0.2510
 1658TIP3    H126465   6.813   4.330  10.704 -2.2428 -0.1848 -0.0581
 1658TIP3    H226466   6.852   4.413  10.584  0.5380 -1.0999  0.1544
 1659TIP3   OH226467   7.110   6.621  13.171 -0.2031 -0.3554 -0.0963
 1659TIP3    H126468   7.022   6.651  13.151 -0.1841 -0.9470 -1.1127
 1659TIP3    H226469   7.167   6.674  13.116  0.2415  1.1157  1.6670
 1660TIP3   OH226470   6.115   1.750  13.355 -0.5116  0.1674 -0.1441
 1660TIP3    H126471   6.082   1.815  13.294  0.7010 -0.3500 -1.4230
 1660TIP3    H226472   6.131   1.672  13.302  2.7976  0.4019  0.2473
 1661TIP3   OH226473   6.451   2.205  12.882 -0.3897  0.7387  1.3181
 1661TIP3    H126474   6.466   2.208  12.976  0.6047 -0.0978  1.1990
 1661TIP3    H226475   6.452   2.112  12.860 -1.8389  0.8559  0.6503
 1662TIP3   OH226476   4.570   4.805   0.587  0.2701  0.6287 -0.1230
 1662TIP3    H126477   4.553   4.895   0.614 -3.2740  0.6142 -1.7068
 1662TIP3    H226478   4.588   4.812   0.493  1.1673 -0.2544 -0.0331
 1663TIP3   OH226479   6.441   5.672  14.140 -0.3281 -0.4761  0.0594
 1663TIP3    H126480   6.467   5.725  14.065 -0.1733 -0.9567 -0.2308
 1663TIP3    H226481   6.509   5.688  14.205 -1.1207  0.9163  0.5795
 1664TIP3   OH226482   1.156   1.564   2.015  0.4181 -0.2150 -0.3003
 1664TIP3    H126483   1.136   1.478   2.051  1.9349 -1.2755 -1.8240
 1664TIP3    H226484   1.232   1.594   2.064  0.8721 -0.4913 -0.8154
 1665TIP3   OH226485   4.611   5.835  13.177  0.1197 -0.0065 -0.5029
 1665TIP3    H126486   4.548   5.780  13.224 -0.9554  0.3682 -1.4773
 1665TIP3    H226487   4.694   5.788  13.187 -0.2081 -0.3159  1.1196
 1666TIP3   OH226488   0.254   5.026  15.472 -0.1431 -0.1275 -0.0511
 1666TIP3    H126489   0.160   5.009  15.465 -0.3432  1.3025 -1.1493
 1666TIP3    H226490   0.289   4.946  15.511 -1.8074 -0.6771  0.4151
 1667TIP3   OH226491   5.352   2.316   3.131  0.4356  0.2766  0.1098
 1667TIP3    H126492   5.278   2.256   3.138  0.1859  0.4297 -0.9756
 1667TIP3    H226493   5.357   2.359   3.216  0.7470 -1.4197  0.9855
 1668TIP3   OH226494   4.003   6.818  12.446 -0.4764 -0.6552 -0.3427
 1668TIP3    H126495   3.909   6.809  12.460 -0.5982  1.1340  0.2738
 1668TIP3    H226496   4.041   6.813  12.534 -0.0441 -0.8889 -0.5406
 1669TIP3   OH226497   3.414   3.328  11.890  0.4957  0.0627  0.2540
 1669TIP3    H126498   3.421   3.355  11.798 -0.9217 -0.0446  0.0884
 1669TIP3    H226499   3.487   3.372  11.934  0.8473  0.5863 -0.8127
 1670TIP3   OH226500   1.014   3.894  10.069  0.2849  0.1687  0.2697
 1670TIP3    H126501   1.047   3.857  10.151 -0.6566 -1.0937  0.1240
 1670TIP3    H226502   1.031   3.826  10.004 -2.0080 -0.3256  0.0865
 1671TIP3   OH226503   6.130   4.521  11.809 -0.2700  0.1101  0.2177
 1671TIP3    H126504   6.053   4.570  11.836 -0.0575  1.5258 -1.5196
 1671TIP3    H226505   6.203   4.564  11.852 -0.1634  0.8760 -0.6883
 1672TIP3   OH226506   4.619   4.684  14.326  0.3838 -0.2423 -0.4963
 1672TIP3    H126507   4.580   4.748  14.385  0.5225 -0.6336  0.0259
 1672TIP3    H226508   4.624   4.729  14.242  1.0357  0.6488 -0.0002
 1673TIP3   OH226509   2.135   0.565  11.499 -0.0783 -0.0101  0.2260
 1673TIP3    H126510   2.178   0.649  11.488 -0.1607 -0.0309 -0.2715
 1673TIP3    H226511   2.178   0.507  11.436 -0.5602 -0.1344  0.0085
 1674TIP3   OH226512   1.532   3.033  11.763  0.0636 -0.3592  0.3662
 1674TIP3    H126513   1.497   3.122  11.753 -2.1747 -1.0413  1.3553
 1674TIP3    H226514   1.571   3.033  11.851  0.3603 -0.2811  0.2361
 1675TIP3   OH226515   4.967   5.404  13.269 -0.1564  0.1752  0.2424
 1675TIP3    H126516   5.024   5.475  13.240  0.1511 -0.0255  0.3556
 1675TIP3    H226517   5.006   5.374  13.351 -1.0598  0.7932  0.9200
 1676TIP3   OH226518   2.759   3.311  11.972 -0.3636  0.3481  0.8023
 1676TIP3    H126519   2.750   3.390  12.026  0.6888  0.2999  1.0613
 1676TIP3    H226520   2.671   3.273  11.971 -0.7214  1.1335  1.2765
 1677TIP3   OH226521   0.914   6.473  11.361 -0.3196  0.1905  0.7451
 1677TIP3    H126522   0.856   6.526  11.306 -0.2021 -1.3135 -0.9273
 1677TIP3    H226523   0.919   6.521  11.444 -1.5541  1.8833 -0.0942
 1678TIP3   OH226524   4.147   6.992   9.960 -0.0399 -0.0360 -0.6644
 1678TIP3    H126525   4.155   7.084   9.935  0.7249  0.0310 -0.2199
 1678TIP3    H226526   4.157   6.944   9.878 -2.7819  0.3266 -1.2843
 1679TIP3   OH226527   5.997   6.058  11.507 -0.3719 -0.3836  0.2390
 1679TIP3    H126528   5.937   6.021  11.573 -0.2249 -0.7246  0.1838
 1679TIP3    H226529   5.959   6.143  11.485 -1.6782 -1.2129 -0.9044
 1680TIP3   OH226530   4.155   2.347  12.459  0.1356  0.2536 -0.1351
 1680TIP3    H126531   4.166   2.438  12.431  0.7192 -0.0847 -1.0418
 1680TIP3    H226532   4.209   2.296  12.399  1.0849 -0.5626  1.3481
 1681TIP3   OH226533   4.371   6.923  12.805  0.2164  0.0548  0.3220
 1681TIP3    H126534   4.417   6.871  12.870  0.4837 -0.8941 -0.5961
 1681TIP3    H226535   4.410   7.010  12.811 -0.6199  0.3408  2.2623
 1682TIP3   OH226536   0.541   3.205   0.826 -0.2772 -0.0759  0.3045
 1682TIP3    H126537   0.625   3.159   0.819 -0.3011 -0.0655 -0.0732
 1682TIP3    H226538   0.485   3.144   0.873  0.1382  0.1967  1.1724
 1683TIP3   OH226539   6.371   4.648  13.211 -0.7163  0.4250  0.6529
 1683TIP3    H126540   6.313   4.693  13.149 -0.9370 -0.0396  0.5187
 1683TIP3    H226541   6.401   4.571  13.163  0.6938  1.0910  0.4101
 1684TIP3   OH226542   5.390   4.528  10.373  0.1899 -0.0309  0.2751
 1684TIP3    H126543   5.364   4.566  10.289 -3.1433 -0.5043  0.9462
 1684TIP3    H226544   5.335   4.450  10.382  0.3908  0.0547  2.9214
 1685TIP3   OH226545   6.407   4.175  12.357  0.9856  0.3360 -0.2223
 1685TIP3    H126546   6.313   4.154  12.356  0.3979  2.5347  1.2098
 1685TIP3    H226547   6.450   4.092  12.339 -1.2442 -0.6019 -1.6993
 1686TIP3   OH226548   3.524   2.584  13.656  0.0501 -0.1167 -0.2498
 1686TIP3    H126549   3.578   2.543  13.589 -1.2104  1.6860 -2.5059
 1686TIP3    H226550   3.572   2.663  13.682 -0.1755 -0.0039 -0.1670
 1687TIP3   OH226551   3.428   0.093  13.959  0.0196 -0.0491  0.4529
 1687TIP3    H126552   3.492   0.044  14.010  2.3766 -0.6890 -2.7748
 1687TIP3    H226553   3.352   0.034  13.953  0.1712 -0.4517  2.0916
 1688TIP3   OH226554   2.044   3.624  12.940 -0.4331 -0.2008 -0.2113
 1688TIP3    H126555   2.036   3.698  12.879 -1.3663 -0.1469 -0.0333
 1688TIP3    H226556   2.022   3.660  13.025  1.3716 -0.1612  0.2635
 1689TIP3   OH226557   2.888   5.645   2.645  0.2407  0.6856 -0.1914
 1689TIP3    H126558   2.971   5.604   2.618  0.7548  1.0671  0.7461
 1689TIP3    H226559   2.885   5.632   2.740 -0.6471  0.9222 -0.1815
 1690TIP3   OH226560   1.700   1.168   0.650  0.3312  0.5243 -0.3448
 1690TIP3    H126561   1.676   1.108   0.720  2.1026 -1.4372 -1.2890
 1690TIP3    H226562   1.782   1.208   0.679  0.7417  0.1775 -0.9973
 1691TIP3   OH226563   1.778   1.914   2.759  0.8161  0.3851 -0.0142
 1691TIP3    H126564   1.829   1.917   2.839  1.2453  0.7787 -0.2939
 1691TIP3    H226565   1.692   1.881   2.785  1.6480 -1.7395  0.2272
 1692TIP3   OH226566   0.127   4.475  13.396 -0.6396 -0.1269  0.0844
 1692TIP3    H126567   0.144   4.434  13.312 -0.0732  1.1104 -0.4307
 1692TIP3    H226568   0.213   4.506  13.426 -0.7096 -1.1859  1.4796
 1693TIP3   OH226569   5.125   6.242  10.644  0.5622  0.0321 -0.2077
 1693TIP3    H126570   5.201   6.198  10.681 -2.4432 -2.9791  3.2393
 1693TIP3    H226571   5.106   6.314  10.704  1.0394  1.2271 -1.4506
 1694TIP3   OH226572   7.017   1.470  12.071 -0.2197  0.0772 -0.2973
 1694TIP3    H126573   7.027   1.562  12.049  2.5804 -0.4339 -1.4624
 1694TIP3    H226574   6.926   1.450  12.049 -0.1706  1.9257 -2.4765
 1695TIP3   OH226575   2.657   3.114  13.484 -0.6050 -0.1304 -0.4001
 1695TIP3    H126576   2.653   3.018  13.485 -1.0351 -0.1231 -0.8799
 1695TIP3    H226577   2.748   3.135  13.508 -0.1107 -0.6952 -1.7054
 1696TIP3   OH226578   0.970   4.792  12.717 -0.8822 -0.2034  0.0264
 1696TIP3    H126579   0.923   4.753  12.644  1.1101 -0.3166 -1.2491
 1696TIP3    H226580   1.062   4.793  12.690 -0.2102  0.6979  2.1078
 1697TIP3   OH226581   3.966   2.351  12.652  0.0515  0.3318  0.1923
 1697TIP3    H126582   3.925   2.434  12.629 -2.3437 -1.3232 -2.0692
 1697TIP3    H226583   4.039   2.342  12.590  0.4045  0.7538  0.5331
 1698TIP3   OH226584   5.128   4.357  12.603 -0.3008  0.2934 -0.5043
 1698TIP3    H126585   5.199   4.298  12.576  0.1364  0.7982 -0.4996
 1698TIP3    H226586   5.098   4.396  12.521 -1.6318 -1.0461 -0.6904
 1699TIP3   OH226587   6.741   0.775  14.310 -0.4379 -0.1097 -0.2267
 1699TIP3    H126588   6.739   0.706  14.377 -1.4859  0.5593  0.4529
 1699TIP3    H226589   6.832   0.776  14.280 -0.1942 -1.1477  0.4178
 1700TIP3   OH226590   5.503   0.302  12.893  0.3836  0.0439  0.1590
 1700TIP3    H126591   5.424   0.260  12.925  0.9097  0.0235  1.4799
 1700TIP3    H226592   5.541   0.239  12.831  0.6158 -1.0008  1.3247
 1701TIP3   OH226593   4.218   1.091   1.101 -0.7097  0.0937  0.3355
 1701TIP3    H126594   4.304   1.102   1.142 -0.4628 -2.1512  0.5996
 1701TIP3    H226595   4.176   1.176   1.108  1.3812  1.1655  0.4696
 1702TIP3   OH226596   4.870   0.171  10.314  0.0540  0.2829  0.4063
 1702TIP3    H126597   4.870   0.101  10.380 -2.2223 -1.8366 -1.6042
 1702TIP3    H226598   4.818   0.241  10.352 -0.0106 -0.3009  1.4233
 1703TIP3   OH226599   5.725   1.534  13.221 -0.0794 -0.4618  0.1781
 1703TIP3    H126600   5.642   1.557  13.181  0.3521  0.0680 -0.4270
 1703TIP3    H226601   5.760   1.464  13.166  0.1419 -0.2877  0.0969
 1704TIP3   OH226602   0.778   4.005  10.482  0.5407  0.2170  0.1829
 1704TIP3    H126603   0.808   4.082  10.531 -0.9410 -0.0723  1.6365
 1704TIP3    H226604   0.688   4.025  10.459  1.2749  0.5045 -2.8906
 1705TIP3   OH226605   2.222   5.187  14.663  0.0174  0.1269  0.2013
 1705TIP3    H126606   2.213   5.141  14.746  1.0055 -2.4348 -0.9802
 1705TIP3    H226607   2.217   5.118  14.597 -1.8345  2.1607 -1.9974
 1706TIP3   OH226608   5.072   1.745   0.190  0.0282 -0.0161 -0.0709
 1706TIP3    H126609   5.143   1.805   0.213  0.3966  1.2259 -3.7870
 1706TIP3    H226610   5.117   1.665   0.161 -0.2391 -0.2349  0.1103
 1707TIP3   OH226611   1.786   1.124  14.687  0.1749 -0.6216  0.1923
 1707TIP3    H126612   1.694   1.097  14.689  0.2974 -1.0932 -0.3663
 1707TIP3    H226613   1.835   1.043  14.677  0.6074 -0.2992 -0.3780
 1708TIP3   OH226614   0.877   1.998  12.354  0.0045 -0.4638 -0.5849
 1708TIP3    H126615   0.879   1.994  12.259  1.7622 -1.3105 -0.5548
 1708TIP3    H226616   0.898   1.909  12.382 -0.8310 -0.3045  0.6003
 1709TIP3   OH226617   5.318   6.596   0.266  0.2406  0.2601 -0.2722
 1709TIP3    H126618   5.371   6.675   0.253 -0.5205  0.6023 -1.3613
 1709TIP3    H226619   5.368   6.527   0.223  1.7180 -0.2334  2.0498
 1710TIP3   OH226620   1.578   2.028  10.851 -0.0770 -0.7046  0.0781
 1710TIP3    H126621   1.535   1.973  10.785  2.7404 -3.2388  0.1386
 1710TIP3    H226622   1.517   2.031  10.924 -0.9893 -2.5372 -0.5560
 1711TIP3   OH226623   2.121   6.355  12.745  0.3366 -0.4229 -0.7863
 1711TIP3    H126624   2.065   6.350  12.822  0.7761  1.5658 -0.3007
 1711TIP3    H226625   2.125   6.264  12.713  0.5641 -1.3902  1.7806
 1712TIP3   OH226626   6.709   3.923  10.020  0.1357  0.3501  0.4840
 1712TIP3    H126627   6.700   3.876  10.103 -3.5499  2.3888  1.4551
 1712TIP3    H226628   6.795   3.966  10.026  1.5941 -2.4646  1.4903
 1713TIP3   OH226629   0.082   2.096  11.489  0.4165  0.4328  0.1493
 1713TIP3    H126630   0.018   2.031  11.459  1.4628 -0.4781 -0.1653
 1713TIP3    H226631   0.059   2.176  11.442  0.4612 -0.3005 -1.1531
 1714TIP3   OH226632   4.028   0.063  14.014  0.0354 -0.6455 -0.2322
 1714TIP3    H126633   3.955   0.098  13.964 -1.1380 -0.4392  1.5459
 1714TIP3    H226634   4.081   0.016  13.950 -1.5181 -0.5861 -1.6081
 1715TIP3   OH226635   1.175   5.790  11.937 -0.0508 -0.1897  0.2707
 1715TIP3    H126636   1.141   5.858  11.995  0.9911  0.0748  0.5978
 1715TIP3    H226637   1.186   5.834  11.852  2.6740  0.7377  0.9918
 1716TIP3   OH226638   3.887   4.420  11.688 -0.0120 -0.4075  0.1918
 1716TIP3    H126639   3.868   4.327  11.683  0.0080 -0.3824 -0.3358
 1716TIP3    H226640   3.922   4.432  11.777  0.3210 -0.9650  0.1426
 1717TIP3   OH226641   1.787   5.438  14.626 -0.3837  0.3907  0.4439
 1717TIP3    H126642   1.751   5.398  14.705  0.1965  0.2440  0.6358
 1717TIP3    H226643   1.880   5.450  14.645  0.1406 -1.2417 -0.8521
 1718TIP3   OH226644   3.007   5.801  10.142 -0.0988  0.0178  0.4959
 1718TIP3    H126645   2.930   5.837  10.098 -1.0238  0.4716  2.4057
 1718TIP3    H226646   3.080   5.828  10.085 -1.0619  2.1684  0.1490
 1719TIP3   OH226647   5.237   6.544  13.334 -0.2197 -0.0649 -0.0184
 1719TIP3    H126648   5.227   6.459  13.377 -0.2257 -0.1297 -0.1453
 1719TIP3    H226649   5.306   6.588  13.383 -0.1605 -0.1756 -0.0013
 1720TIP3   OH226650   0.920   0.614  12.787  0.1247  0.0291  0.1593
 1720TIP3    H126651   0.982   0.544  12.769  0.7791  0.8758 -1.0628
 1720TIP3    H226652   0.975   0.688  12.813 -0.1835  1.2581 -2.4142
 1721TIP3   OH226653   3.977   5.281   1.896 -0.5258  0.3459 -0.7879
 1721TIP3    H126654   4.030   5.355   1.927  0.9708 -0.9402 -0.1494
 1721TIP3    H226655   3.888   5.316   1.889 -0.1541  1.7726  1.0488
 1722TIP3   OH226656   2.511   6.282   2.039 -0.1611 -0.0091  0.1343
 1722TIP3    H126657   2.546   6.302   1.952  0.9553  2.4637  1.0530
 1722TIP3    H226658   2.588   6.277   2.096 -0.6580 -3.8459  0.7310
 1723TIP3   OH226659   1.207   5.518  10.408  0.1963  0.2520  0.4655
 1723TIP3    H126660   1.239   5.473  10.487 -1.4075  1.1563  1.6862
 1723TIP3    H226661   1.285   5.532  10.355  1.0619 -2.0604  0.9916
 1724TIP3   OH226662   3.233   3.345  11.242  0.5138 -0.6334 -0.1312
 1724TIP3    H126663   3.173   3.322  11.171  0.4787 -2.3869  0.4334
 1724TIP3    H226664   3.176   3.378  11.311  0.4188 -0.2424 -0.3915
 1725TIP3   OH226665   4.656   5.641  15.108  0.2479  0.2779 -0.1656
 1725TIP3    H126666   4.589   5.631  15.041  0.1927 -1.3025  0.0805
 1725TIP3    H226667   4.623   5.710  15.166  0.1876  1.4835 -1.5993
 1726TIP3   OH226668   0.081   3.953  10.442 -0.2951 -0.0887 -0.1051
 1726TIP3    H126669   0.027   4.030  10.428  0.4950  0.4641 -0.1806
 1726TIP3    H226670   0.170   3.987  10.451  0.0618 -0.9859 -0.1035
 1727TIP3   OH226671   2.188   4.208  13.465  0.2346  0.2187 -0.3664
 1727TIP3    H126672   2.195   4.179  13.374 -0.7983 -1.0906 -0.0648
 1727TIP3    H226673   2.118   4.273  13.463 -0.8286 -0.8730 -0.3200
 1728TIP3   OH226674   2.386   3.588  14.971  0.1553  0.2653  0.0464
 1728TIP3    H126675   2.373   3.660  14.909 -0.3049 -0.1587 -0.3620
 1728TIP3    H226676   2.299   3.572  15.007  0.4647  0.6755  1.0088
 1729TIP3   OH226677   2.540   4.073  11.181  0.1021  0.1045 -0.7405
 1729TIP3    H126678   2.617   4.038  11.135  2.2013 -1.5265  3.4221
 1729TIP3    H226679   2.569   4.158  11.214 -0.3865  0.1466 -0.4141
 1730TIP3   OH226680   6.019   2.498   9.575 -0.5569  0.6090 -0.9540
 1730TIP3    H126681   5.989   2.408   9.590 -1.1822  1.0191  0.5327
 1730TIP3    H226682   6.091   2.509   9.637 -0.1478  0.9750 -1.4917
 1731TIP3   OH226683   2.491   3.316  13.503 -0.2283  0.4986  0.5939
 1731TIP3    H126684   2.486   3.301  13.598 -1.3670 -1.0735  0.3214
 1731TIP3    H226685   2.553   3.250  13.472 -0.3361  0.6042  0.1564
 1732TIP3   OH226686   3.509   5.776   1.265 -0.7728  0.3043  0.5293
 1732TIP3    H126687   3.421   5.804   1.243 -0.3108  2.3114  1.0534
 1732TIP3    H226688   3.567   5.832   1.213  0.2033 -0.1181  1.1219
 1733TIP3   OH226689   2.651   3.020  10.146  0.1656 -0.6093  0.2734
 1733TIP3    H126690   2.743   2.992  10.151 -0.4417 -2.9743 -0.6146
 1733TIP3    H226691   2.601   2.941  10.166 -1.7348  0.9236  2.1038
 1734TIP3   OH226692   2.122   6.470  12.516  0.3996 -0.3972 -0.3822
 1734TIP3    H126693   2.189   6.423  12.466  2.2590  2.5789 -0.9187
 1734TIP3    H226694   2.127   6.432  12.604  1.8449 -1.1347 -0.7447
 1735TIP3   OH226695   2.650   3.435   3.888 -0.1270  0.4855 -0.1366
 1735TIP3    H126696   2.724   3.469   3.838  0.5419 -2.1246 -1.1024
 1735TIP3    H226697   2.641   3.495   3.963  1.2967  2.3041 -1.3505
 1736TIP3   OH226698   5.964   6.018  12.181  0.0430  0.0849  0.4468
 1736TIP3    H126699   6.020   6.023  12.103 -0.9567 -0.5693 -0.3437
 1736TIP3    H226700   5.886   5.971  12.151 -0.8490  0.7961  1.5704
 1737TIP3   OH226701   4.547   1.292  15.062 -1.0630 -0.5410  0.3270
 1737TIP3    H126702   4.471   1.348  15.047 -1.0145 -0.5476  0.0479
 1737TIP3    H226703   4.509   1.208  15.090 -1.2980 -1.2520 -1.8956
 1738TIP3   OH226704   0.948   5.199  11.119 -0.0839  0.0068 -0.5612
 1738TIP3    H126705   0.971   5.171  11.208  0.6344 -1.5005 -1.1789
 1738TIP3    H226706   1.018   5.258  11.093 -0.4545  0.6915 -0.0327
 1739TIP3   OH226707   6.821   6.330  14.069  0.7290 -0.1164 -0.1290
 1739TIP3    H126708   6.900   6.325  14.015  1.5272  2.0455  0.7196
 1739TIP3    H226709   6.850   6.299  14.155  1.3502  2.7304  0.7875
 1740TIP3   OH226710   4.782   2.654  12.661  0.0490  0.9577 -0.5491
 1740TIP3    H126711   4.821   2.606  12.588 -1.1262  1.5158 -1.5682
 1740TIP3    H226712   4.713   2.596  12.693 -1.5131  1.9598 -1.9135
 1741TIP3   OH226713   0.327   4.368  10.959 -0.3415  0.6084  0.3737
 1741TIP3    H126714   0.289   4.280  10.961  2.6323 -0.8360 -0.2741
 1741TIP3    H226715   0.317   4.397  10.868 -1.8226  1.2283  0.7132
 1742TIP3   OH226716   0.055   4.559   0.381  0.0737  0.4499  0.7216
 1742TIP3    H126717  -0.036   4.588   0.378 -0.4438 -1.1439 -0.7354
 1742TIP3    H226718   0.051   4.465   0.365  2.0259  0.4593 -0.1376
 1743TIP3   OH226719   0.520   5.898  15.684  0.4182  0.3300 -0.0590
 1743TIP3    H126720   0.562   5.815  15.661 -0.3106 -0.0726  0.0526
 1743TIP3    H226721   0.553   5.961  15.619 -1.0539 -0.6226 -1.8273
 1744TIP3   OH226722   5.748   1.116  12.672 -0.0054 -0.2908  0.1476
 1744TIP3    H126723   5.828   1.065  12.661  0.7349 -0.1129  3.7331
 1744TIP3    H226724   5.766   1.198  12.625  2.2760  0.0278  1.4064
 1745TIP3   OH226725   4.321   2.899  11.759  0.0135  0.5918 -0.0717
 1745TIP3    H126726   4.284   2.969  11.704 -5.1251 -2.6110 -1.4554
 1745TIP3    H226727   4.369   2.843  11.698 -0.8983 -0.0468 -0.2238
 1746TIP3   OH226728   4.168   0.985  12.982 -0.2382 -0.1530 -0.3796
 1746TIP3    H126729   4.194   1.038  13.058  0.5408  0.7071 -1.2192
 1746TIP3    H226730   4.115   0.914  13.019 -0.3681  0.5818  0.8983
 1747TIP3   OH226731   5.681   5.391  10.951 -0.7713 -0.0658  0.1950
 1747TIP3    H126732   5.661   5.385  10.858 -2.9966  0.0952  0.6142
 1747TIP3    H226733   5.617   5.453  10.986  0.5642  0.5561  1.7056
 1748TIP3   OH226734   5.701   6.122  15.048  0.3821 -0.1165  0.0397
 1748TIP3    H126735   5.684   6.210  15.015 -1.7186 -0.1860  0.8030
 1748TIP3    H226736   5.776   6.091  14.997  0.5348  1.7236 -0.9233
 1749TIP3   OH226737   0.647   1.729  13.751  0.0364 -0.1370  0.2874
 1749TIP3    H126738   0.613   1.753  13.837 -0.3747  0.5686 -0.0627
 1749TIP3    H226739   0.740   1.711  13.765  0.0484  0.3254  0.8123
 1750TIP3   OH226740   6.823   6.632  12.483 -0.0595  0.7062 -0.4248
 1750TIP3    H126741   6.741   6.682  12.481 -0.6545 -0.1955  0.4566
 1750TIP3    H226742   6.885   6.685  12.434 -1.2767  1.2299 -1.4499
 1751TIP3   OH226743   0.404   2.810   9.352 -0.5035  0.5414 -0.1837
 1751TIP3    H126744   0.333   2.852   9.303 -1.2389 -0.5181 -0.0657
 1751TIP3    H226745   0.410   2.861   9.433 -1.3571  0.4346 -0.0492
 1752TIP3   OH226746   0.818   4.289  10.564  0.0179 -0.6215 -0.0237
 1752TIP3    H126747   0.735   4.320  10.601  0.5993 -0.6110  1.3522
 1752TIP3    H226748   0.843   4.357  10.501 -0.2693  0.1490  0.6681
 1753TIP3   OH226749   0.463   6.070  11.972 -0.2022 -0.3803  0.1171
 1753TIP3    H126750   0.532   6.134  11.988  0.4460 -1.0059 -0.1222
 1753TIP3    H226751   0.503   5.986  11.993 -0.4998 -0.8700 -1.1710
 1754TIP3   OH226752   5.438   5.677   9.687  0.4113  0.1731 -0.0048
 1754TIP3    H126753   5.426   5.598   9.741 -0.3124  0.3695  0.1332
 1754TIP3    H226754   5.531   5.675   9.662  0.6244 -0.2219  0.7759
 1755TIP3   OH226755   5.418   1.581  14.694 -0.1855  0.3246 -0.9329
 1755TIP3    H126756   5.406   1.669  14.730 -1.8851  0.3686 -1.5052
 1755TIP3    H226757   5.461   1.595  14.610  1.2652  0.4296 -0.2100
 1756TIP3   OH226758   1.525   3.386  14.262 -0.2203  0.2917  0.3019
 1756TIP3    H126759   1.443   3.342  14.236  1.4064 -1.9706 -1.3834
 1756TIP3    H226760   1.539   3.359  14.353  0.5808 -2.6113 -0.6014
 1757TIP3   OH226761   1.759   0.241  11.913 -0.6486  0.6929  0.5290
 1757TIP3    H126762   1.721   0.246  12.000  0.2506 -0.0340  0.9805
 1757TIP3    H226763   1.816   0.317  11.907 -1.3868  1.2320  0.2296
 1758TIP3   OH226764   1.294   0.715  10.293  0.2693 -0.0696  0.1487
 1758TIP3    H126765   1.240   0.759  10.228 -0.4210  0.3139  0.9625
 1758TIP3    H226766   1.278   0.763  10.374 -1.3308 -2.3782  1.3310
 1759TIP3   OH226767   6.513   1.982  10.753  0.2108 -0.2961 -0.5149
 1759TIP3    H126768   6.528   1.977  10.658  0.5731 -2.1006 -0.3887
 1759TIP3    H226769   6.594   2.017  10.788  0.5505 -0.8172 -0.7651
 1760TIP3   OH226770   6.389   6.062  14.734  0.4532 -0.4369  0.1164
 1760TIP3    H126771   6.308   6.012  14.722  0.3622 -0.5629  1.1312
 1760TIP3    H226772   6.457   5.996  14.741  0.5832 -0.3474 -0.2950
 1761TIP3   OH226773   1.144   2.118   9.890 -1.0084 -0.1865  0.2856
 1761TIP3    H126774   1.181   2.124   9.802 -0.8611 -2.4757  0.1213
 1761TIP3    H226775   1.084   2.043   9.885 -2.9836  1.2378  1.4847
 1762TIP3   OH226776   2.784   2.604   0.139 -0.4193  0.2809 -0.4658
 1762TIP3    H126777   2.819   2.525   0.178  1.2849  1.1616 -0.1159
 1762TIP3    H226778   2.780   2.586   0.046  0.4649 -0.0380 -0.4447
 1763TIP3   OH226779   5.954   5.713   1.894 -0.4063 -0.0100  0.5575
 1763TIP3    H126780   5.985   5.803   1.907  0.5428 -0.3515  0.7690
 1763TIP3    H226781   5.966   5.671   1.979 -0.8636 -0.3370  0.4656
 1764TIP3   OH226782   7.021   3.508  14.358 -0.1592  0.1184  0.4371
 1764TIP3    H126783   7.072   3.461  14.424  2.0609  0.3621 -1.0070
 1764TIP3    H226784   6.968   3.569  14.408 -0.4209 -1.4187  2.1284
 1765TIP3   OH226785   3.111   3.506  11.885  0.3161  0.1178 -0.2179
 1765TIP3    H126786   3.036   3.564  11.898 -0.4616 -0.8285 -0.3840
 1765TIP3    H226787   3.176   3.561  11.840  0.7050  1.6494  2.0751
 1766TIP3   OH226788   5.135   3.978  11.094 -0.1565  0.1599  0.0252
 1766TIP3    H126789   5.092   3.989  11.178 -0.3074  1.0161 -0.1460
 1766TIP3    H226790   5.064   3.977  11.030 -0.0493 -0.5856 -0.0831
 1767TIP3   OH226791   1.145   2.349  12.632 -0.1017 -0.6326 -0.0337
 1767TIP3    H126792   1.237   2.371  12.648 -0.4689  2.3485 -1.2983
 1767TIP3    H226793   1.100   2.377  12.712 -0.1893  0.5584 -0.4727
 1768TIP3   OH226794   0.633   4.042  10.244 -0.5164  0.0549  0.3781
 1768TIP3    H126795   0.591   4.094  10.312 -1.3335 -0.2351  0.1137
 1768TIP3    H226796   0.575   3.966  10.233  0.1415 -0.4120  0.0772
 1769TIP3   OH226797   4.295   4.822  12.322 -0.1140 -0.3228 -0.6641
 1769TIP3    H126798   4.388   4.839  12.309  0.4754 -2.9974 -0.5800
 1769TIP3    H226799   4.265   4.892  12.380  2.5256 -0.8649  1.5820
 1770TIP3   OH226800   3.313   3.856   0.317 -0.4593  0.1716 -1.2050
 1770TIP3    H126801   3.386   3.837   0.376 -1.8847 -1.5689  0.1184
 1770TIP3    H226802   3.336   3.810   0.236 -0.6610 -1.5735 -0.3310
 1771TIP3   OH226803   6.900   6.489  10.966  0.3656 -0.1540  0.9440
 1771TIP3    H126804   6.894   6.536  10.883 -0.8868  1.6985  2.0259
 1771TIP3    H226805   6.985   6.516  11.003  0.9052 -0.9495  0.3325
 1772TIP3   OH226806   2.703   6.275  10.481 -0.5587 -0.0019  0.6456
 1772TIP3    H126807   2.748   6.352  10.516  1.8092 -0.1452 -1.7529
 1772TIP3    H226808   2.639   6.311  10.420  1.4053  0.2093 -1.4483
 1773TIP3   OH226809   2.138   6.102  12.666 -0.0505  0.1120  0.2650
 1773TIP3    H126810   2.139   6.039  12.738  0.0688 -0.9923 -0.6779
 1773TIP3    H226811   2.204   6.070  12.605  0.1896  1.3027 -0.1278
 1774TIP3   OH226812   3.618   2.883  10.923  0.2707 -0.1320 -0.1784
 1774TIP3    H126813   3.557   2.920  10.987 -1.0181 -1.5770 -0.5325
 1774TIP3    H226814   3.592   2.792  10.913  1.9992 -0.5964 -0.9578
 1775TIP3   OH226815   2.953   0.597  13.012 -0.3589 -0.1745  0.4556
 1775TIP3    H126816   3.009   0.629  13.082 -1.0223 -1.5895  1.6787
 1775TIP3    H226817   2.930   0.675  12.961  1.7104  0.5929  0.6322
 1776TIP3   OH226818   0.071   0.908  13.712  0.3082  0.4803  0.2244
 1776TIP3    H126819   0.123   0.982  13.743 -1.5605  0.7424  3.0504
 1776TIP3    H226820  -0.013   0.917  13.756 -2.3352  0.1586 -4.2083
 1777TIP3   OH226821   1.912   1.918  14.505 -0.7189  0.1608  0.3612
 1777TIP3    H126822   1.884   1.977  14.575 -0.5438  2.2127 -1.2021
 1777TIP3    H226823   1.998   1.887  14.533  0.1410  2.3413  0.3237
 1778TIP3   OH226824   3.265   2.305  12.805  0.8950  0.6589 -0.6528
 1778TIP3    H126825   3.313   2.372  12.854 -0.3839  1.5469 -0.5814
 1778TIP3    H226826   3.309   2.302  12.720  0.7932  1.7971 -0.7590
 1779TIP3   OH226827   3.604   4.473  15.040  0.4054 -0.2699 -0.0701
 1779TIP3    H126828   3.515   4.490  15.011  0.6030  3.4900  0.9183
 1779TIP3    H226829   3.595   4.447  15.132  0.3086  0.1991  0.0558
 1780TIP3   OH226830   0.326   6.348   0.898  0.1740  0.1726  0.5039
 1780TIP3    H126831   0.252   6.351   0.957  1.4310 -0.7976  2.2107
 1780TIP3    H226832   0.351   6.440   0.885 -0.6983  0.4415  0.7182
 1781TIP3   OH226833   6.613   5.143  11.950  0.5780  0.2650  0.1942
 1781TIP3    H126834   6.693   5.116  11.995  0.0090 -0.7939  0.5808
 1781TIP3    H226835   6.640   5.151  11.858  1.1264 -0.0578  0.3221
 1782TIP3   OH226836   1.174   1.559  13.960  0.6692  0.7461 -0.2264
 1782TIP3    H126837   1.212   1.628  14.014  0.2006  0.8754 -0.0571
 1782TIP3    H226838   1.094   1.534  14.007  1.5559 -0.9268  0.4991
 1783TIP3   OH226839   6.721   6.719  11.230 -0.1370 -0.2462 -0.2110
 1783TIP3    H126840   6.811   6.695  11.205  0.7074  1.0944  1.3132
 1783TIP3    H226841   6.724   6.726  11.326 -1.3003  1.8137 -0.2634
 1784TIP3   OH226842   2.269   1.831   4.306  0.0027  0.5712  0.2952
 1784TIP3    H126843   2.361   1.803   4.302  0.2401  1.2658  0.7383
 1784TIP3    H226844   2.249   1.830   4.400 -0.9241 -1.0681  0.1297
 1785TIP3   OH226845   6.453   1.218  13.480 -0.2749  0.4221 -0.1472
 1785TIP3    H126846   6.372   1.175  13.509 -0.4683 -0.1536 -1.4552
 1785TIP3    H226847   6.422   1.295  13.432 -0.0179  0.5833 -0.0545
 1786TIP3   OH226848   4.945   2.866  13.382  0.2041 -0.1528  0.0954
 1786TIP3    H126849   4.940   2.929  13.310 -0.9511 -0.2683  0.0515
 1786TIP3    H226850   4.990   2.914  13.452 -0.3403  0.6141 -0.0626
 1787TIP3   OH226851   4.222   2.143  13.693  0.0503 -0.5172 -0.3667
 1787TIP3    H126852   4.171   2.217  13.723  0.5866 -1.3645  3.0414
 1787TIP3    H226853   4.169   2.066  13.715  1.8012 -1.3191  1.3918
 1788TIP3   OH226854   4.900   3.600  13.439 -0.0301 -0.0713 -0.4516
 1788TIP3    H126855   4.929   3.599  13.531  0.5696  0.1314 -0.6311
 1788TIP3    H226856   4.899   3.508  13.413 -0.6012 -0.1653 -0.1276
 1789TIP3   OH226857   5.382   0.696  12.879 -0.1754 -0.4076 -0.5573
 1789TIP3    H126858   5.447   0.642  12.835  2.6596  1.7332  0.6870
 1789TIP3    H226859   5.433   0.760  12.928 -3.2675  1.4744  0.5062
 1790TIP3   OH226860   1.993   4.241  10.285  0.2362  0.1121 -0.0466
 1790TIP3    H126861   2.061   4.288  10.237 -0.3421 -0.7762 -1.8398
 1790TIP3    H226862   1.920   4.304  10.290  0.8530  0.7651  1.1262
 1791TIP3   OH226863   1.773   6.419  10.804 -0.7216  0.5929  0.1135
 1791TIP3    H126864   1.775   6.482  10.732  0.1243  2.0414  1.3573
 1791TIP3    H226865   1.813   6.465  10.878  2.2278 -2.1815  0.4623
 1792TIP3   OH226866   6.642   6.378  13.817 -0.0270  0.4947 -0.3798
 1792TIP3    H126867   6.734   6.380  13.842 -0.3491  0.6817  0.8697
 1792TIP3    H226868   6.639   6.324  13.739  1.3712  1.8756 -1.4461
 1793TIP3   OH226869   0.098   1.704   4.486  0.0475 -0.8537 -0.0414
 1793TIP3    H126870   0.032   1.734   4.424 -0.5461 -1.6153  0.2033
 1793TIP3    H226871   0.074   1.745   4.569 -0.5768 -1.6975  0.2189
 1794TIP3   OH226872   2.599   1.010  13.274  0.6737 -0.2755  0.0870
 1794TIP3    H126873   2.529   0.953  13.305  1.3175 -0.9361  0.3746
 1794TIP3    H226874   2.558   1.066  13.208 -0.3894  0.1742  1.0979
 1795TIP3   OH226875   4.154   1.414  14.745  0.0199 -0.2706  0.5900
 1795TIP3    H126876   4.190   1.457  14.823  1.5610  1.1423 -0.8202
 1795TIP3    H226877   4.159   1.320  14.766  1.6568  0.0099  1.7107
 1796TIP3   OH226878   3.841   1.665  10.966 -0.2270  0.3564  0.1451
 1796TIP3    H126879   3.811   1.756  10.964 -1.0446  0.0925 -0.0002
 1796TIP3    H226880   3.893   1.655  10.887 -0.2841  0.6505  0.0697
 1797TIP3   OH226881   1.098   7.151  10.538 -0.0832 -0.3176 -0.9222
 1797TIP3    H126882   1.192   7.133  10.545 -0.5019 -2.1551  0.8722
 1797TIP3    H226883   1.083   7.160  10.443  1.6275 -1.8029 -1.4049
 1798TIP3   OH226884   0.913   6.254  14.499  0.1796 -0.0881 -0.2330
 1798TIP3    H126885   0.877   6.211  14.422  0.4154  1.8564 -1.4832
 1798TIP3    H226886   0.913   6.347  14.477 -0.8548  0.6672  2.5559
 1799TIP3   OH226887   1.266   2.230  13.918 -0.2566  0.1994  0.4070
 1799TIP3    H126888   1.312   2.311  13.897  1.7148 -1.1631 -0.8483
 1799TIP3    H226889   1.212   2.212  13.841  2.5985 -1.8011 -1.3330
 1800TIP3   OH226890   6.075   1.325  14.167 -0.0910 -0.3656  0.3367
 1800TIP3    H126891   6.016   1.364  14.103  0.2515  0.0535  0.2648
 1800TIP3    H226892   6.039   1.239  14.184 -0.6284 -0.1774  0.1731
 1801TIP3   OH226893   3.304   1.215  11.912 -0.6558 -0.9756 -0.0307
 1801TIP3    H126894   3.249   1.276  11.862  1.0890  0.7601  0.0453
 1801TIP3    H226895   3.288   1.237  12.003  1.0639  0.4710 -0.0260
 1802TIP3   OH226896   0.975   1.404   1.192 -0.2615 -0.1025 -0.0941
 1802TIP3    H126897   0.909   1.422   1.126 -0.0691  1.4238  0.0944
 1802TIP3    H226898   1.047   1.364   1.144 -0.0343  1.1898 -0.8750
 1803TIP3   OH226899   3.513   3.623  11.598  0.3025 -0.1003 -0.2319
 1803TIP3    H126900   3.426   3.661  11.584 -0.6967 -2.1171  0.1108
 1803TIP3    H226901   3.523   3.620  11.693  0.6564 -0.0757 -0.2677
 1804TIP3   OH226902   7.063   1.206  11.169 -0.0539 -0.5309  0.1469
 1804TIP3    H126903   7.124   1.235  11.237 -0.8688  3.0103 -0.4195
 1804TIP3    H226904   7.092   1.251  11.090 -1.5106 -1.3442 -0.8960
 1805TIP3   OH226905   0.743   6.546   9.678 -0.0405  0.0615 -0.0709
 1805TIP3    H126906   0.772   6.467   9.723 -0.7850 -0.0681  0.2023
 1805TIP3    H226907   0.823   6.595   9.660  0.3899 -0.5689  0.1051
 1806TIP3   OH226908   6.951   3.162   1.930 -0.0788 -0.0446 -0.7171
 1806TIP3    H126909   6.862   3.165   1.966 -0.4317 -0.2749 -1.5394
 1806TIP3    H226910   6.939   3.178   1.836  0.7188 -0.4307 -0.8915
 1807TIP3   OH226911   3.310   1.860   1.432 -0.0492 -0.4162  0.4029
 1807TIP3    H126912   3.257   1.928   1.390 -3.2432 -2.5935  0.6118
 1807TIP3    H226913   3.383   1.846   1.372 -1.7006  0.1691 -1.8639
 1808TIP3   OH226914   5.428   2.809  12.347 -0.2510 -0.2247  0.5755
 1808TIP3    H126915   5.445   2.764  12.265 -0.2453  1.4086 -0.3613
 1808TIP3    H226916   5.350   2.766  12.383 -0.7584 -0.4205 -0.7072
 1809TIP3   OH226917   3.398   0.264  13.252 -0.2918 -0.5543 -0.0132
 1809TIP3    H126918   3.416   0.193  13.314 -0.4918 -1.6875 -1.2138
 1809TIP3    H226919   3.479   0.316  13.251 -0.0853 -0.8452  0.7618
 1810TIP3   OH226920   2.868   1.523  15.600 -0.3778 -0.1414  0.2494
 1810TIP3    H126921   2.785   1.484  15.573 -0.1557  0.2682 -1.0926
 1810TIP3    H226922   2.933   1.453  15.587 -0.4472 -0.3356  0.9206
 1811TIP3   OH226923   5.071   5.029  11.171 -0.0760  0.0445 -0.0740
 1811TIP3    H126924   5.045   5.073  11.251 -0.3969  1.3316 -0.8698
 1811TIP3    H226925   5.077   5.098  11.106 -0.6422 -1.0877 -1.3786
 1812TIP3   OH226926   0.434   5.254   1.279 -0.1436 -0.1917  0.5679
 1812TIP3    H126927   0.525   5.260   1.310  0.6624  0.9821 -1.7265
 1812TIP3    H226928   0.397   5.340   1.294 -0.8738 -0.6308  1.3799
 1813TIP3   OH226929   5.573   6.931  12.183 -0.5435 -0.3806  0.3360
 1813TIP3    H126930   5.547   6.964  12.269 -0.1828  0.9032 -0.0186
 1813TIP3    H226931   5.625   7.003  12.145  2.3662 -2.2222  0.4770
 1814TIP3   OH226932   1.506   5.469   9.568 -0.7747 -0.0080 -0.2242
 1814TIP3    H126933   1.501   5.564   9.573  0.7157  0.0201  2.0604
 1814TIP3    H226934   1.422   5.439   9.601 -0.7899  0.5139  0.2221
 1815TIP3   OH226935   0.597   5.577  10.556 -0.0130  0.5741  0.3303
 1815TIP3    H126936   0.666   5.553  10.618  1.4619  1.2763 -0.9794
 1815TIP3    H226937   0.583   5.499  10.503 -0.3345  0.3937  0.6736
 1816TIP3   OH226938   5.249   2.625  14.996  0.0900  0.0190 -0.4571
 1816TIP3    H126939   5.276   2.694  15.057 -3.4076  3.0165 -1.8755
 1816TIP3    H226940   5.242   2.670  14.912 -1.1199 -2.4126 -1.7460
 1817TIP3   OH226941   6.208   5.598  12.033  0.5141  0.1527  0.0741
 1817TIP3    H126942   6.217   5.617  12.126  0.7042 -1.5642  0.4351
 1817TIP3    H226943   6.290   5.628  11.994 -0.3192  2.7087  0.0683
 1818TIP3   OH226944   0.682   3.929  14.608  0.7566 -0.7314 -0.9531
 1818TIP3    H126945   0.732   3.962  14.533 -0.2279  0.0216 -1.3150
 1818TIP3    H226946   0.596   3.970  14.598  0.7002 -0.3728  0.7644
 1819TIP3   OH226947   6.159   3.792   1.351 -0.3347  0.1422 -0.0773
 1819TIP3    H126948   6.078   3.840   1.333 -0.8349 -0.4631  0.5184
 1819TIP3    H226949   6.228   3.856   1.335 -0.9639  0.8964  0.1405
 1820TIP3   OH226950   0.444   5.742  11.714  0.0200 -0.2181  0.0925
 1820TIP3    H126951   0.377   5.749  11.647 -0.4023 -1.9910  0.2844
 1820TIP3    H226952   0.508   5.810  11.691 -2.2426  2.1655  0.4502
 1821TIP3   OH226953   2.355   1.851   9.435  0.5204 -0.0116  0.3906
 1821TIP3    H126954   2.392   1.768   9.466 -0.2702 -2.0546 -3.4639
 1821TIP3    H226955   2.263   1.848   9.462  0.6551 -0.0376  0.8540
 1822TIP3   OH226956   4.653   6.886   0.502  0.1385 -0.4391 -0.0743
 1822TIP3    H126957   4.609   6.962   0.463  0.3294 -0.3481 -0.1154
 1822TIP3    H226958   4.584   6.822   0.516 -0.1457 -0.0048  0.5812
 1823TIP3   OH226959   3.727   3.754  13.970 -0.0479  0.0826  0.6366
 1823TIP3    H126960   3.712   3.667  14.007 -0.2520 -0.3979 -0.5359
 1823TIP3    H226961   3.647   3.774  13.921  0.8836 -0.1114 -1.0677
 1824TIP3   OH226962   1.965   3.969  14.519  0.0136 -0.2086  0.0207
 1824TIP3    H126963   1.950   3.894  14.462  1.0236 -0.4630  0.0679
 1824TIP3    H226964   1.877   3.997  14.547 -0.4511 -0.4528 -1.1647
 1825TIP3   OH226965   0.164   6.666   9.908 -0.1521  0.4552 -0.0316
 1825TIP3    H126966   0.173   6.635   9.818 -0.1273 -0.6599  0.3397
 1825TIP3    H226967   0.069   6.665   9.923 -0.1617  0.7223 -0.0609
 1826TIP3   OH226968   4.925   3.056  12.284  0.1258 -0.0704  0.3822
 1826TIP3    H126969   4.885   2.972  12.303  2.7463 -1.5318 -0.1561
 1826TIP3    H226970   4.945   3.053  12.190  0.5234  1.0265  0.4150
 1827TIP3   OH226971   6.051   6.980  15.546 -1.2706 -0.2979  0.4587
 1827TIP3    H126972   6.082   6.969  15.636 -1.6587 -0.1511  0.6108
 1827TIP3    H226973   5.997   6.903  15.529  0.0446 -1.1107 -0.1812
 1828TIP3   OH226974   4.412   1.420  11.137  0.1339 -0.3829  0.3570
 1828TIP3    H126975   4.360   1.496  11.110 -2.1096 -1.5810  1.0692
 1828TIP3    H226976   4.375   1.346  11.089 -1.0791 -1.8225  3.2374
 1829TIP3   OH226977   2.538   6.928   4.499 -0.0798  0.6333  0.2174
 1829TIP3    H126978   2.621   6.947   4.543 -0.2486  0.4506  0.6224
 1829TIP3    H226979   2.524   6.834   4.514 -0.3194  0.6452  0.0784
 1830TIP3   OH226980   5.901   0.773   2.474 -0.0973 -0.2093  0.1417
 1830TIP3    H126981   5.920   0.862   2.445  1.3298 -0.6654 -0.4280
 1830TIP3    H226982   5.925   0.718   2.399 -3.3801 -0.9598 -0.5047
 1831TIP3   OH226983   5.350   5.406  11.090  0.3343  0.0597 -0.2189
 1831TIP3    H126984   5.305   5.457  11.023 -1.1699 -0.1650  0.5534
 1831TIP3    H226985   5.379   5.327  11.045 -1.3113 -0.4289 -0.4867
 1832TIP3   OH226986   2.441   1.731  14.514  0.3401  0.6070 -0.0974
 1832TIP3    H126987   2.513   1.782  14.478  0.2948  0.8216  0.1147
 1832TIP3    H226988   2.480   1.680  14.585  0.1822  1.1007  0.3458
 1833TIP3   OH226989   2.114   4.716  11.908  0.0222 -0.3653  0.0205
 1833TIP3    H126990   2.158   4.801  11.899  1.2049 -1.0833 -1.3726
 1833TIP3    H226991   2.022   4.734  11.889  0.2400  0.6213 -0.1245
 1834TIP3   OH226992   4.136   3.387   2.833 -0.0733  0.6432 -0.5609
 1834TIP3    H126993   4.184   3.342   2.902 -0.2825 -0.7973 -1.3014
 1834TIP3    H226994   4.197   3.390   2.759 -0.5836  0.1988 -1.0089
 1835TIP3   OH226995   1.013   1.305   0.083 -0.1039 -0.1044 -0.9664
 1835TIP3    H126996   0.970   1.378   0.039 -0.8428  0.3992  0.5388
 1835TIP3    H226997   1.026   1.240   0.014 -1.4760  0.5310 -1.8664
 1836TIP3   OH226998   1.726   0.121  10.348  0.6445  0.6853  0.0478
 1836TIP3    H126999   1.739   0.121  10.253  2.3235  0.0510  0.2499
 1836TIP3    H227000   1.802   0.168  10.383 -0.8158  2.4928  1.0178
 1837TIP3   OH227001   4.422   6.230  13.778 -0.3774  0.4791  0.1154
 1837TIP3    H127002   4.411   6.212  13.685  0.7331 -0.4667  0.1394
 1837TIP3    H227003   4.463   6.150  13.813 -1.4491  0.5242  1.5574
 1838TIP3   OH227004   1.039   1.321  13.663 -0.7542 -0.3606  0.2636
 1838TIP3    H127005   1.063   1.381  13.593 -1.6583  0.5258  0.6895
 1838TIP3    H227006   1.102   1.338  13.733  0.3402 -1.4644 -0.4315
 1839TIP3   OH227007   6.988   6.546  10.492 -0.1447 -0.0084  0.2385
 1839TIP3    H127008   6.932   6.474  10.463 -2.3166  1.1067  1.4361
 1839TIP3    H227009   7.045   6.562  10.417 -1.4834 -1.1475 -1.1108
 1840TIP3   OH227010   1.827   4.618  15.075 -0.2748 -0.3251  0.1957
 1840TIP3    H127011   1.882   4.681  15.028  0.3158 -0.5271  0.6118
 1840TIP3    H227012   1.826   4.541  15.018  1.2990 -0.9549  0.9655
 1841TIP3   OH227013   3.391   1.406  11.252 -0.1439  0.9836 -0.2439
 1841TIP3    H127014   3.381   1.493  11.290  0.9986  0.4329  1.4140
 1841TIP3    H227015   3.485   1.398  11.236 -0.0662 -0.4243  0.8418
 1842TIP3   OH227016   2.179   5.637  13.056  0.0923 -0.4869 -0.2773
 1842TIP3    H127017   2.120   5.692  13.108  0.1096 -3.1084  2.8801
 1842TIP3    H227018   2.121   5.585  13.001 -0.2312 -0.0853 -0.3175
 1843TIP3   OH227019   2.902   4.644  12.772  0.4303  0.4020 -0.3495
 1843TIP3    H127020   2.857   4.601  12.700 -0.6438 -1.7042  1.4645
 1843TIP3    H227021   2.987   4.671  12.735  1.2699 -3.4852 -1.6537
 1844TIP3   OH227022   5.997   4.769   0.832 -0.0147  0.4848  0.4416
 1844TIP3    H127023   6.082   4.780   0.875 -0.4438 -0.6656  1.6296
 1844TIP3    H227024   5.980   4.675   0.836 -0.8138  0.5505 -0.8459
 1845TIP3   OH227025   5.742   1.162  11.500 -0.0905 -0.0460  0.3533
 1845TIP3    H127026   5.708   1.077  11.528  0.3124 -0.5163 -0.5517
 1845TIP3    H227027   5.793   1.193  11.575 -2.0218  0.4398  1.5392
 1846TIP3   OH227028   1.266   4.938  12.705  0.5740  0.4543  0.0002
 1846TIP3    H127029   1.303   5.023  12.728  0.3408 -0.5844  5.4652
 1846TIP3    H227030   1.342   4.885  12.679  1.1165  1.5152 -0.6518
 1847TIP3   OH227031   6.000   0.468  10.746 -0.4352 -0.0895 -0.1918
 1847TIP3    H127032   5.983   0.515  10.665 -2.1124 -1.1061 -0.4743
 1847TIP3    H227033   6.082   0.422  10.731  0.2315  1.1698 -0.6002
 1848TIP3   OH227034   4.876   1.379  11.415  0.1400  0.5550 -0.3465
 1848TIP3    H127035   4.808   1.401  11.351  1.0067 -0.6869 -1.7413
 1848TIP3    H227036   4.959   1.397  11.371  0.7607  0.4683  0.7352
 1849TIP3   OH227037   3.777   0.013   3.644  0.4758  0.1294  0.1666
 1849TIP3    H127038   3.740   0.010   3.733  0.9087 -1.1152  0.3300
 1849TIP3    H227039   3.713   0.063   3.594  0.3066  1.0016  1.2073
 1850TIP3   OH227040   0.808   6.018   5.042  0.5810 -0.3235  0.5325
 1850TIP3    H127041   0.838   6.047   5.128  1.0118  0.4510  0.1272
 1850TIP3    H227042   0.852   5.933   5.029  1.8893  0.3581  0.3446
 1851TIP3   OH227043   3.922   2.485  15.641  0.1947  0.4994  0.0734
 1851TIP3    H127044   4.005   2.506  15.684  0.1990  1.5707 -0.4150
 1851TIP3    H227045   3.908   2.558  15.580 -0.8604  0.0846 -0.1971
 1852TIP3   OH227046   2.588   0.661  10.908 -0.6650  0.1155 -0.1650
 1852TIP3    H127047   2.532   0.664  10.831 -1.0076 -0.6606  0.0482
 1852TIP3    H227048   2.666   0.712  10.883  0.2022 -1.8824 -1.7954
 1853TIP3   OH227049   6.568   2.896  14.074  0.4058 -0.8917  0.5065
 1853TIP3    H127050   6.529   2.810  14.062  0.0992 -0.6376 -0.4899
 1853TIP3    H227051   6.618   2.911  13.993 -0.6677  0.4175  0.0457
 1854TIP3   OH227052   0.838   5.785  14.619 -0.2820  0.1325  0.1774
 1854TIP3    H127053   0.745   5.808  14.614 -0.1812  0.6375  0.4948
 1854TIP3    H227054   0.843   5.724  14.693 -0.5458 -0.9041 -0.6441
 1855TIP3   OH227055   3.743   0.184  15.533  0.0689  0.0067 -0.0537
 1855TIP3    H127056   3.807   0.240  15.577 -0.0028 -0.1069  0.1976
 1855TIP3    H227057   3.788   0.100  15.521 -1.0141 -1.1324  2.9472
 1856TIP3   OH227058   1.611   1.700  12.259  0.1018  0.2806  0.2349
 1856TIP3    H127059   1.626   1.791  12.233  0.4615  0.0432 -0.3988
 1856TIP3    H227060   1.635   1.648  12.182  0.6525 -0.4006  0.8492
 1857TIP3   OH227061   0.703   0.546  15.577  0.2730  0.2805  0.0550
 1857TIP3    H127062   0.689   0.636  15.606 -2.2844  0.1312 -0.5233
 1857TIP3    H227063   0.685   0.492  15.655  1.0869  0.1984  0.2022
 1858TIP3   OH227064   5.723   0.660  13.107  0.1669 -0.2619 -0.5129
 1858TIP3    H127065   5.725   0.717  13.030 -2.2121  0.3085 -0.2265
 1858TIP3    H227066   5.756   0.715  13.178 -0.7121  0.2981 -0.5237
 1859TIP3   OH227067   3.698   1.147   9.625  0.5559 -0.2445  0.8337
 1859TIP3    H127068   3.694   1.189   9.711  1.7913  1.3066  0.1846
 1859TIP3    H227069   3.608   1.120   9.608 -0.0313  0.9097  1.9009
 1860TIP3   OH227070   5.717   2.998   9.905  0.0973  0.3522 -0.2184
 1860TIP3    H127071   5.649   2.996   9.838  1.4287  1.3425 -1.6753
 1860TIP3    H227072   5.672   2.973   9.986 -1.6631 -0.4250 -1.3771
 1861TIP3   OH227073   5.319   4.175  11.088 -0.7274 -0.3672 -0.4909
 1861TIP3    H127074   5.264   4.109  11.132  0.0665  0.0709  1.2557
 1861TIP3    H227075   5.280   4.185  11.001 -1.5521 -2.2869 -0.3822
 1862TIP3   OH227076   6.423   3.393  11.021 -0.2931  0.2943  0.2184
 1862TIP3    H127077   6.378   3.394  11.105  0.4416 -2.9596  0.7986
 1862TIP3    H227078   6.475   3.312  11.022  2.9858  2.1360 -1.7500
 1863TIP3   OH227079   0.341   6.062  11.696  0.0667  0.0875  0.4649
 1863TIP3    H127080   0.259   6.015  11.679  0.8029 -0.8192 -0.7463
 1863TIP3    H227081   0.377   6.019  11.774 -0.1863 -0.1106  0.4736
 1864TIP3   OH227082   4.088   6.019  14.286 -0.0725  0.5448 -0.0452
 1864TIP3    H127083   4.150   6.070  14.235 -0.5518 -1.1350 -2.4644
 1864TIP3    H227084   4.091   6.058  14.374  3.2149  1.4874 -0.4482
 1865TIP3   OH227085   2.916   3.160  13.543 -0.2734 -0.2401 -0.6919
 1865TIP3    H127086   3.006   3.193  13.545  0.0383 -1.1129  0.0282
 1865TIP3    H227087   2.923   3.068  13.566 -1.6029  0.2549  2.0968
 1866TIP3   OH227088   0.702   4.298  13.024  0.1657  0.0427  0.0721
 1866TIP3    H127089   0.767   4.254  12.968  0.5293  0.2095  0.3627
 1866TIP3    H227090   0.637   4.332  12.962  1.3139  1.4858 -0.3844
 1867TIP3   OH227091   2.061   5.233  12.070 -0.7454 -0.6471 -0.3671
 1867TIP3    H127092   2.091   5.231  11.980 -1.8883  0.3675 -0.7990
 1867TIP3    H227093   2.122   5.176  12.117 -0.9481 -2.3011 -2.0041
 1868TIP3   OH227094   4.832   4.441  10.868 -0.5434  0.3004  0.0782
 1868TIP3    H127095   4.858   4.470  10.780  3.2732 -1.5131  0.4133
 1868TIP3    H227096   4.881   4.498  10.927  1.7042 -2.1847  0.8102
 1869TIP3   OH227097   1.310   4.594  10.820  0.5696  0.2556 -0.3231
 1869TIP3    H127098   1.322   4.583  10.915 -1.8853  0.8334  0.1107
 1869TIP3    H227099   1.274   4.682  10.810  0.9238  0.2586 -1.8252
 1870TIP3   OH227100   5.964   5.208  13.787  0.0016 -0.1561 -0.0173
 1870TIP3    H127101   5.924   5.292  13.811  0.9240  0.2266  0.2156
 1870TIP3    H227102   6.058   5.224  13.790  0.1861 -1.0419 -0.5633
 1871TIP3   OH227103   2.285   0.124  11.904 -1.2632  0.0330  0.2212
 1871TIP3    H127104   2.202   0.116  11.950 -2.0843  0.6523 -1.0906
 1871TIP3    H227105   2.328   0.199  11.946 -2.0149  0.6137 -0.0212
 1872TIP3   OH227106   3.659   0.990  10.965 -0.1904  0.2126  0.3090
 1872TIP3    H127107   3.723   0.935  10.919 -0.5068  1.0797 -1.2421
 1872TIP3    H227108   3.682   0.981  11.058 -0.5016 -2.8679  0.2098
 1873TIP3   OH227109   2.507   3.778  11.378  0.3120  0.1168 -0.9968
 1873TIP3    H127110   2.580   3.721  11.353 -0.6292 -0.9190 -1.4460
 1873TIP3    H227111   2.499   3.840  11.306 -0.2909 -0.8052 -1.7468
 1874TIP3   OH227112   2.299   1.870  15.630  0.2629 -0.7566  0.3192
 1874TIP3    H127113   2.306   1.874  15.726  2.5599  3.2843  0.2048
 1874TIP3    H227114   2.257   1.952  15.606  1.0337 -1.0298 -2.2190
 1875TIP3   OH227115   6.539   6.880   0.162  0.2866 -0.0496 -0.0825
 1875TIP3    H127116   6.478   6.895   0.234  0.6378  2.2578 -0.2010
 1875TIP3    H227117   6.605   6.820   0.199 -0.4997 -0.3308  0.9194
 1876TIP3   OH227118   5.232   5.142   0.424  0.1915 -0.0631  0.6470
 1876TIP3    H127119   5.237   5.060   0.474  0.2603 -1.7189 -1.9303
 1876TIP3    H227120   5.321   5.155   0.391  0.1285  0.9878  0.8496
 1877TIP3   OH227121   4.256   0.070  12.706 -0.4164  0.2553 -0.0832
 1877TIP3    H127122   4.187   0.134  12.690 -0.3773  1.1629  2.7429
 1877TIP3    H227123   4.327   0.120  12.746  1.4020 -0.8817 -1.7303
 1878TIP3   OH227124   2.634   5.943  15.405  0.3119  0.2081  0.5165
 1878TIP3    H127125   2.612   6.026  15.448  0.1528 -0.4661  1.8024
 1878TIP3    H227126   2.649   5.882  15.478 -0.4800 -1.1200 -0.3827
 1879TIP3   OH227127   2.544   0.175  11.704 -0.1509 -0.0006  0.6568
 1879TIP3    H127128   2.614   0.133  11.655 -0.9117  1.1196 -1.5008
 1879TIP3    H227129   2.465   0.129  11.679 -0.4307 -0.2265  1.8643
 1880TIP3   OH227130   6.766   0.953   4.596 -0.5722 -0.3615  0.1152
 1880TIP3    H127131   6.809   1.023   4.645  0.4981 -0.0559 -1.2219
 1880TIP3    H227132   6.755   0.883   4.660  3.6511 -1.2141  0.1438
 1881TIP3   OH227133   1.733   6.708  13.894  0.4144 -0.1087  0.2979
 1881TIP3    H127134   1.745   6.736  13.803 -2.4697 -0.8677 -0.4117
 1881TIP3    H227135   1.822   6.700  13.928  1.5697  2.1479 -1.8106
 1882TIP3   OH227136   5.998   1.010  12.638 -0.3566  0.2684  0.3798
 1882TIP3    H127137   6.083   0.970  12.656  0.0464  1.3947  1.0422
 1882TIP3    H227138   5.957   0.950  12.575  0.9472 -0.2509 -0.0195
 1883TIP3   OH227139   5.881   1.022  12.924 -0.2998  0.4421 -0.0128
 1883TIP3    H127140   5.923   0.988  13.003 -0.5963 -3.8674 -1.4537
 1883TIP3    H227141   5.953   1.036  12.863 -0.3678  0.0595 -0.1822
 1884TIP3   OH227142   2.137   1.874  10.436  0.6332  0.5418  0.2263
 1884TIP3    H127143   2.137   1.913  10.524  0.3280  1.3638 -0.1288
 1884TIP3    H227144   2.061   1.913  10.393  0.6171 -0.0741 -0.3095
 1885TIP3   OH227145   4.066   2.022  10.791 -0.0226 -0.2041  0.1184
 1885TIP3    H127146   4.081   2.031  10.697 -0.8369  0.6287  0.0456
 1885TIP3    H227147   4.136   1.965  10.822 -1.7517 -3.5152 -1.5921
 1886TIP3   OH227148   3.495   1.711  15.646  0.2313 -0.2044 -0.2150
 1886TIP3    H127149   3.555   1.639  15.633 -1.4348 -1.7870  0.4271
 1886TIP3    H227150   3.411   1.679  15.613 -1.0882  0.5101  2.2028
 1887TIP3   OH227151   0.690   0.664  11.907 -0.1028 -0.1822 -0.4298
 1887TIP3    H127152   0.690   0.649  12.002  0.5622  2.8382  0.1296
 1887TIP3    H227153   0.600   0.689  11.887  0.1069  0.7210 -0.2826
 1888TIP3   OH227154   0.667   4.816  15.574 -0.1668 -0.4107  0.2653
 1888TIP3    H127155   0.574   4.830  15.594 -0.1154 -0.8460  0.8375
 1888TIP3    H227156   0.691   4.740  15.628 -0.2397 -2.2020 -2.0890
 1889TIP3   OH227157   4.080   4.561  13.070 -0.2189  0.2657  0.4095
 1889TIP3    H127158   4.050   4.647  13.044  1.5819  0.4898 -1.1582
 1889TIP3    H227159   4.161   4.577  13.118 -0.5638 -0.5006  1.2950
 1890TIP3   OH227160   2.768   0.509   2.470  0.0375 -0.0337 -0.2807
 1890TIP3    H127161   2.678   0.500   2.438  0.1995  0.0715 -0.7862
 1890TIP3    H227162   2.809   0.425   2.450 -0.4143 -0.7250  1.5357
 1891TIP3   OH227163   2.778   3.864  12.720  0.1335 -0.5020 -0.3715
 1891TIP3    H127164   2.740   3.860  12.632  0.0968 -0.5999 -0.3520
 1891TIP3    H227165   2.705   3.885  12.777  0.0947 -0.7516 -0.3259
 1892TIP3   OH227166   2.727   1.746  15.698 -0.5530  0.3554  0.5760
 1892TIP3    H127167   2.780   1.821  15.672  0.6170 -1.0752 -1.4331
 1892TIP3    H227168   2.771   1.670  15.660 -1.7112 -1.3970  2.4733
 1893TIP3   OH227169   6.726   4.489   0.405 -0.1671 -0.0074 -0.0067
 1893TIP3    H127170   6.735   4.480   0.499 -3.0167  2.7613  0.7260
 1893TIP3    H227171   6.686   4.575   0.393 -0.4974 -0.4988 -3.7287
 1894TIP3   OH227172   0.282   1.901   5.024 -0.8278 -0.3434 -0.0857
 1894TIP3    H127173   0.221   1.833   5.055  1.0176 -2.3720 -0.6884
 1894TIP3    H227174   0.276   1.897   4.929 -0.6773  0.3271 -0.1263
 1895TIP3   OH227175   5.284   7.048  14.102 -0.1983  0.1944 -0.9370
 1895TIP3    H127176   5.219   7.064  14.171 -0.1407 -0.9037 -0.6037
 1895TIP3    H227177   5.238   6.990  14.040  0.8448 -1.7575  0.0018
 1896TIP3   OH227178   5.882   3.392  11.268 -0.2486 -0.0141  0.1862
 1896TIP3    H127179   5.886   3.310  11.318 -3.6985 -0.6814 -0.3558
 1896TIP3    H227180   5.913   3.368  11.181 -0.9165 -0.7259  0.1263
 1897TIP3   OH227181   3.125   6.083  10.084  0.0896 -0.1213 -0.4900
 1897TIP3    H127182   3.204   6.137  10.092  0.9118 -1.3498  0.0766
 1897TIP3    H227183   3.115   6.069   9.990 -0.0139  0.8390 -0.6237
 1898TIP3   OH227184   0.528   4.672   2.906 -0.5604  0.1514 -0.5136
 1898TIP3    H127185   0.563   4.716   2.984 -0.7542  1.6250 -1.2068
 1898TIP3    H227186   0.606   4.640   2.861 -0.5248 -2.1678  1.0426
 1899TIP3   OH227187   2.417   2.633  15.270 -0.3162 -0.3653  0.4849
 1899TIP3    H127188   2.470   2.628  15.350  0.1390 -1.5688  0.1311
 1899TIP3    H227189   2.334   2.592  15.293  0.2492 -1.8082  0.0209
 1900TIP3   OH227190   4.659   5.448  11.671  0.1816 -0.0006 -0.0858
 1900TIP3    H127191   4.683   5.491  11.589  0.6485 -1.1990 -0.5918
 1900TIP3    H227192   4.742   5.432  11.715 -0.0711  0.6796  0.6559
 1901TIP3   OH227193   5.824   2.609  10.387 -0.0183  0.0972  0.0580
 1901TIP3    H127194   5.794   2.636  10.301  0.5797 -1.3000 -0.6122
 1901TIP3    H227195   5.772   2.663  10.448 -1.6700 -0.0826 -1.1138
 1902TIP3   OH227196   6.589   5.811  10.599  0.2060  0.2630 -0.1841
 1902TIP3    H127197   6.565   5.890  10.551 -1.3764 -0.7056 -1.0518
 1902TIP3    H227198   6.513   5.755  10.593  0.3998 -0.4216  2.4338
 1903TIP3   OH227199   6.111   5.455   5.984  0.3662  0.0873 -0.0651
 1903TIP3    H127200   6.018   5.450   6.007 -0.1820  1.0097 -1.9501
 1903TIP3    H227201   6.154   5.484   6.065 -0.9435 -0.5570  0.8874
 1904TIP3   OH227202   1.939   3.009   3.221 -0.1200  0.0942 -0.1511
 1904TIP3    H127203   1.858   2.966   3.249  0.5431 -0.2558  1.3573
 1904TIP3    H227204   1.992   2.938   3.186  0.4200 -0.1210  1.0336
 1905TIP3   OH227205   2.673   7.043   0.902 -0.0476 -0.0374 -0.6806
 1905TIP3    H127206   2.669   7.089   0.986  0.5551  0.3641 -0.8643
 1905TIP3    H227207   2.739   6.976   0.914  1.5819  1.3612 -1.4527
 1906TIP3   OH227208   3.727   4.780  15.008  0.4009 -0.4015 -0.2618
 1906TIP3    H127209   3.705   4.870  15.034 -1.0968 -0.3054 -1.7211
 1906TIP3    H227210   3.753   4.737  15.090 -1.4247  0.6425  0.9254
 1907TIP3   OH227211   2.926   1.362   9.760 -0.0047  0.1400 -0.1714
 1907TIP3    H127212   3.002   1.348   9.817 -0.6590 -0.7247  0.5324
 1907TIP3    H227213   2.960   1.350   9.672  0.3590 -2.1552  0.1950
 1908TIP3   OH227214   2.324   3.433   1.741  0.4550 -0.4398 -0.1916
 1908TIP3    H127215   2.248   3.375   1.743 -0.0906  0.2510 -0.4600
 1908TIP3    H227216   2.386   3.393   1.802 -0.0670 -1.0832 -0.0701
 1909TIP3   OH227217   2.495   5.689  10.764 -0.0103  0.0108  0.3724
 1909TIP3    H127218   2.460   5.657  10.847 -1.4395  0.6510  0.0567
 1909TIP3    H227219   2.523   5.611  10.717 -0.5567 -0.4898  0.8748
 1910TIP3   OH227220   2.912   5.432  11.868 -0.1614  0.1301 -0.5829
 1910TIP3    H127221   2.896   5.526  11.857 -0.3201  0.0589 -0.9604
 1910TIP3    H227222   2.874   5.411  11.953 -1.6589  0.0601 -1.2333
 1911TIP3   OH227223   6.226   4.119   0.539  0.2368 -0.4351  0.5698
 1911TIP3    H127224   6.152   4.179   0.546  0.0777 -0.6455  0.6951
 1911TIP3    H227225   6.188   4.032   0.550  0.3262 -0.6303 -0.5426
 1912TIP3   OH227226   4.097   2.227  13.993  0.1093  0.3767  0.4506
 1912TIP3    H127227   4.014   2.274  14.001  0.3140  0.5765  1.5556
 1912TIP3    H227228   4.081   2.144  14.039 -0.2192 -0.6302 -1.3944
 1913TIP3   OH227229   5.099   4.121   5.020  0.3978 -0.4222 -0.2864
 1913TIP3    H127230   5.134   4.033   5.032 -2.6675 -1.9619 -1.4358
 1913TIP3    H227231   5.033   4.130   5.089  0.7368  1.0292 -0.1256
 1914TIP3   OH227232   4.144   2.027  12.551 -0.7851  0.5069  0.0266
 1914TIP3    H127233   4.054   2.034  12.521 -0.6854  0.4042 -0.3027
 1914TIP3    H227234   4.197   2.057  12.477 -0.5216 -0.0314 -0.0065
 1915TIP3   OH227235   2.367   3.578  13.066  0.3088  0.2243 -0.1768
 1915TIP3    H127236   2.381   3.567  12.972 -3.2478  0.0504 -0.8419
 1915TIP3    H227237   2.419   3.509  13.107  2.3896  0.6562 -1.9143
 1916TIP3   OH227238   1.384   3.590  15.702 -0.0327 -0.1054  0.8574
 1916TIP3    H127239   1.442   3.522  15.738  0.2995 -1.6608 -2.2853
 1916TIP3    H227240   1.433   3.671  15.713  1.1589 -0.8804  1.5032
 1917TIP3   OH227241   4.379   2.055  10.501  0.4907  0.3644  0.0814
 1917TIP3    H127242   4.421   2.129  10.545 -0.9125  2.4620 -1.8684
 1917TIP3    H227243   4.288   2.082  10.491 -0.4972 -2.3876  0.7233
 1918TIP3   OH227244   0.179   0.023  10.989 -0.3103  0.1858 -0.7343
 1918TIP3    H127245   0.161   0.080  11.065 -2.1289 -1.3118  0.0462
 1918TIP3    H227246   0.260  -0.022  11.012  1.2329  2.4073 -1.4105
 1919TIP3   OH227247   1.616   5.551  11.880 -0.1246  0.2786  0.3936
 1919TIP3    H127248   1.586   5.478  11.935 -0.5342 -0.6868 -1.0607
 1919TIP3    H227249   1.546   5.564  11.816  0.8662  0.5356 -0.6778
 1920TIP3   OH227250   4.322   6.009  13.289  0.1802  0.5258  0.3257
 1920TIP3    H127251   4.252   5.946  13.274 -1.4918  2.2650  0.5075
 1920TIP3    H227252   4.386   5.962  13.343 -0.8403 -1.0936  0.1794
 1921TIP3   OH227253   1.223   2.867  11.410 -0.2742  0.4148  0.2811
 1921TIP3    H127254   1.155   2.799  11.416  0.5933 -0.5140  0.0026
 1921TIP3    H227255   1.242   2.873  11.316  0.9878 -0.3463  0.4647
 1922TIP3   OH227256   3.800   6.219  11.079  0.0878  0.0068  0.1814
 1922TIP3    H127257   3.818   6.177  10.995  0.6341  1.3035 -0.3758
 1922TIP3    H227258   3.848   6.166  11.143  0.7832 -0.2121 -0.5023
 1923TIP3   OH227259   6.409   1.562   3.391 -0.3872  0.0462  0.0048
 1923TIP3    H127260   6.393   1.620   3.316 -0.4054  0.7607  0.5575
 1923TIP3    H227261   6.498   1.583   3.419 -1.0334  1.1409  1.3502
 1924TIP3   OH227262   4.526   5.130  11.580 -0.3275 -0.0713 -0.2877
 1924TIP3    H127263   4.543   5.204  11.522 -0.9440  0.5203  0.2680
 1924TIP3    H227264   4.567   5.154  11.663 -0.1747 -0.5390 -0.2213
 1925TIP3   OH227265   0.022   3.014  10.675  0.2055 -0.0588  0.0198
 1925TIP3    H127266   0.060   3.065  10.603  1.6524 -0.8656  0.1791
 1925TIP3    H227267   0.097   2.990  10.730 -0.5866 -1.3814  0.5722
 1926TIP3   OH227268   6.033   3.140  15.177  0.5390 -0.2382  0.0919
 1926TIP3    H127269   6.058   3.226  15.144 -0.8420  0.1991  0.1331
 1926TIP3    H227270   5.939   3.147  15.194  0.1069 -2.1781 -1.2339
 1927TIP3   OH227271   7.108   2.370   9.442  0.2171 -0.4167 -0.3153
 1927TIP3    H127272   7.189   2.401   9.482 -0.4076  1.1482 -0.1837
 1927TIP3    H227273   7.106   2.276   9.461  1.4296 -0.2711  0.6633
 1928TIP3   OH227274   3.536   5.829   4.378  0.0447 -0.1954  0.7653
 1928TIP3    H127275   3.452   5.873   4.382  0.2239  0.2028  0.3203
 1928TIP3    H227276   3.518   5.739   4.406 -0.3550  0.1157  1.5066
 1929TIP3   OH227277   4.583   0.017  13.437 -0.3745 -0.6487 -0.1554
 1929TIP3    H127278   4.675   0.042  13.433 -0.2058 -1.3509 -0.7165
 1929TIP3    H227279   4.544   0.080  13.498  0.5828 -0.6868  0.5143
 1930TIP3   OH227280   5.311   7.139  11.809 -0.0053  0.5035 -0.0346
 1930TIP3    H127281   5.299   7.055  11.765  0.6144  1.2218 -1.6658
 1930TIP3    H227282   5.400   7.134  11.844 -0.0283  0.4086  0.0107
 1931TIP3   OH227283   5.087   5.083  12.064 -0.1709 -0.4055  0.1811
 1931TIP3    H127284   5.120   5.070  12.153  0.9870 -0.4926 -0.2389
 1931TIP3    H227285   5.101   5.176  12.047 -1.8567 -0.0421  0.6381
 1932TIP3   OH227286   4.844   6.606   3.033  0.2985  0.0753  0.8400
 1932TIP3    H127287   4.851   6.700   3.016 -1.5005  0.2579  0.9052
 1932TIP3    H227288   4.786   6.573   2.964  0.0543 -0.7888  1.4409
 1933TIP3   OH227289   1.604   1.165  14.182  0.2423  0.5178 -0.4990
 1933TIP3    H127290   1.638   1.146  14.269  0.1315 -1.2290 -0.7913
 1933TIP3    H227291   1.672   1.217  14.139  0.1421  1.7038  0.7178
 1934TIP3   OH227292   4.303   5.052  13.113  0.4041  0.9428  0.8485
 1934TIP3    H127293   4.387   5.009  13.095  0.2385  1.4608 -1.4492
 1934TIP3    H227294   4.326   5.141  13.139  0.5843  1.1844 -0.1006
 1935TIP3   OH227295   4.366   4.498  11.204 -0.0007  0.3783  0.2333
 1935TIP3    H127296   4.295   4.461  11.151 -0.1977 -1.3482  1.6159
 1935TIP3    H227297   4.439   4.437  11.192  0.2318  0.4422  1.2285
 1936TIP3   OH227298   0.814   2.956  14.700 -0.0337  0.5816 -0.2948
 1936TIP3    H127299   0.737   3.013  14.692 -1.2653 -0.6386  1.9174
 1936TIP3    H227300   0.801   2.890  14.632 -0.7036  0.6703 -0.2673
 1937TIP3   OH227301   6.891   6.741  11.648 -0.0157  0.1940 -0.0277
 1937TIP3    H127302   6.877   6.653  11.683  0.5840 -0.2138 -0.7644
 1937TIP3    H227303   6.805   6.770  11.619  0.0550 -0.8522 -1.3431
 1938TIP3   OH227304   4.080   6.389  10.694 -0.2508 -0.1638 -0.5364
 1938TIP3    H127305   4.024   6.440  10.634 -0.8341 -0.4590 -0.2451
 1938TIP3    H227306   4.166   6.390  10.651 -0.9491 -1.5130 -2.0954
 1939TIP3   OH227307   5.055   4.477  10.206 -0.2878  0.1541  0.5614
 1939TIP3    H127308   4.971   4.462  10.161 -0.5939 -1.3202  1.5724
 1939TIP3    H227309   5.034   4.540  10.275 -0.5156 -0.0258  0.6582
 1940TIP3   OH227310   4.878   5.049  10.228  0.5516  0.4958 -0.0193
 1940TIP3    H127311   4.892   4.996  10.150 -2.1238 -0.4613  0.0359
 1940TIP3    H227312   4.828   5.125  10.197 -2.0756 -0.7393  0.8639
 1941TIP3   OH227313   5.218   2.510  11.442 -0.3417  0.3115  0.1024
 1941TIP3    H127314   5.274   2.487  11.517 -0.9250 -0.1163  0.4192
 1941TIP3    H227315   5.213   2.429  11.391  1.1016  0.9509 -1.1080
 1942TIP3   OH227316   2.486   6.416   2.715  0.2175  0.3037  0.1717
 1942TIP3    H127317   2.514   6.394   2.626 -0.0946 -0.0540  0.1580
 1942TIP3    H227318   2.403   6.462   2.703  0.5303  0.8958  0.2407
 1943TIP3   OH227319   6.242   2.309  13.901  0.2437 -0.2284  0.1053
 1943TIP3    H127320   6.248   2.232  13.956  1.0418 -0.3604 -0.1450
 1943TIP3    H227321   6.316   2.364  13.928 -0.3947  0.5233  0.3818
 1944TIP3   OH227322   2.209   3.632  10.933  0.5296 -0.1084 -0.3433
 1944TIP3    H127323   2.190   3.621  10.839  1.9970 -2.5586 -0.4766
 1944TIP3    H227324   2.175   3.718  10.955  1.2433  1.1119 -3.4424
 1945TIP3   OH227325   0.979   5.540  10.554 -0.5079  0.0135  0.0671
 1945TIP3    H127326   0.929   5.618  10.530  0.7709  0.7149 -0.4266
 1945TIP3    H227327   1.049   5.535  10.489 -0.6530 -1.6529  0.0013
 1946TIP3   OH227328   3.110   5.750  13.155  0.0009 -0.0119 -0.5476
 1946TIP3    H127329   3.014   5.752  13.153 -0.0080  0.2428 -0.0478
 1946TIP3    H227330   3.136   5.797  13.076 -0.2944  2.4401  0.6865
 1947TIP3   OH227331   2.227   3.098  11.435  0.1334 -0.0623 -0.0208
 1947TIP3    H127332   2.212   3.081  11.342 -0.5441 -0.1972  0.1074
 1947TIP3    H227333   2.151   3.059  11.479  0.7042 -0.4470  0.6305
 1948TIP3   OH227334   6.669   4.749  10.683 -0.0140  0.1870  0.4163
 1948TIP3    H127335   6.583   4.784  10.657  0.5058  1.4541  0.3245
 1948TIP3    H227336   6.717   4.741  10.601  0.0315 -0.3211  0.4907
 1949TIP3   OH227337   1.879   6.960  10.394 -0.2233 -0.3501  0.0944
 1949TIP3    H127338   1.904   7.016  10.468  0.4764 -1.9119  1.0851
 1949TIP3    H227339   1.963   6.936  10.354 -0.5367 -0.4606 -0.5000
 1950TIP3   OH227340   3.303   1.971   1.717  0.2434  0.1023 -0.0003
 1950TIP3    H127341   3.236   1.903   1.719  0.6476 -0.2946 -0.0071
 1950TIP3    H227342   3.364   1.944   1.649  0.5015  0.3829  0.1155
 1951TIP3   OH227343   5.048   0.815   9.093 -0.7386 -0.1196  0.2707
 1951TIP3    H127344   4.995   0.893   9.077 -2.1994 -1.7453 -4.3938
 1951TIP3    H227345   5.013   0.749   9.033  3.5379 -2.8966  0.3776
 1952TIP3   OH227346   0.825   5.962   1.008 -0.4030  0.5528  0.3697
 1952TIP3    H127347   0.811   5.876   0.967 -1.6469  1.0991 -0.4132
 1952TIP3    H227348   0.772   5.960   1.087 -1.2845  0.9714 -0.2022
 1953TIP3   OH227349   5.487   0.007   1.756  0.2439  0.6745 -0.0589
 1953TIP3    H127350   5.476  -0.051   1.681 -0.9754  0.3983  0.3177
 1953TIP3    H227351   5.501  -0.051   1.830  3.2464  0.9677 -0.2783
 1954TIP3   OH227352   5.704   2.295  11.239  0.1001 -0.2424  0.2083
 1954TIP3    H127353   5.719   2.311  11.146 -0.2204  1.3462  0.4018
 1954TIP3    H227354   5.663   2.375  11.271 -0.1940 -0.9277  1.6343
 1955TIP3   OH227355   0.514   3.415  13.198 -0.1004  0.4016 -0.1109
 1955TIP3    H127356   0.609   3.407  13.195 -0.1321  0.0074 -0.0155
 1955TIP3    H227357   0.487   3.359  13.270 -0.5544 -0.8841 -1.2489
 1956TIP3   OH227358   0.285   4.612  14.917  0.7264 -0.2374 -0.0737
 1956TIP3    H127359   0.241   4.694  14.894 -0.4841 -0.3058  1.7251
 1956TIP3    H227360   0.331   4.632  14.999  0.5151 -1.2972  0.3272
 1957TIP3   OH227361   6.235   1.877   1.989 -0.3491  0.6648  0.0222
 1957TIP3    H127362   6.241   1.972   1.995  0.8740  0.5370  1.4734
 1957TIP3    H227363   6.141   1.858   1.990 -0.6017  1.7807  1.9031
 1958TIP3   OH227364   0.154   2.334   1.333 -0.6648  0.0832  0.0746
 1958TIP3    H127365   0.150   2.416   1.284 -2.1709  0.7221  1.1836
 1958TIP3    H227366   0.172   2.361   1.423  0.0100 -0.9121  0.2560
 1959TIP3   OH227367   0.893   0.240  11.652 -0.2122  0.0625 -0.1478
 1959TIP3    H127368   0.932   0.277  11.732  1.0122 -3.2009  0.9557
 1959TIP3    H227369   0.832   0.307  11.621 -0.0937  1.8296  3.0338
 1960TIP3   OH227370   1.051   5.963   3.746 -0.3216  0.0632  0.1137
 1960TIP3    H127371   1.043   6.058   3.758 -0.2141 -0.1754  2.3772
 1960TIP3    H227372   1.025   5.949   3.655 -0.8796  2.1934 -0.1161
 1961TIP3   OH227373   3.042   5.792  12.440 -0.1136  0.0416  0.6929
 1961TIP3    H127374   2.974   5.851  12.473  1.1505  1.7144  0.3732
 1961TIP3    H227375   3.042   5.806  12.345 -0.9227 -1.7430  0.3788
 1962TIP3   OH227376   6.981   0.002  10.432 -0.2373  0.0212  0.6788
 1962TIP3    H127377   6.893   0.038  10.418 -0.6310 -1.2429 -0.2987
 1962TIP3    H227378   7.040   0.068  10.397 -0.7682  1.0004  1.5663
 1963TIP3   OH227379   3.717   4.824   0.694 -0.4979 -0.2366  0.4525
 1963TIP3    H127380   3.796   4.815   0.748 -0.0026 -1.4039 -0.4196
 1963TIP3    H227381   3.673   4.740   0.702 -1.5001  0.3015  0.6803
 1964TIP3   OH227382   6.832   3.723  10.208  0.1457  0.0870  0.4105
 1964TIP3    H127383   6.880   3.650  10.168  1.3756  0.6769  0.7494
 1964TIP3    H227384   6.740   3.698  10.202  0.3946 -0.5305 -1.3921
 1965TIP3   OH227385   5.468   5.881  11.080 -0.1118 -0.4561  0.3399
 1965TIP3    H127386   5.539   5.944  11.092  0.0090 -0.8103  1.6330
 1965TIP3    H227387   5.389   5.930  11.105 -0.3557 -0.0532 -1.1230
 1966TIP3   OH227388   4.141   3.425  11.498 -0.3989 -0.4628 -0.8034
 1966TIP3    H127389   4.125   3.345  11.548 -0.0357  0.0564  0.1749
 1966TIP3    H227390   4.057   3.470  11.497 -0.6950 -1.0177 -1.6686
 1967TIP3   OH227391   2.556   0.592  14.141 -0.5012  0.2217 -0.0158
 1967TIP3    H127392   2.484   0.555  14.091 -1.1165 -0.2580  1.2043
 1967TIP3    H227393   2.537   0.570  14.232  0.5299  1.1841  0.4618
 1968TIP3   OH227394   1.187   2.025   2.723 -0.1074 -0.7806 -0.1515
 1968TIP3    H127395   1.236   2.100   2.688  1.3458 -1.5208  0.2389
 1968TIP3    H227396   1.162   1.975   2.646  0.5469 -0.8671 -0.3148
 1969TIP3   OH227397   1.561   3.675  11.285  0.5285  0.1680  0.2757
 1969TIP3    H127398   1.466   3.665  11.282  0.4361  1.0983 -0.2701
 1969TIP3    H227399   1.591   3.602  11.339 -0.5502  0.2446  1.0136
 1970TIP3   OH227400   5.850   5.821   9.825 -0.1684 -0.1146  0.2705
 1970TIP3    H127401   5.779   5.795   9.883 -0.5745 -0.8238 -0.5388
 1970TIP3    H227402   5.809   5.829   9.739  0.6720 -0.2569 -0.1488
 1971TIP3   OH227403   3.783   1.085  10.479  0.7239  0.2945  0.4642
 1971TIP3    H127404   3.760   1.176  10.495 -0.2397 -0.1794  1.9081
 1971TIP3    H227405   3.700   1.038  10.477  1.2681 -0.7252  0.8841
 1972TIP3   OH227406   3.522   1.655  14.234  0.1454  0.1478 -0.4497
 1972TIP3    H127407   3.579   1.708  14.290 -1.3211  0.1026  1.1772
 1972TIP3    H227408   3.487   1.717  14.171  0.4366  0.5838 -0.1889
 1973TIP3   OH227409   6.976   1.762  10.941 -0.3672 -0.0877 -0.1399
 1973TIP3    H127410   7.058   1.735  10.982 -2.0434 -2.2949  2.1021
 1973TIP3    H227411   6.942   1.830  10.999 -0.9096 -0.4198 -0.0615
 1974TIP3   OH227412   3.551   3.497   3.602  0.1839  0.0746 -0.5496
 1974TIP3    H127413   3.544   3.536   3.689  1.7250  0.0346 -0.3721
 1974TIP3    H227414   3.529   3.405   3.615 -0.3060  0.2185 -0.3484
 1975TIP3   OH227415   7.102   5.461  12.717 -0.3101 -0.4999 -0.5738
 1975TIP3    H127416   7.076   5.375  12.686 -1.4271 -1.0115  1.5889
 1975TIP3    H227417   7.037   5.521  12.679 -1.2491 -1.0212  0.1535
 1976TIP3   OH227418   0.202   6.759  11.512 -0.0754  0.4153 -0.6820
 1976TIP3    H127419   0.264   6.753  11.584  1.3133 -1.1394 -1.9198
 1976TIP3    H227420   0.123   6.797  11.551  0.1998 -1.4119  1.9117
 1977TIP3   OH227421   3.417   1.198  12.720 -0.2647 -0.2240 -0.3105
 1977TIP3    H127422   3.369   1.210  12.638  3.2397 -1.1989 -2.8085
 1977TIP3    H227423   3.456   1.283  12.738  0.9750 -0.5757 -1.1827
 1978TIP3   OH227424   4.060   2.011  11.413  0.1450  0.0286 -0.0196
 1978TIP3    H127425   4.081   2.027  11.505  0.6537  1.5455 -0.3718
 1978TIP3    H227426   3.971   2.045  11.402 -0.1801 -0.7770  0.0571
 1979TIP3   OH227427   2.138   3.393  11.337  0.2882  0.3250 -0.4968
 1979TIP3    H127428   2.178   3.319  11.291  2.4656  0.6512  0.7081
 1979TIP3    H227429   2.068   3.354  11.389  0.7744 -0.7590 -0.6158
 1980TIP3   OH227430   6.435   0.007  11.628  0.1908  0.1854 -0.0917
 1980TIP3    H127431   6.479  -0.061  11.680 -1.9424 -0.8602  0.4763
 1980TIP3    H227432   6.442  -0.024  11.538 -1.0639 -1.0218  0.1946
 1981TIP3   OH227433   3.148   3.373   4.205 -0.2742 -0.1540  0.2843
 1981TIP3    H127434   3.180   3.421   4.282 -1.1030  1.4568 -0.3410
 1981TIP3    H227435   3.088   3.433   4.162  0.1585 -1.0313 -1.6451
 1982TIP3   OH227436   4.729   2.842   1.013 -0.1705 -0.9884  0.3387
 1982TIP3    H127437   4.717   2.752   0.984  0.8142 -0.9209 -0.3516
 1982TIP3    H227438   4.787   2.836   1.089 -0.5156 -0.9703  0.6049
 1983TIP3   OH227439   5.255   0.004   9.993  0.1375 -0.1293  0.0231
 1983TIP3    H127440   5.314   0.066  10.036 -0.5352  1.3545 -1.1310
 1983TIP3    H227441   5.312  -0.067   9.964  1.3769  1.2274 -0.9806
 1984TIP3   OH227442   6.709   1.835   1.679 -0.1972  0.2998  0.3277
 1984TIP3    H127443   6.651   1.865   1.749  1.6605 -0.1771  2.1784
 1984TIP3    H227444   6.772   1.777   1.723  2.7344  2.1176 -1.1603
 1985TIP3   OH227445   0.015   1.527   0.119  0.3710  0.3841 -0.0796
 1985TIP3    H127446   0.025   1.460   0.186 -2.7271  0.0050  0.1599
 1985TIP3    H227447  -0.050   1.490   0.059  0.1079  2.3537 -1.0746
 1986TIP3   OH227448   7.113   6.275  10.662  0.1412 -0.1528  0.2967
 1986TIP3    H127449   7.108   6.366  10.692  0.6926  0.4510 -1.3371
 1986TIP3    H227450   7.023   6.254  10.634  0.1285  0.0934  0.1458
 1987TIP3   OH227451   4.023   4.921  14.304  0.5181 -0.8628  0.0007
 1987TIP3    H127452   4.056   4.832  14.320  0.3107 -0.7362  1.2667
 1987TIP3    H227453   4.082   4.978  14.353 -0.2249 -0.4400  0.4258
 1988TIP3   OH227454   5.132   2.677  12.042  0.4669  0.0787  0.5456
 1988TIP3    H127455   5.224   2.702  12.056  0.0119  0.9901  2.2407
 1988TIP3    H227456   5.121   2.598  12.094  0.5336 -0.6539 -0.5221
 1989TIP3   OH227457   3.369   5.592   2.746 -0.2474 -0.2432  0.8824
 1989TIP3    H127458   3.345   5.680   2.717 -0.6201 -1.1537 -1.8579
 1989TIP3    H227459   3.463   5.598   2.765 -0.5274  1.0223  1.9822
 1990TIP3   OH227460   6.032   5.202   2.714  0.7338  0.3692  0.3150
 1990TIP3    H127461   5.991   5.124   2.677  0.2940  0.2237  1.0708
 1990TIP3    H227462   6.071   5.171   2.796 -0.2433  1.1075  1.0895
 1991TIP3   OH227463   6.689   1.339   2.355 -0.7006  0.1124 -0.1732
 1991TIP3    H127464   6.661   1.316   2.444 -2.5533  0.1662 -0.7133
 1991TIP3    H227465   6.668   1.432   2.347  0.4772  0.3861 -0.3281
 1992TIP3   OH227466   6.216   2.905  11.531 -0.1923  0.1299 -0.2996
 1992TIP3    H127467   6.279   2.974  11.512  1.7759 -0.7772  2.3797
 1992TIP3    H227468   6.150   2.947  11.586 -0.5293  0.4550 -0.9305
 1993TIP3   OH227469   3.491   0.713   3.352 -0.2834  0.0304  0.2174
 1993TIP3    H127470   3.471   0.620   3.361  0.0931  0.1630  3.8958
 1993TIP3    H227471   3.408   0.757   3.370 -0.0068  0.4241  0.5340
 1994TIP3   OH227472   2.147   3.512   1.000 -0.3373  0.1993 -0.2129
 1994TIP3    H127473   2.102   3.483   1.079  2.9718 -1.2858  1.2569
 1994TIP3    H227474   2.090   3.482   0.928 -1.6201 -1.7105  1.4939
 1995TIP3   OH227475   3.308   3.890   4.902 -0.0093  0.4226  0.0041
 1995TIP3    H127476   3.344   3.961   4.956  1.0129  0.5416 -0.7982
 1995TIP3    H227477   3.213   3.901   4.909  0.1245  1.9019 -0.1322
 1996TIP3   OH227478   6.147   2.422  10.213 -0.4227  0.1861  0.1630
 1996TIP3    H127479   6.144   2.403  10.307 -2.5514  2.5906  0.6988
 1996TIP3    H227480   6.198   2.502  10.206  0.1720 -0.2574 -0.8250
 1997TIP3   OH227481   4.510   3.801   1.866 -0.3271 -0.3991  0.1023
 1997TIP3    H127482   4.434   3.766   1.818 -0.3229 -0.8806  0.4397
 1997TIP3    H227483   4.478   3.883   1.903 -0.7857 -0.7557  0.5058
 1998TIP3   OH227484   2.067   3.658  10.664  0.2762  0.3979  0.0007
 1998TIP3    H127485   2.137   3.646  10.599  0.5905  2.5637 -0.1364
 1998TIP3    H227486   2.095   3.734  10.715  0.1200 -1.3260  2.8575
 1999TIP3   OH227487   6.936   1.251   1.188 -0.1403 -0.4943 -0.0141
 1999TIP3    H127488   6.959   1.169   1.232  0.0403 -1.3586 -1.6614
 1999TIP3    H227489   6.869   1.290   1.245  1.8078 -0.3101  2.3157
 2000TIP3   OH227490   1.366   0.406  15.005 -0.2454  0.2888  0.1410
 2000TIP3    H127491   1.367   0.364  15.091 -2.5294 -0.5983 -0.2028
 2000TIP3    H227492   1.310   0.483  15.017  1.8753  1.9340  0.1350
 2001TIP3   OH227493   6.866   4.796   4.770 -0.2045  0.0333  0.3639
 2001TIP3    H127494   6.852   4.755   4.856  0.6931 -1.4934 -0.1674
 2001TIP3    H227495   6.923   4.734   4.724 -0.0879  1.1729 -1.0793
 2002TIP3   OH227496   0.556   4.062  11.900 -0.4095 -0.1944 -0.3233
 2002TIP3    H127497   0.548   4.036  11.808  0.9520 -1.9557 -0.0047
 2002TIP3    H227498   0.572   3.980  11.947  2.6403  0.9861  0.9758
 2003TIP3   OH227499   6.292   4.833  10.849 -0.3315 -0.1806 -0.2691
 2003TIP3    H127500   6.254   4.920  10.832 -0.2105 -0.2814 -1.1407
 2003TIP3    H227501   6.217   4.774  10.847 -0.3916 -0.1153  0.1378
 2004TIP3   OH227502   0.137   5.900   1.763 -0.2243 -0.1421  0.0137
 2004TIP3    H127503   0.156   5.815   1.802 -1.3882  0.3027  1.6285
 2004TIP3    H227504   0.222   5.944   1.759  0.4949 -1.5635 -1.4165
 2005TIP3   OH227505   5.436   1.770  12.281 -0.7552  0.0245 -0.3835
 2005TIP3    H127506   5.361   1.715  12.303 -0.2005 -1.3441 -1.7723
 2005TIP3    H227507   5.436   1.838  12.348 -0.9271 -2.1773  2.0190
 2006TIP3   OH227508   3.130   4.341  11.458  0.2554 -0.0607  0.1510
 2006TIP3    H127509   3.186   4.330  11.535  1.0752 -0.3372 -0.4806
 2006TIP3    H227510   3.149   4.266  11.403  0.1997  0.5094 -0.6600
 2007TIP3   OH227511   6.542   4.346  14.061 -0.0761 -0.2022 -0.1526
 2007TIP3    H127512   6.568   4.406  14.131 -1.1347  0.1504 -0.0365
 2007TIP3    H227513   6.529   4.262  14.105 -0.0789 -0.1422 -0.0372
 2008TIP3   OH227514   1.859   6.850  12.254 -0.2026 -0.2608 -0.1114
 2008TIP3    H127515   1.937   6.880  12.206  0.7556 -0.0023  1.5265
 2008TIP3    H227516   1.808   6.930  12.269 -0.3527 -0.2956 -0.4339
 2009TIP3   OH227517   0.931   4.651  12.015 -0.6203 -0.2263 -0.3127
 2009TIP3    H127518   0.890   4.724  11.969 -0.6119 -0.1178 -0.1492
 2009TIP3    H227519   0.954   4.589  11.946  0.9871  0.6905 -0.6586
 2010TIP3   OH227520   3.471   6.054   9.863  0.6441 -0.1141  0.2415
 2010TIP3    H127521   3.403   6.100   9.911  0.6231 -1.2689  1.3477
 2010TIP3    H227522   3.424   6.005   9.795  0.7350  2.1429 -1.6005
 2011TIP3   OH227523   3.375   5.873  12.773  0.5835  0.1834 -0.0506
 2011TIP3    H127524   3.372   5.862  12.678  0.1746  0.1254 -0.0312
 2011TIP3    H227525   3.376   5.968  12.786  1.1752  0.1924 -0.1266
 2012TIP3   OH227526   6.724   2.209  12.442  0.0069 -0.2544  0.1368
 2012TIP3    H127527   6.759   2.233  12.528 -1.1708  1.2688  0.2445
 2012TIP3    H227528   6.657   2.143  12.460  0.3816 -0.5955  0.2893
 2013TIP3   OH227529   4.500   6.852  13.067 -0.1552  0.3386  0.3103
 2013TIP3    H127530   4.571   6.790  13.087 -0.4082 -0.7904 -1.8966
 2013TIP3    H227531   4.423   6.815  13.109  0.3844  1.1958  2.1321
 2014TIP3   OH227532   4.850   0.820   1.427 -0.3837  0.4130 -0.0130
 2014TIP3    H127533   4.783   0.884   1.451  0.2912  1.1306  0.0017
 2014TIP3    H227534   4.923   0.873   1.396 -0.3664 -0.4037 -1.4634
 2015TIP3   OH227535   1.849   1.845   3.826  0.0990  0.4154 -0.3564
 2015TIP3    H127536   1.755   1.833   3.835  0.0842  1.2444  1.0335
 2015TIP3    H227537   1.876   1.881   3.911  1.9768 -1.5745 -0.0185
 2016TIP3   OH227538   6.715   6.823  10.541 -0.4856  0.6314 -0.1420
 2016TIP3    H127539   6.716   6.877  10.620  1.4847  1.3240 -0.5905
 2016TIP3    H227540   6.666   6.745  10.567  0.2686  0.7446  1.8288
 2017TIP3   OH227541   5.403   3.430  14.367  0.3384  0.7603 -0.0810
 2017TIP3    H127542   5.329   3.420  14.427  0.8524  1.5353  0.7143
 2017TIP3    H227543   5.400   3.522  14.342  1.7925  1.1472  1.0229
 2018TIP3   OH227544   2.430   0.128  13.242 -0.2015 -0.8796  0.1250
 2018TIP3    H127545   2.487   0.060  13.207 -0.3234 -1.2910  0.7124
 2018TIP3    H227546   2.473   0.155  13.323 -0.3842 -0.5640  0.1194
 2019TIP3   OH227547   1.131   5.800  10.018 -0.3230 -0.1823  0.2176
 2019TIP3    H127548   1.149   5.807  10.112 -0.9416 -0.6246  0.3840
 2019TIP3    H227549   1.195   5.857   9.976 -0.7359  0.8798  0.9788
 2020TIP3   OH227550   3.627   4.744  15.625  0.1613 -0.7055  0.1635
 2020TIP3    H127551   3.607   4.826  15.671  1.6643  0.4350 -1.1164
 2020TIP3    H227552   3.575   4.748  15.545  0.1417 -1.0757  0.1581
 2021TIP3   OH227553   1.375   2.397  14.726 -0.0603  0.0523 -0.2565
 2021TIP3    H127554   1.289   2.356  14.712 -0.8715  1.2247  0.9921
 2021TIP3    H227555   1.354   2.480  14.769  1.2983  2.7924 -4.2988
 2022TIP3   OH227556   5.319   4.949  11.491  0.2458  0.2861  0.0643
 2022TIP3    H127557   5.297   5.000  11.413  0.2655 -0.9122 -0.7491
 2022TIP3    H227558   5.299   5.007  11.565  0.9863  1.7482 -0.8318
 2023TIP3   OH227559   3.413   4.232  14.769 -0.7266 -0.1321 -0.0096
 2023TIP3    H127560   3.410   4.165  14.700 -1.2277 -1.3879  1.1714
 2023TIP3    H227561   3.325   4.269  14.770 -0.0624  1.6801 -1.6584
 2024TIP3   OH227562   2.200   2.854   9.693  0.3120  0.4950 -0.2676
 2024TIP3    H127563   2.137   2.799   9.740  0.2895 -0.7910 -1.7395
 2024TIP3    H227564   2.272   2.794   9.671  0.3748  1.0746 -1.7444
 2025TIP3   OH227565   0.673   0.419   0.076  0.2009 -0.1440  0.3624
 2025TIP3    H127566   0.676   0.497   0.133 -0.2335  0.1646 -0.0294
 2025TIP3    H227567   0.761   0.382   0.082  1.2336  1.8065 -1.4198
 2026TIP3   OH227568   4.354   0.641  14.496 -0.0029  0.0998  0.2642
 2026TIP3    H127569   4.294   0.569  14.480 -1.8990  1.1847  1.9537
 2026TIP3    H227570   4.388   0.626  14.584  2.9777 -0.9214 -0.9322
 2027TIP3   OH227571   2.274   2.908   3.245 -0.0725 -0.0289  0.2488
 2027TIP3    H127572   2.190   2.865   3.230 -0.3439 -0.0042  1.5483
 2027TIP3    H227573   2.322   2.897   3.163 -0.9521 -0.9339 -0.1639
 2028TIP3   OH227574   1.366   6.739  15.308 -0.0191  0.2426  0.0891
 2028TIP3    H127575   1.337   6.736  15.217  1.0040  0.8192 -0.2733
 2028TIP3    H227576   1.358   6.648  15.338 -1.7007  0.2799 -0.1151
 2029TIP3   OH227577   5.894   4.372  13.579  0.0759  0.4397  0.1174
 2029TIP3    H127578   5.985   4.349  13.560  0.3417  0.6278  1.1001
 2029TIP3    H227579   5.845   4.291  13.562  0.4891  0.2077  0.0160
 2030TIP3   OH227580   4.053   6.837  14.542  0.3227  0.2437  0.0377
 2030TIP3    H127581   4.042   6.811  14.451  0.8667 -1.0988  0.3305
 2030TIP3    H227582   3.966   6.825  14.581  0.6259 -1.5399  0.2411
 2031TIP3   OH227583   5.502   5.203   0.383 -0.1986  0.3119 -0.2911
 2031TIP3    H127584   5.518   5.298   0.387  1.8519 -0.0391  1.3650
 2031TIP3    H227585   5.563   5.166   0.447 -2.9680 -1.9089  1.2614
 2032TIP3   OH227586   6.422   6.661  10.304 -0.2434  0.2331 -0.8234
 2032TIP3    H127587   6.372   6.679  10.224  1.0697 -1.0168 -1.9758
 2032TIP3    H227588   6.415   6.567  10.316  2.5434 -0.1325 -1.5478
 2033TIP3   OH227589   2.235   2.511  12.470 -0.7100 -0.3400  0.3941
 2033TIP3    H127590   2.153   2.515  12.521 -0.9062 -1.9146  0.2351
 2033TIP3    H227591   2.241   2.597  12.429 -0.9728  0.7075  2.4214
 2034TIP3   OH227592   1.931   1.080  10.918  0.2653 -0.2040 -0.7452
 2034TIP3    H127593   1.906   1.078  10.825  1.6907  1.6806 -1.2161
 2034TIP3    H227594   2.016   1.124  10.919  1.4206 -2.2964  1.2460
 2035TIP3   OH227595   4.934   1.131   1.415 -0.2371  0.2156  0.7089
 2035TIP3    H127596   4.903   1.220   1.396  1.9771  0.6216 -1.5968
 2035TIP3    H227597   4.999   1.142   1.485 -0.0237  0.4128  0.4807
 2036TIP3   OH227598   4.526   3.218  12.438 -0.1942 -0.6311 -0.4234
 2036TIP3    H127599   4.450   3.161  12.433  0.4513 -1.5244 -0.4513
 2036TIP3    H227600   4.491   3.306  12.450 -1.2045 -1.1204  0.3201
 2037TIP3   OH227601   0.781   1.975  14.023  0.0174  0.0925  0.2855
 2037TIP3    H127602   0.868   1.963  13.986 -0.0831  0.6362 -0.1419
 2037TIP3    H227603   0.792   2.042  14.090  0.0033 -0.1420  0.5258
 2038TIP3   OH227604   6.393   3.807  11.166 -0.4456 -0.3205 -0.0658
 2038TIP3    H127605   6.308   3.766  11.150 -1.0103  0.8354 -0.1903
 2038TIP3    H227606   6.457   3.745  11.131 -1.1441 -1.7874  1.1590
 2039TIP3   OH227607   3.075   6.553  11.368  0.6607 -0.0041 -0.9435
 2039TIP3    H127608   3.134   6.495  11.417 -0.5653 -0.0258  0.5691
 2039TIP3    H227609   3.025   6.495  11.311 -0.1202 -0.3948  0.1099
 2040TIP3   OH227610   5.389   5.425  13.019 -0.5899  0.5981 -0.0206
 2040TIP3    H127611   5.445   5.502  13.032  0.2552 -0.0123  0.0321
 2040TIP3    H227612   5.364   5.399  13.108 -1.9595  1.5730 -0.0926
 2041TIP3   OH227613   1.824   1.079  11.766 -0.1728  0.5506 -0.2059
 2041TIP3    H127614   1.814   1.113  11.855 -1.4495  1.3141 -0.6067
 2041TIP3    H227615   1.739   1.040  11.745  1.1499 -2.7910  0.1177
 2042TIP3   OH227616   6.687   2.699  15.434  0.1640 -0.2161 -0.0628
 2042TIP3    H127617   6.715   2.717  15.524 -0.1644 -1.5392  0.3259
 2042TIP3    H227618   6.615   2.637  15.444  0.3068 -0.5901 -1.2633
 2043TIP3   OH227619   6.639   4.236   0.083 -0.2582 -0.0407  0.0618
 2043TIP3    H127620   6.671   4.148   0.060 -0.5878  0.0464 -0.7570
 2043TIP3    H227621   6.699   4.296   0.038  0.0039  0.1569  0.6717
 2044TIP3   OH227622   1.535   2.309  12.972 -0.2723 -0.1171 -0.1949
 2044TIP3    H127623   1.465   2.364  12.937  0.6243  0.4988 -1.0831
 2044TIP3    H227624   1.550   2.342  13.060  0.0615  0.9006 -0.6149
 2045TIP3   OH227625   2.311   6.658  10.640  0.0235 -0.6675 -0.3778
 2045TIP3    H127626   2.319   6.631  10.731  1.0934 -1.1133 -0.5870
 2045TIP3    H227627   2.386   6.714  10.624 -0.8515  0.4607 -0.6487
 2046TIP3   OH227628   1.635   5.059  12.048 -0.7535 -0.5318  0.2460
 2046TIP3    H127629   1.701   5.045  11.980 -1.4943 -1.9903 -0.2096
 2046TIP3    H227630   1.562   5.003  12.023 -1.1602 -0.9093  2.1065
 2047TIP3   OH227631   3.120   2.559  15.668  0.2665 -0.3174  1.0713
 2047TIP3    H127632   3.175   2.516  15.603  0.5600 -0.5968  1.4973
 2047TIP3    H227633   3.174   2.631  15.701 -0.0043  0.0226  0.7753
 2048TIP3   OH227634   3.254   2.897   5.951 -0.2201  0.7304 -0.1037
 2048TIP3    H127635   3.188   2.961   5.976 -0.9042  0.5751 -1.4409
 2048TIP3    H227636   3.277   2.920   5.861 -0.6287 -1.0037 -0.6926
 2049TIP3   OH227637   4.436   0.804  15.492  0.4965 -0.1259 -0.4497
 2049TIP3    H127638   4.477   0.774  15.410  0.1257  0.7794 -0.9832
 2049TIP3    H227639   4.356   0.849  15.463 -0.9787 -1.9592  0.5546
 2050TIP3   OH227640   5.016   6.647   9.912 -0.0171 -0.2005  0.2454
 2050TIP3    H127641   5.017   6.733   9.953 -2.4680 -0.6400  1.4081
 2050TIP3    H227642   4.940   6.649   9.854  0.4020 -1.3164 -0.3822
 2051TIP3   OH227643   6.176   0.966   9.192  0.6356 -0.0355  0.0287
 2051TIP3    H127644   6.179   0.973   9.288 -1.8742 -1.8679  0.3584
 2051TIP3    H227645   6.163   0.872   9.176 -0.5896  0.4204 -2.0040
 2052TIP3   OH227646   0.931   1.467  15.518 -0.5967  0.1148 -0.3467
 2052TIP3    H127647   0.939   1.522  15.596 -0.9883  0.2939 -0.4306
 2052TIP3    H227648   1.011   1.414  15.518 -0.4220  0.3732 -0.0260
 2053TIP3   OH227649   2.049   0.218   4.089 -0.1668 -0.2119 -0.8254
 2053TIP3    H127650   2.110   0.206   4.161 -1.5830  0.1148  0.4865
 2053TIP3    H227651   2.012   0.131   4.074  0.8137 -0.4799 -1.8456
 2054TIP3   OH227652   0.801   3.447  11.019 -0.1176 -0.4366  0.6169
 2054TIP3    H127653   0.865   3.489  10.962  0.8772 -1.5415  0.8681
 2054TIP3    H227654   0.723   3.436  10.965  0.7813 -1.3965 -0.5469
 2055TIP3   OH227655   6.907   1.586  12.606 -0.2500  0.6743  0.5389
 2055TIP3    H127656   6.970   1.604  12.537  0.1014  3.4964  1.4560
 2055TIP3    H227657   6.953   1.528  12.667 -0.1122 -0.7504 -0.8626
 2056TIP3   OH227658   1.080   0.064  10.999  0.0286  0.1796  0.2637
 2056TIP3    H127659   1.089   0.153  11.033  1.7529 -0.1512  0.7653
 2056TIP3    H227660   1.031   0.075  10.917 -0.0281  1.5476  0.4568
 2057TIP3   OH227661   0.823   5.090  10.665  0.4550  0.2595  0.0877
 2057TIP3    H127662   0.831   5.181  10.694 -1.7288  0.9041 -1.0660
 2057TIP3    H227663   0.846   5.038  10.742 -0.3318  1.8247  1.4374
 2058TIP3   OH227664   7.061   1.757   4.923  0.5181 -0.2927  0.1258
 2058TIP3    H127665   7.139   1.744   4.869  1.8461  2.3929  1.1923
 2058TIP3    H227666   7.091   1.813   4.994 -2.7254  2.2691 -0.3130
 2059TIP3   OH227667   3.381   0.257   2.190  0.4923 -0.0094  0.0384
 2059TIP3    H127668   3.344   0.180   2.232  2.3239 -0.4796  0.8948
 2059TIP3    H227669   3.322   0.276   2.117 -1.1316 -0.9510  1.0644
 2060TIP3   OH227670   3.935   5.486   1.272  0.7176  0.3357 -0.2570
 2060TIP3    H127671   3.982   5.480   1.355  0.9807  2.1207 -0.2404
 2060TIP3    H227672   3.843   5.493   1.297  0.8793  1.9569 -0.0361
 2061TIP3   OH227673   2.589   4.552  10.768  0.1433  0.3273 -0.3114
 2061TIP3    H127674   2.578   4.554  10.863  0.0872  0.2575 -0.3165
 2061TIP3    H227675   2.504   4.522  10.734  0.2766  0.0041 -0.3624
 2062TIP3   OH227676   1.314   4.123   1.609 -0.7194 -0.4798  0.3226
 2062TIP3    H127677   1.339   4.137   1.517 -0.3091 -0.6645  0.4004
 2062TIP3    H227678   1.338   4.031   1.626 -0.7388 -0.4291  0.6273
 2063TIP3   OH227679   2.320   2.683  13.850 -0.5046  0.1497  0.1950
 2063TIP3    H127680   2.288   2.768  13.817  1.3715  0.9720  0.3831
 2063TIP3    H227681   2.340   2.700  13.942  0.0014 -0.4744  0.1991
 2064TIP3   OH227682   4.858   0.933  12.738  0.4338  0.2043 -0.0978
 2064TIP3    H127683   4.825   0.924  12.649 -0.3612 -0.2647  0.2313
 2064TIP3    H227684   4.876   1.026  12.748  3.1143 -0.0471 -1.6231
 2065TIP3   OH227685   1.347   2.536   3.377 -0.3983  0.1430  0.1797
 2065TIP3    H127686   1.373   2.600   3.442 -1.5815  0.0504  0.7666
 2065TIP3    H227687   1.297   2.470   3.425 -1.9438  0.4593 -0.9102
 2066TIP3   OH227688   2.119   2.158   9.589  1.1391  0.3031  0.2861
 2066TIP3    H127689   2.133   2.205   9.507 -0.1936  1.5463  0.7290
 2066TIP3    H227690   2.080   2.074   9.563  1.3834  0.3920 -0.3799
 2067TIP3   OH227691   0.915   1.578  14.103 -0.1731  0.0107  0.5001
 2067TIP3    H127692   0.885   1.504  14.157  2.3589 -0.1601  1.8128
 2067TIP3    H227693   0.921   1.651  14.164  3.2035 -0.3029  0.7143
 2068TIP3   OH227694   2.711   0.765  14.032 -0.2168  0.7710 -0.0285
 2068TIP3    H127695   2.668   0.845  14.001  0.3410  1.4354  0.8746
 2068TIP3    H227696   2.640   0.702  14.043 -0.6195  1.0140 -1.0932
 2069TIP3   OH227697   1.094   2.530  11.181 -0.1150 -0.1428 -0.4504
 2069TIP3    H127698   1.055   2.575  11.256  1.5372  1.3261 -0.4175
 2069TIP3    H227699   1.019   2.499  11.130 -1.2761  0.3245  0.9008
 2070TIP3   OH227700   0.930   3.207  11.877  0.3814  0.5148 -0.1625
 2070TIP3    H127701   0.921   3.303  11.881 -0.5513  0.4236  0.1610
 2070TIP3    H227702   1.009   3.193  11.826 -0.5786  1.4430 -2.0234
 2071TIP3   OH227703   2.880   3.205  14.210 -0.6556  0.4590 -0.1813
 2071TIP3    H127704   2.878   3.178  14.301  0.2593  1.1157  0.0615
 2071TIP3    H227705   2.792   3.239  14.192 -1.1712 -0.7042  0.1124
 2072TIP3   OH227706   4.836   4.975  12.748  0.1753 -0.0242  0.3618
 2072TIP3    H127707   4.803   4.900  12.698  0.6632 -0.1555  0.2311
 2072TIP3    H227708   4.773   5.045  12.731 -1.1211 -0.8145  1.6686
 2073TIP3   OH227709   2.567   5.446   2.505 -0.4625 -0.1959  0.4351
 2073TIP3    H127710   2.628   5.422   2.575 -0.0684 -0.2597  0.0727
 2073TIP3    H227711   2.559   5.541   2.512 -2.1287 -0.3927  1.9581
 2074TIP3   OH227712   3.158   6.501  15.712 -0.1989 -0.3348  0.2932
 2074TIP3    H127713   3.110   6.459  15.783  0.2648 -1.0244  0.1996
 2074TIP3    H227714   3.245   6.462  15.715  0.6071  1.3787  0.8956
 2075TIP3   OH227715   6.858   2.381  12.199  0.7305 -0.6256 -0.7190
 2075TIP3    H127716   6.909   2.433  12.137  1.1495 -0.3206 -0.1371
 2075TIP3    H227717   6.777   2.432  12.212  1.1198 -0.1323 -0.1863
 2076TIP3   OH227718   0.573   3.834  12.068 -0.0822 -0.3085 -0.0522
 2076TIP3    H127719   0.668   3.850  12.075 -0.3257  0.9172  0.7351
 2076TIP3    H227720   0.557   3.761  12.129  0.4589 -1.0794 -0.7987
 2077TIP3   OH227721   6.132   0.353  13.743  0.0919 -0.1190  0.3562
 2077TIP3    H127722   6.132   0.266  13.784  1.1869 -0.0357  0.5659
 2077TIP3    H227723   6.191   0.344  13.668 -0.7644  0.1228 -0.3502
 2078TIP3   OH227724   1.087   6.335  11.113  0.2663  0.0693  0.1708
 2078TIP3    H127725   1.128   6.399  11.056 -0.5308  0.9047  0.5013
 2078TIP3    H227726   1.035   6.387  11.174 -0.0905 -0.8757  0.7019
 2079TIP3   OH227727   4.501   5.880  10.962 -0.1865 -0.4017  0.2952
 2079TIP3    H127728   4.510   5.905  11.054 -0.8719  1.3141 -0.0747
 2079TIP3    H227729   4.546   5.949  10.914  1.2335 -1.9202 -0.6347
 2080TIP3   OH227730   4.689   3.420  11.063  0.5539  0.4369  0.4271
 2080TIP3    H127731   4.599   3.389  11.062  0.5448  0.4685  0.1754
 2080TIP3    H227732   4.682   3.514  11.077  0.5780  0.3417  1.1034
 2081TIP3   OH227733   5.061   4.769  12.587 -0.6151  0.0186  0.1832
 2081TIP3    H127734   5.032   4.815  12.666 -1.0711 -0.7155  0.4482
 2081TIP3    H227735   5.119   4.832  12.543 -2.0229  1.2315  0.0119
 2082TIP3   OH227736   6.213   2.739  10.763  0.4384  0.1577  0.1143
 2082TIP3    H127737   6.120   2.722  10.749  0.6171 -0.8388  0.0639
 2082TIP3    H227738   6.226   2.829  10.733 -0.3988  0.1312 -0.3512
 2083TIP3   OH227739   1.749   5.029   0.095  0.2043 -0.1739  0.2046
 2083TIP3    H127740   1.689   5.101   0.111 -1.3020 -1.2757 -0.3111
 2083TIP3    H227741   1.763   4.989   0.181  1.9606  1.3490  0.7074
 2084TIP3   OH227742   5.403   5.996  10.044  0.0579  0.2054 -0.1876
 2084TIP3    H127743   5.330   6.010   9.984  0.4844 -0.8030 -0.9817
 2084TIP3    H227744   5.445   6.082  10.051 -1.3491  0.8552  0.5043
 2085TIP3   OH227745   4.604   2.944  14.934 -0.1465 -0.5674  0.3939
 2085TIP3    H127746   4.642   2.932  15.022 -1.3420  0.2844  1.0497
 2085TIP3    H227747   4.561   3.030  14.938 -0.5863 -0.7099 -0.8999
 2086TIP3   OH227748   5.963   2.785   0.927 -0.5234 -0.1560 -0.7722
 2086TIP3    H127749   5.957   2.708   0.985  1.2203 -0.3220 -0.7601
 2086TIP3    H227750   5.893   2.772   0.863  0.5848 -2.5505 -1.6445
 2087TIP3   OH227751   5.470   2.871  13.195 -0.1184  0.0667 -0.1996
 2087TIP3    H127752   5.479   2.799  13.132 -1.0342  0.3060 -0.6223
 2087TIP3    H227753   5.477   2.950  13.142 -0.3408  0.2774  0.0811
 2088TIP3   OH227754   0.364   1.177   0.455 -0.0659 -0.4603  0.3325
 2088TIP3    H127755   0.366   1.083   0.436  0.3424 -0.2172 -0.8482
 2088TIP3    H227756   0.444   1.212   0.415  0.2116  0.2722  1.4697
 2089TIP3   OH227757   0.404   4.456  10.234  0.0389 -0.0059  0.2510
 2089TIP3    H127758   0.469   4.472  10.166 -0.0351  0.8600  0.3661
 2089TIP3    H227759   0.339   4.400  10.193  0.5937 -0.4578 -0.0202
 2090TIP3   OH227760   2.732   0.952  15.545 -0.1950 -0.6548  0.1777
 2090TIP3    H127761   2.823   0.946  15.518 -0.5693 -0.9652 -1.0761
 2090TIP3    H227762   2.683   0.956  15.463 -1.2761  0.0578  0.8342
 2091TIP3   OH227763   4.643   3.503  12.222  1.0945 -0.2473 -0.3153
 2091TIP3    H127764   4.556   3.509  12.260  1.4386  0.2310  0.4233
 2091TIP3    H227765   4.667   3.411  12.229  0.2628 -0.5696 -1.4267
 2092TIP3   OH227766   4.479   6.514  10.566  0.1613 -0.0073  0.3414
 2092TIP3    H127767   4.431   6.585  10.609 -0.1451  0.6285 -1.0008
 2092TIP3    H227768   4.567   6.550  10.552 -0.2589  0.4857 -1.1830
 2093TIP3   OH227769   1.033   4.035  11.928 -0.5648  0.0408 -0.4349
 2093TIP3    H127770   1.049   4.013  11.836 -0.8656 -0.9994 -0.2449
 2093TIP3    H227771   1.116   4.017  11.972 -0.6084 -0.0531 -0.3917
 2094TIP3   OH227772   3.026   6.047  10.590 -0.4083  0.2128  0.3191
 2094TIP3    H127773   3.079   6.075  10.664  0.4542 -3.6880  1.4247
 2094TIP3    H227774   3.088   6.041  10.517 -0.3849  0.2796  0.3339
 2095TIP3   OH227775   2.100   0.517  15.251  0.4350 -0.7489 -0.7029
 2095TIP3    H127776   2.088   0.600  15.298 -0.8923 -1.2607 -0.0910
 2095TIP3    H227777   2.018   0.504  15.204  0.0881 -2.3581  0.2616
 2096TIP3   OH227778   0.758   2.941  14.191 -0.4567 -0.0762 -0.2759
 2096TIP3    H127779   0.676   2.898  14.166 -0.9128  1.5188 -1.7556
 2096TIP3    H227780   0.785   2.988  14.112  0.4837  1.5678  0.9571
 2097TIP3   OH227781   2.920   6.110  10.257  0.4922 -0.3348  0.1742
 2097TIP3    H127782   3.015   6.116  10.244  0.4935 -1.2974 -0.3673
 2097TIP3    H227783   2.889   6.055  10.184 -0.6046  0.6708 -0.1456
 2098TIP3   OH227784   4.975   3.916  12.852 -0.4748 -0.1357 -0.1566
 2098TIP3    H127785   4.899   3.896  12.797 -0.4914  2.2309 -1.1169
 2098TIP3    H227786   5.026   3.978  12.800  1.6926 -0.9864  0.8436
 2099TIP3   OH227787   6.414   0.614  11.455 -0.6555  0.0382 -0.1637
 2099TIP3    H127788   6.487   0.553  11.469 -0.4248  0.2597 -0.3893
 2099TIP3    H227789   6.434   0.688  11.511 -0.9773 -0.1260  0.1691
 2100TIP3   OH227790   5.457   2.932  10.035 -0.6148  0.0143 -0.7612
 2100TIP3    H127791   5.468   2.846  10.075  0.6313 -0.0295 -1.1430
 2100TIP3    H227792   5.363   2.944  10.029 -0.8598 -0.1838  1.7078
 2101TIP3   OH227793   1.823   1.510  10.362 -0.5267  0.3157  0.2153
 2101TIP3    H127794   1.758   1.580  10.356  1.1815  2.0161  0.6845
 2101TIP3    H227795   1.893   1.538  10.303 -0.2660 -1.5643 -0.4167
 2102TIP3   OH227796   7.137   5.042  14.006 -0.2892 -0.0108 -0.1974
 2102TIP3    H127797   7.094   5.123  14.032 -0.1502 -0.4900  1.6305
 2102TIP3    H227798   7.223   5.045  14.047 -0.5183 -1.3550  0.4594
 2103TIP3   OH227799   0.503   1.188  10.036 -0.2306 -0.2672 -0.2169
 2103TIP3    H127800   0.544   1.155   9.956 -0.8351 -1.6762  0.0059
 2103TIP3    H227801   0.425   1.234  10.005 -0.9631 -1.5995 -0.4265
 2104TIP3   OH227802   5.850   1.780  11.762  0.0636  0.3568  0.0577
 2104TIP3    H127803   5.910   1.801  11.833  0.7688  1.7594 -0.8913
 2104TIP3    H227804   5.819   1.865  11.730  0.2039 -0.1885 -1.6521
 2105TIP3   OH227805   0.213   2.588  10.494 -0.8076  0.0103 -0.2303
 2105TIP3    H127806   0.158   2.511  10.476 -1.0627  0.0483  0.3449
 2105TIP3    H227807   0.302   2.552  10.503 -0.8523 -0.1524 -0.4379
 2106TIP3   OH227808   1.874   2.519  11.315  0.0351 -0.2363 -0.6748
 2106TIP3    H127809   1.791   2.496  11.357  0.6717 -0.9791  0.2097
 2106TIP3    H227810   1.871   2.476  11.230 -0.1174 -1.0000 -0.2897
 2107TIP3   OH227811   4.502   1.391  10.536  0.0121  0.3419  0.1430
 2107TIP3    H127812   4.570   1.404  10.470  1.1869 -0.3542  1.1712
 2107TIP3    H227813   4.421   1.414  10.492  0.6586 -0.8803 -1.7896
 2108TIP3   OH227814   4.910   3.651  10.455  0.7590  0.0082 -0.2508
 2108TIP3    H127815   4.987   3.642  10.510  2.0178 -1.7406 -2.1176
 2108TIP3    H227816   4.845   3.592  10.494  0.3314  1.4586  1.3057
 2109TIP3   OH227817   5.404   2.325  13.916  0.6142 -0.2291  0.1686
 2109TIP3    H127818   5.392   2.230  13.921 -1.4922 -0.0488 -0.4280
 2109TIP3    H227819   5.489   2.341  13.957  1.0531 -2.3688  0.1955
 2110TIP3   OH227820   1.699   5.445  12.392 -0.7139 -0.7627 -0.0073
 2110TIP3    H127821   1.645   5.401  12.458  0.9831 -1.7081  0.8411
 2110TIP3    H227822   1.711   5.380  12.323  0.3313 -1.0263  0.4027
 2111TIP3   OH227823   2.105   1.536  10.959  0.3945 -0.0328 -0.3401
 2111TIP3    H127824   2.195   1.554  10.987  0.6285 -0.2940 -0.9067
 2111TIP3    H227825   2.063   1.500  11.037  0.7060  0.3269  0.0027
 2112TIP3   OH227826   5.600   2.279  14.767 -0.7804  0.1365  0.3884
 2112TIP3    H127827   5.538   2.287  14.839 -0.7882 -1.6737  0.6168
 2112TIP3    H227828   5.554   2.225  14.702  0.2982 -0.6956  0.2939
 2113TIP3   OH227829   5.070   2.315  11.836  0.2720  0.1727 -0.3987
 2113TIP3    H127830   4.979   2.303  11.861 -0.2387 -1.2785 -2.7092
 2113TIP3    H227831   5.109   2.228  11.847  0.8765  0.3241 -1.2815
 2114TIP3   OH227832   2.870   4.513  11.021 -0.0234  0.2208 -0.2735
 2114TIP3    H127833   2.831   4.442  10.970 -2.3859  1.2020  0.0788
 2114TIP3    H227834   2.877   4.477  11.110  0.2077 -0.0719 -0.4077
 2115TIP3   OH227835   5.556   0.092  11.941  0.0262  0.0906 -0.2261
 2115TIP3    H127836   5.518   0.159  11.997  2.1430  0.8313  0.4225
 2115TIP3    H227837   5.624   0.051  11.994  1.6218  0.3276 -1.9526
 2116TIP3   OH227838   3.029   2.452   0.161 -0.0627  0.2609 -0.2473
 2116TIP3    H127839   3.076   2.471   0.079 -2.5265  0.4504 -1.7213
 2116TIP3    H227840   3.034   2.534   0.210 -0.5889  0.9661 -1.3170
 2117TIP3   OH227841   3.273   6.776  12.169  0.0620 -0.2845 -0.1173
 2117TIP3    H127842   3.256   6.682  12.163 -0.4371 -0.2165  0.2398
 2117TIP3    H227843   3.208   6.816  12.112 -0.9986 -0.0246  1.2372
 2118TIP3   OH227844   3.607   0.211  12.810 -0.5792 -0.7027 -0.6337
 2118TIP3    H127845   3.598   0.283  12.748  0.5514  0.0019  0.0055
 2118TIP3    H227846   3.676   0.238  12.870 -2.7444 -0.6110  1.9991
 2119TIP3   OH227847   5.261   1.930  12.030  0.0887  0.0533 -0.3172
 2119TIP3    H127848   5.219   1.882  12.101  0.7672 -0.4570 -0.2578
 2119TIP3    H227849   5.189   1.952  11.971 -0.4252  0.1615  0.3329
 2120TIP3   OH227850   1.242   3.013  14.194  0.5415 -0.1763 -0.0671
 2120TIP3    H127851   1.245   2.930  14.241 -0.3598 -0.4383 -0.4538
 2120TIP3    H227852   1.182   2.998  14.121  2.0300  0.1775 -1.4160
 2121TIP3   OH227853   1.845   5.400   1.386 -0.1820 -0.4770 -0.2900
 2121TIP3    H127854   1.936   5.394   1.356 -0.3401  0.1942 -0.9319
 2121TIP3    H227855   1.795   5.420   1.306 -0.6561  1.0983  0.3773
 2122TIP3   OH227856   0.922   3.767  12.334  0.1824 -0.2770 -0.1092
 2122TIP3    H127857   0.922   3.689  12.388  1.5525  0.1301  0.5198
 2122TIP3    H227858   0.918   3.840  12.396  0.8806  0.1733 -0.5743
 2123TIP3   OH227859   6.284   2.512  12.278 -0.0332 -0.1238 -0.3780
 2123TIP3    H127860   6.256   2.584  12.335 -1.5182 -1.1540  0.2665
 2123TIP3    H227861   6.377   2.501  12.297  0.5949  2.4824 -1.5041
 2124TIP3   OH227862   1.805   5.327  13.917  0.5081 -0.0972  0.5612
 2124TIP3    H127863   1.789   5.232  13.915  1.8899 -0.3416 -0.3651
 2124TIP3    H227864   1.776   5.354  14.004  0.1540 -1.3928  0.8683
 2125TIP3   OH227865   3.115   6.664   3.206 -0.1876 -0.3354 -0.1655
 2125TIP3    H127866   3.075   6.739   3.163 -0.0498  0.6457  1.3284
 2125TIP3    H227867   3.129   6.693   3.296  1.5562 -1.5176 -0.0044
 2126TIP3   OH227868   3.896   2.953  10.906 -0.0018  0.1863  0.2121
 2126TIP3    H127869   3.803   2.955  10.927  0.0799  0.0058  0.5978
 2126TIP3    H227870   3.913   2.862  10.880  0.0206  0.2691 -0.0601
 2127TIP3   OH227871   6.676   2.238   2.212 -0.7330 -0.2543 -0.1572
 2127TIP3    H127872   6.626   2.308   2.169 -0.6162  0.9030  1.5251
 2127TIP3    H227873   6.734   2.283   2.273  0.6621 -1.7311 -0.3237
 2128TIP3   OH227874   0.569   2.349  14.054  0.2809 -0.8900 -0.5507
 2128TIP3    H127875   0.533   2.265  14.025 -0.9259  0.0285 -1.8517
 2128TIP3    H227876   0.516   2.415  14.009  0.6280  0.6016  1.1075
 2129TIP3   OH227877   3.432   0.126  14.673  0.0665 -0.0736 -0.0990
 2129TIP3    H127878   3.409   0.054  14.614 -0.3807 -0.6299  0.7450
 2129TIP3    H227879   3.368   0.194  14.653  0.5413  0.1437 -0.9601
 2130TIP3   OH227880   1.006   5.727  15.199  0.0396  0.4455  0.1703
 2130TIP3    H127881   0.949   5.697  15.128  0.0344  1.1351 -0.1249
 2130TIP3    H227882   0.946   5.758  15.267  0.0628  0.8349  0.0104
 2131TIP3   OH227883   3.577   6.472  11.343  0.2403  0.0202  0.6558
 2131TIP3    H127884   3.535   6.553  11.372  0.2752  0.5984 -0.7776
 2131TIP3    H227885   3.654   6.502  11.293  1.5955 -0.9760  2.0357
 2132TIP3   OH227886   6.241   1.106  13.684  0.0827  0.3552  0.4294
 2132TIP3    H127887   6.163   1.157  13.659 -0.5428 -0.4415  0.7109
 2132TIP3    H227888   6.217   1.015  13.665  0.7916  0.0587  0.9141
 2133TIP3   OH227889   5.645   1.157  10.714 -1.3241  0.2461  0.0094
 2133TIP3    H127890   5.669   1.076  10.669 -0.9525 -0.8100  1.9913
 2133TIP3    H227891   5.549   1.154  10.719 -1.2729 -0.5178  0.7969
 2134TIP3   OH227892   2.557   1.413   3.105 -0.4894 -0.2641 -0.1117
 2134TIP3    H127893   2.520   1.483   3.159 -0.4615  0.5523 -1.1260
 2134TIP3    H227894   2.481   1.372   3.064 -0.4566 -0.3896 -0.0477
 2135TIP3   OH227895   0.698   6.005  13.285  0.2236 -0.0053  0.6580
 2135TIP3    H127896   0.742   5.959  13.357  0.4316  0.2493  0.6966
 2135TIP3    H227897   0.718   6.097  13.300  0.0677  0.0700  0.4080
 2136TIP3   OH227898   4.223   0.309  12.302  0.2565 -0.1772  0.2371
 2136TIP3    H127899   4.292   0.374  12.291  0.9209 -0.8219  0.5013
 2136TIP3    H227900   4.184   0.328  12.387  0.8201 -0.4720  0.5602
 2137TIP3   OH227901   0.426   0.861  11.341 -0.1822 -0.4998 -0.1862
 2137TIP3    H127902   0.375   0.932  11.380  1.4241  0.8530 -0.4549
 2137TIP3    H227903   0.375   0.782  11.361 -1.1632  0.5134  1.6119
 2138TIP3   OH227904   0.328   6.929   0.885  0.0509  0.3064  0.1936
 2138TIP3    H127905   0.252   6.876   0.859 -1.1367  1.1405  1.8108
 2138TIP3    H227906   0.310   7.016   0.848  1.0240  0.1319 -0.7508
 2139TIP3   OH227907   6.271   0.224  14.491 -0.0350  0.0317 -0.4547
 2139TIP3    H127908   6.313   0.238  14.575  0.0742 -3.1103  0.1126
 2139TIP3    H227909   6.327   0.161  14.446 -2.6486 -2.2506 -0.7592
 2140TIP3   OH227910   6.873   1.341  13.999  0.0945  0.1764 -0.0814
 2140TIP3    H127911   6.816   1.406  14.041 -1.2541 -1.0068 -0.0000
 2140TIP3    H227912   6.961   1.377  14.010 -0.5883  1.9723 -0.0182
 2141TIP3   OH227913   2.322   0.333   5.540  0.0125  0.7021 -0.4590
 2141TIP3    H127914   2.417   0.333   5.534  0.0672  0.1733  0.2861
 2141TIP3    H227915   2.300   0.249   5.580 -0.7956  0.6292 -1.0419
 2142TIP3   OH227916   3.287   2.267  11.117  0.3882  0.6914 -0.5342
 2142TIP3    H127917   3.234   2.334  11.074 -0.6786  0.3434  0.2135
 2142TIP3    H227918   3.240   2.185  11.102 -0.0695  0.5723  1.3675
 2143TIP3   OH227919   4.922   0.152  14.462  0.1603 -0.5593  0.0218
 2143TIP3    H127920   4.926   0.128  14.555 -0.5014 -0.0762  0.1904
 2143TIP3    H227921   4.987   0.221  14.452 -1.5235  1.2388  0.7550
 2144TIP3   OH227922   2.621   6.367   1.427 -0.0540 -0.2652  0.1379
 2144TIP3    H127923   2.636   6.353   1.334  0.0816  0.9385 -0.0346
 2144TIP3    H227924   2.683   6.435   1.451 -0.0885 -0.5607  1.1157
 2145TIP3   OH227925   0.673   1.568  11.427  0.3709 -0.1488  0.5810
 2145TIP3    H127926   0.762   1.602  11.426  1.2679 -2.2387  1.8414
 2145TIP3    H227927   0.657   1.538  11.338  1.0731 -0.0661  0.4213
 2146TIP3   OH227928   2.612   5.786  11.130 -0.0456  0.1478  0.0004
 2146TIP3    H127929   2.538   5.846  11.133 -1.5174 -1.5850 -0.1839
 2146TIP3    H227930   2.602   5.731  11.208  0.6041 -0.6123 -0.4340
 2147TIP3   OH227931   3.736   5.000   0.006  0.0099  0.1448 -0.3502
 2147TIP3    H127932   3.728   4.998   0.102  1.1439 -2.8725 -0.2165
 2147TIP3    H227933   3.827   5.024  -0.010  0.0407 -0.1800 -0.6570
 2148TIP3   OH227934   0.227   2.855  10.819 -0.7771  0.3935  0.0756
 2148TIP3    H127935   0.310   2.882  10.781 -0.4106  0.7197  1.0638
 2148TIP3    H227936   0.236   2.761  10.833 -0.8398  0.3073 -0.4286
 2149TIP3   OH227937   0.245   6.210  12.782 -0.4907 -0.1055 -0.1475
 2149TIP3    H127938   0.248   6.145  12.852 -2.9257 -0.4594 -0.2756
 2149TIP3    H227939   0.300   6.175  12.713  0.9938 -0.3227  1.1040
 2150TIP3   OH227940   0.948   3.936   4.346 -0.1545 -0.2836  0.1798
 2150TIP3    H127941   1.020   3.960   4.288 -0.3805  1.6837  0.6413
 2150TIP3    H227942   0.918   4.019   4.383 -2.3313 -1.0794  0.3933
 2151TIP3   OH227943   4.015   5.231  11.857 -0.0488  0.1117  0.1878
 2151TIP3    H127944   4.094   5.285  11.869 -0.1006  0.1289  0.4606
 2151TIP3    H227945   3.974   5.266  11.778  0.8071 -0.6165 -0.6189
 2152TIP3   OH227946   1.247   6.171  12.527  0.7531 -0.1060  0.1003
 2152TIP3    H127947   1.327   6.212  12.561  1.0448 -0.3982 -0.2298
 2152TIP3    H227948   1.251   6.185  12.433  0.6110 -0.4605  0.0413
 2153TIP3   OH227949   3.985   3.735  10.775 -0.0384  0.0933  0.0982
 2153TIP3    H127950   4.018   3.648  10.798  1.7838  1.4494  3.3234
 2153TIP3    H227951   3.897   3.737  10.811 -0.8517 -0.9598 -1.6852
 2154TIP3   OH227952   6.269   4.073  11.782 -0.1226 -0.7044 -0.2177
 2154TIP3    H127953   6.198   4.123  11.822  0.4985 -0.4297  0.5611
 2154TIP3    H227954   6.224   4.015  11.720 -0.9358  0.1270 -0.4425
 2155TIP3   OH227955   6.478   4.441  14.832 -0.0790  0.0483 -0.3911
 2155TIP3    H127956   6.490   4.433  14.737 -1.0553 -2.6921 -0.3620
 2155TIP3    H227957   6.426   4.365  14.856 -0.0550  0.8009  2.3493
 2156TIP3   OH227958   4.710   3.990  14.862  0.4644 -0.0613 -0.3705
 2156TIP3    H127959   4.622   3.993  14.899  0.3530  1.7119 -0.6880
 2156TIP3    H227960   4.709   3.914  14.804 -0.4330 -0.8171  0.5795
 2157TIP3   OH227961   0.249   5.734   4.085  0.0732 -0.3305  0.0440
 2157TIP3    H127962   0.176   5.796   4.091  1.3579  1.2553 -0.0927
 2157TIP3    H227963   0.207   5.649   4.069 -1.7019  0.6295 -0.6899
 2158TIP3   OH227964   2.888   1.515  11.255  0.0999 -0.5590 -0.6639
 2158TIP3    H127965   2.866   1.465  11.334 -3.9477  1.8866  0.0604
 2158TIP3    H227966   2.924   1.598  11.289  3.3228 -1.3989 -1.7129
 2159TIP3   OH227967   1.826   4.878  10.610  0.1970 -0.0638 -0.0509
 2159TIP3    H127968   1.811   4.868  10.704  0.3228 -2.4898 -0.2273
 2159TIP3    H227969   1.738   4.881  10.572  0.0892 -1.8620 -0.0398
 2160TIP3   OH227970   4.209   6.320  10.303 -0.4536  0.8444 -0.3829
 2160TIP3    H127971   4.184   6.332  10.211 -1.6781 -0.2495 -0.2147
 2160TIP3    H227972   4.143   6.261  10.339  2.5165 -2.5985  0.0020
 2161TIP3   OH227973   2.997   2.711  13.437 -0.0439  0.2780 -0.0350
 2161TIP3    H127974   3.017   2.783  13.377 -0.7509  1.0758  0.6530
 2161TIP3    H227975   3.056   2.724  13.511  1.6822 -1.4060 -1.0333
 2162TIP3   OH227976   4.745   3.258  12.297 -0.6034  0.0415  0.2267
 2162TIP3    H127977   4.802   3.181  12.310 -0.8823 -0.3275 -0.6842
 2162TIP3    H227978   4.663   3.234  12.340  0.1904  0.9490  2.3826
 2163TIP3   OH227979   6.503   0.614   2.826  0.6597  0.0127  0.1167
 2163TIP3    H127980   6.462   0.696   2.854  2.2176 -0.2832  3.9437
 2163TIP3    H227981   6.430   0.554   2.813 -0.3948  1.4316 -0.8490
 2164TIP3   OH227982   6.040   5.899   0.557  0.1451 -0.1884  0.0499
 2164TIP3    H127983   6.041   5.868   0.647  2.1617  1.1599  0.5619
 2164TIP3    H227984   5.977   5.971   0.557 -1.3842 -1.4564 -0.1623
 2165TIP3   OH227985   1.028   0.892  11.387  0.8267 -0.1157  0.1758
 2165TIP3    H127986   1.097   0.957  11.375  0.4236  0.5769  1.3965
 2165TIP3    H227987   0.962   0.913  11.322  1.1565  0.0695 -0.0980
 2166TIP3   OH227988   6.921   2.926  11.496 -0.0262  0.1195 -0.7533
 2166TIP3    H127989   7.006   2.906  11.537 -1.8501 -2.8657  2.0444
 2166TIP3    H227990   6.908   3.019  11.514  1.7853  0.1895  0.5589
 2167TIP3   OH227991   3.040   4.216   3.572 -0.7666  0.6285 -0.1412
 2167TIP3    H127992   3.031   4.233   3.666 -1.1397  3.0464 -0.5421
 2167TIP3    H227993   3.086   4.132   3.567 -0.2679  0.6909  2.1890
 2168TIP3   OH227994   2.128   3.261  12.534 -0.1733 -0.3135  0.1029
 2168TIP3    H127995   2.069   3.253  12.459 -0.5302  1.0171  0.2072
 2168TIP3    H227996   2.089   3.331  12.587  1.3318  0.4191  0.3150
 2169TIP3   OH227997   4.161   4.749  10.793 -0.8226  0.0110  0.8163
 2169TIP3    H127998   4.233   4.779  10.738 -1.3288 -1.2494 -0.6071
 2169TIP3    H227999   4.148   4.819  10.856  0.3196  1.1419 -0.1520
 2170TIP3   OH228000   4.294   4.360   4.037  0.0787  0.2371 -0.1793
 2170TIP3    H128001   4.380   4.401   4.024 -0.6013  1.0005 -3.1245
 2170TIP3    H228002   4.303   4.274   3.996 -0.8307  0.8059 -1.6820
 2171TIP3   OH228003   4.444   6.206   2.265 -0.1817  0.3774 -0.5274
 2171TIP3    H128004   4.447   6.113   2.243  0.0124 -0.3214  2.1274
 2171TIP3    H228005   4.535   6.235   2.258  0.9641 -1.2033  4.1179
 2172TIP3   OH228006   6.655   1.074  15.414  0.1602 -0.2534  0.7093
 2172TIP3    H128007   6.706   1.152  15.393  0.0758 -0.2890  0.3781
 2172TIP3    H228008   6.587   1.105  15.474 -1.1510  0.3464 -0.9979
 2173TIP3   OH228009   2.084   0.345  10.749  0.7251  0.9390  0.2190
 2173TIP3    H128010   2.101   0.428  10.795  2.0805 -0.3042  2.1598
 2173TIP3    H228011   2.146   0.284  10.789  0.4051 -0.7996 -1.8101
 2174TIP3   OH228012   6.152   3.617   3.145  0.7387 -0.4550 -0.4447
 2174TIP3    H128013   6.211   3.622   3.070  0.7300  0.7453 -0.3839
 2174TIP3    H228014   6.075   3.667   3.118  0.4772 -0.5446  0.1296
 2175TIP3   OH228015   2.053   1.116  10.146 -0.2093 -0.2519  0.1627
 2175TIP3    H128016   2.086   1.079  10.064  1.2175  1.3736 -0.0446
 2175TIP3    H228017   2.131   1.144  10.193 -0.9334 -1.7389  2.4465
 2176TIP3   OH228018   0.972   1.425  10.512 -0.4142  0.5369 -0.3428
 2176TIP3    H128019   0.954   1.441  10.420  0.0161  0.9520 -0.3591
 2176TIP3    H228020   1.028   1.347  10.512  0.5273  1.1911 -0.5205
 2177TIP3   OH228021   1.113   3.393  13.953  0.3355  0.4309 -0.2900
 2177TIP3    H128022   1.093   3.475  13.908 -1.0658  0.0151 -0.4520
 2177TIP3    H228023   1.040   3.335  13.933  1.3163 -0.8866 -0.2044
 2178TIP3   OH228024   1.522   4.877  12.957  0.3316  1.0292 -0.4605
 2178TIP3    H128025   1.507   4.818  12.884  0.8121  0.4129 -0.0787
 2178TIP3    H228026   1.563   4.954  12.918 -0.4135  1.1645 -0.9807
 2179TIP3   OH228027   0.855   0.594  12.395  1.0788 -0.4326 -0.3097
 2179TIP3    H128028   0.792   0.538  12.440  1.2480 -0.1828  0.2425
 2179TIP3    H228029   0.937   0.545  12.398  0.7349 -1.1460 -1.7834
 2180TIP3   OH228030   2.410   0.202  14.255 -0.3001  0.2104  0.4793
 2180TIP3    H128031   2.485   0.146  14.274 -0.7698  0.5849  4.0493
 2180TIP3    H228032   2.443   0.291  14.262 -0.2578  0.4732 -2.0882
 2181TIP3   OH228033   5.680   3.372  13.067 -0.0065 -0.1356 -0.6132
 2181TIP3    H128034   5.665   3.369  12.973  1.0228 -0.4759 -0.7784
 2181TIP3    H228035   5.742   3.301  13.084 -0.5648 -0.4016  0.3998
 2182TIP3   OH228036   2.250   3.877  10.699  0.1333  0.1747  0.1699
 2182TIP3    H128037   2.306   3.926  10.759 -0.5947 -1.0558  1.9242
 2182TIP3    H228038   2.206   3.944  10.648 -1.0111  1.4553  2.6521
 2183TIP3   OH228039   0.654   6.358  10.454 -0.0848  0.3531 -0.4369
 2183TIP3    H128040   0.642   6.280  10.401 -0.2235  1.3786 -1.9707
 2183TIP3    H228041   0.571   6.369  10.500 -0.9409  0.9315 -2.0771
 2184TIP3   OH228042   2.659   5.727   5.058 -0.3180 -0.1080 -0.0225
 2184TIP3    H128043   2.607   5.733   5.139  1.6900  1.1931  1.2491
 2184TIP3    H228044   2.617   5.789   4.998 -1.5395 -0.7294  0.1543
 2185TIP3   OH228045   2.514   3.127   2.464 -0.0225 -0.0084 -0.6330
 2185TIP3    H128046   2.525   3.089   2.377  0.8886 -0.6219 -0.2662
 2185TIP3    H228047   2.597   3.172   2.480 -0.5027  0.8221 -0.4174
 2186TIP3   OH228048   2.092   1.855   9.495  0.9220 -0.0315  0.1169
 2186TIP3    H128049   2.105   1.799   9.571 -0.5559 -0.0802  0.3532
 2186TIP3    H228050   2.002   1.838   9.467  1.5780 -0.4032 -1.9576
 2187TIP3   OH228051   0.740   0.328   1.031 -0.5430  0.1057 -0.4810
 2187TIP3    H128052   0.772   0.319   1.120  0.1958  1.2741 -0.6049
 2187TIP3    H228053   0.653   0.368   1.040 -0.6705 -0.2163 -0.2712
 2188TIP3   OH228054   0.579   7.065  14.400 -0.6059  0.2535 -0.0347
 2188TIP3    H128055   0.646   7.031  14.341 -0.8112 -1.1229  0.4851
 2188TIP3    H228056   0.552   6.989  14.451 -2.1150  0.9233  0.1989
 2189TIP3   OH228057   1.637   0.969   1.773 -0.3540 -0.4726  0.5411
 2189TIP3    H128058   1.601   1.057   1.781  1.3343  0.2431  0.7245
 2189TIP3    H228059   1.601   0.936   1.691 -1.1776  0.3083  0.5769
 2190TIP3   OH228060   6.760   2.828  13.164 -0.0338 -0.3051  0.0585
 2190TIP3    H128061   6.735   2.874  13.084 -0.6817  0.2321  0.5636
 2190TIP3    H228062   6.855   2.839  13.169 -0.0429  0.0170 -0.4157
 2191TIP3   OH228063   7.018   5.269  14.099  0.2471  0.0676  0.1345
 2191TIP3    H128064   7.067   5.342  14.060 -0.1449 -0.3516 -1.1944
 2191TIP3    H228065   6.954   5.311  14.156  0.0911  0.7782 -0.5367
 2192TIP3   OH228066   5.326   2.517  13.729 -0.6952  0.2207  0.0476
 2192TIP3    H128067   5.397   2.580  13.719 -1.0395  0.3661 -1.9209
 2192TIP3    H228068   5.360   2.451  13.789  0.0798  1.6857  1.2711
 2193TIP3   OH228069   0.392   7.065  13.105  0.4280 -0.5223  0.6273
 2193TIP3    H128070   0.409   6.971  13.110 -0.9165 -0.8556 -0.3533
 2193TIP3    H228071   0.307   7.075  13.148 -0.9754 -0.2848 -2.0185
 2194TIP3   OH228072   4.788   4.875  14.140  0.5476  0.5079 -0.0555
 2194TIP3    H128073   4.711   4.925  14.167 -0.6105 -0.6688 -1.0277
 2194TIP3    H228074   4.754   4.810  14.079  2.3445  0.0067 -0.5881
 2195TIP3   OH228075   0.670   0.552  14.811 -0.0095  0.5377 -0.2414
 2195TIP3    H128076   0.605   0.487  14.782 -0.7324 -0.7846  3.6728
 2195TIP3    H228077   0.754   0.514  14.788 -0.5094 -0.4488 -0.4982
 2196TIP3   OH228078   4.051   5.618   4.564 -0.0763  0.0524  0.5542
 2196TIP3    H128079   4.144   5.639   4.552 -0.2125  0.2686 -0.1296
 2196TIP3    H228080   4.049   5.522   4.567  0.2127  0.0575  0.9530
 2197TIP3   OH228081   2.051   3.001  14.037  0.1747 -0.2169 -0.1587
 2197TIP3    H128082   2.136   3.038  14.013 -0.3696  1.1334 -0.0738
 2197TIP3    H228083   2.030   2.941  13.966  1.2259 -0.6300 -0.1394
 2198TIP3   OH228084   6.830   4.872   0.633 -0.6841 -0.2296  0.4641
 2198TIP3    H128085   6.741   4.893   0.607 -0.0404  1.4023 -0.5356
 2198TIP3    H228086   6.869   4.955   0.659  1.3695 -0.4059 -1.7037
 2199TIP3   OH228087   3.118   1.373  11.758  0.1331  0.7056  0.0377
 2199TIP3    H128088   3.106   1.398  11.666 -1.3174  0.7460  0.2241
 2199TIP3    H228089   3.061   1.432  11.806  2.3958  2.1055  1.1958
 2200TIP3   OH228090   6.949   4.362  11.662 -0.8209  0.2409 -0.0688
 2200TIP3    H128091   6.961   4.345  11.755 -0.9790  0.2898 -0.0396
 2200TIP3    H228092   6.942   4.275  11.623 -1.9637  0.2336  0.1266
 2201TIP3   OH228093   1.879   3.854   1.331  0.3251  0.4202  0.2387
 2201TIP3    H128094   1.839   3.850   1.418  1.1286 -1.5324  0.5903
 2201TIP3    H228095   1.961   3.805   1.341  0.3713  0.0407 -1.6448
 2202TIP3   OH228096   2.125   5.869  12.834 -0.5077  0.3409  0.5238
 2202TIP3    H128097   2.145   5.798  12.774 -0.0289 -0.2035  1.3022
 2202TIP3    H228098   2.030   5.872  12.837 -0.5552  0.8434 -0.7816
 2203TIP3   OH228099   6.305   6.906   2.330 -0.2684  0.1379  0.1499
 2203TIP3    H128100   6.370   6.862   2.385  0.3169  0.7044 -0.0774
 2203TIP3    H228101   6.220   6.884   2.369 -0.1147 -2.2959 -0.6883
 2204TIP3   OH228102   4.553   2.541  12.823 -0.1622 -0.4900 -0.1342
 2204TIP3    H128103   4.540   2.463  12.876 -0.3048  0.3953  1.1750
 2204TIP3    H228104   4.569   2.611  12.886  0.2693  0.4899 -1.2879
 2205TIP3   OH228105   5.593   3.819   9.711 -0.2120  0.1279  0.2829
 2205TIP3    H128106   5.641   3.788   9.788  0.5254  1.1127  0.2456
 2205TIP3    H228107   5.572   3.910   9.732 -0.7950  0.1347 -0.3169
 2206TIP3   OH228108   4.068   4.848   0.733  0.2642 -0.3049 -0.1131
 2206TIP3    H128109   4.162   4.836   0.716  0.2070  1.0887 -1.6720
 2206TIP3    H228110   4.061   4.937   0.767 -0.6582  0.4315 -2.0559
 2207TIP3   OH228111   5.108   1.194   3.789  0.1520  0.4073  0.1359
 2207TIP3    H128112   5.053   1.170   3.714  0.5341 -2.3079  0.6291
 2207TIP3    H228113   5.197   1.193   3.754  0.2501  0.1072  0.3881
 2208TIP3   OH228114   4.132   4.341  11.253  0.3414 -0.1527  0.9830
 2208TIP3    H128115   4.116   4.336  11.347  0.2535  0.5822  1.0107
 2208TIP3    H228116   4.045   4.342  11.213  0.3821 -1.0572  0.8544
 2209TIP3   OH228117   1.116   4.764  11.534 -0.0488  0.3113  0.1430
 2209TIP3    H128118   1.160   4.767  11.449  0.8190  1.5028  0.6082
 2209TIP3    H228119   1.057   4.688  11.529 -0.1034  0.4462 -1.5538
 2210TIP3   OH228120   6.796   1.409   1.577 -0.0634  0.4788  0.2989
 2210TIP3    H128121   6.833   1.404   1.666  2.4424 -2.5069 -0.7332
 2210TIP3    H228122   6.870   1.432   1.522 -1.0088 -0.0894 -1.2635
 2211TIP3   OH228123   4.643   4.544  12.017  0.2500  0.3245  0.2818
 2211TIP3    H128124   4.688   4.592  11.948  0.9312  0.2306  0.6503
 2211TIP3    H228125   4.711   4.525  12.082 -0.4705  0.8153  1.2018
 2212TIP3   OH228126   6.498   0.937   9.740 -0.3859 -0.2386 -0.2210
 2212TIP3    H128127   6.590   0.917   9.757  0.0071  0.1792 -1.7009
 2212TIP3    H228128   6.492   1.032   9.748 -0.6201 -0.2344 -0.4211
 2213TIP3   OH228129   4.831   5.784   5.911  0.2676  0.5540 -0.3137
 2213TIP3    H128130   4.758   5.823   5.863 -0.2575 -1.9122 -1.7220
 2213TIP3    H228131   4.789   5.733   5.980  0.7911  0.8469  0.2238
 2214TIP3   OH228132   3.640   5.367   1.496 -0.0095  0.7678  0.1173
 2214TIP3    H128133   3.596   5.380   1.580 -0.1400 -2.5167  0.7060
 2214TIP3    H228134   3.583   5.307   1.448  1.2508  0.6669 -1.3281
 2215TIP3   OH228135   2.136   5.221  15.203  0.7490  0.3540  0.4431
 2215TIP3    H128136   2.141   5.308  15.163 -0.5158  0.2616  0.0390
 2215TIP3    H228137   2.073   5.231  15.274  1.5799  0.0673  1.2371
 2216TIP3   OH228138   4.981   3.460  12.983  0.5956  0.7550 -0.2504
 2216TIP3    H128139   5.065   3.506  12.981 -0.2744  2.4395 -1.9275
 2216TIP3    H228140   4.969   3.429  12.893 -0.7113  0.8138 -0.1126
 2217TIP3   OH228141   1.039   3.032   0.560  0.9129  0.4241  0.3054
 2217TIP3    H128142   1.029   3.091   0.635  1.0796  0.3879  0.3570
 2217TIP3    H228143   1.133   3.032   0.542  0.7459  1.3183 -0.6227
 2218TIP3   OH228144   2.528   3.286   9.827  0.0297 -1.3201  0.4673
 2218TIP3    H128145   2.530   3.319   9.737 -0.6402 -0.5381  0.7197
 2218TIP3    H228146   2.615   3.249   9.841  0.0968 -1.5898 -0.5465
 2219TIP3   OH228147   2.263   5.293   0.647 -0.0500  0.4995  0.0117
 2219TIP3    H128148   2.289   5.345   0.571  0.8745 -0.9342 -0.6994
 2219TIP3    H228149   2.182   5.250   0.621  0.0714  0.2943 -0.0304
 2220TIP3   OH228150   4.225   6.673  14.074 -0.1887  0.1450 -0.6053
 2220TIP3    H128151   4.225   6.580  14.053 -0.8891  0.3828 -1.7047
 2220TIP3    H228152   4.283   6.713  14.009  1.3429  0.3038  0.7862
 2221TIP3   OH228153   6.458   2.504   0.431  0.2466  0.2309  0.4403
 2221TIP3    H128154   6.538   2.528   0.386 -0.7244 -0.4500 -1.7818
 2221TIP3    H228155   6.402   2.582   0.424 -0.1135 -0.0651 -0.0689
 2222TIP3   OH228156   2.471   4.761  10.615  0.0492  0.4512 -0.2709
 2222TIP3    H128157   2.451   4.668  10.625 -0.1290  0.5555  0.3927
 2222TIP3    H228158   2.516   4.767  10.531 -1.5243  0.0300 -1.1698
 2223TIP3   OH228159   6.217   2.410  10.961 -0.1086 -0.5830  0.0608
 2223TIP3    H128160   6.277   2.423  11.033  0.3881  0.2670 -0.4916
 2223TIP3    H228161   6.267   2.359  10.897  0.1753  0.4705 -0.5717
 2224TIP3   OH228162   5.758   4.633  10.790 -0.4710 -0.7560 -0.0366
 2224TIP3    H128163   5.825   4.701  10.786 -1.2150  0.2220  2.1695
 2224TIP3    H228164   5.692   4.661  10.726  0.7606 -1.2495 -1.5668
 2225TIP3   OH228165   2.918   1.257  10.501 -0.5573  0.2289 -0.2434
 2225TIP3    H128166   2.906   1.223  10.413  0.0600  1.5667 -0.8830
 2225TIP3    H228167   2.947   1.182  10.552  0.2440 -0.3324 -1.4688
 2226TIP3   OH228168   4.731   5.164   0.915 -0.3711 -0.2870  0.0595
 2226TIP3    H128169   4.780   5.243   0.938  0.4513 -0.2686 -1.6270
 2226TIP3    H228170   4.757   5.100   0.982  0.0897  0.4247  0.5780
 2227TIP3   OH228171   5.932   6.185  11.216  0.3239 -0.3524  0.7934
 2227TIP3    H128172   6.002   6.235  11.174  0.3509 -0.9660  0.0823
 2227TIP3    H228173   5.921   6.226  11.302 -0.3556  1.5044 -0.1411
 2228TIP3   OH228174   6.623   0.972  10.911  0.1380 -0.2199  0.3190
 2228TIP3    H128175   6.691   0.941  10.851 -2.9626 -1.5811 -2.8409
 2228TIP3    H228176   6.611   0.900  10.972  1.6668  0.1606  1.1090
 2229TIP3   OH228177   6.578   3.547   3.913 -0.2810  0.0050  0.2148
 2229TIP3    H128178   6.582   3.454   3.933  0.8877  0.2323  1.1243
 2229TIP3    H228179   6.571   3.552   3.818 -0.5221 -0.9992  0.1761
 2230TIP3   OH228180   6.542   6.018   5.201 -0.6610 -0.0623 -0.0576
 2230TIP3    H128181   6.505   5.988   5.284  0.2384  0.3479  0.5165
 2230TIP3    H228182   6.525   6.112   5.200  0.5920  0.1948  0.3754
 2231TIP3   OH228183   1.720   1.276   1.051  0.0875 -0.2171  0.5184
 2231TIP3    H128184   1.737   1.266   1.144 -0.6033  1.5300  0.8662
 2231TIP3    H228185   1.770   1.354   1.025 -1.4593  0.6294 -0.0544
 2232TIP3   OH228186   6.328   3.464  10.372 -0.2454  0.3636  0.1063
 2232TIP3    H128187   6.245   3.418  10.356 -0.5917  1.2589 -0.7692
 2232TIP3    H228188   6.313   3.552  10.339  1.2523  0.3710 -0.6061
 2233TIP3   OH228189   4.646   3.100   0.111  0.0782 -0.2310  0.0655
 2233TIP3    H128190   4.738   3.083   0.093 -0.1848 -0.4772 -1.1282
 2233TIP3    H228191   4.630   3.188   0.078 -0.3583 -0.5988 -0.7410
 2234TIP3   OH228192   5.646   4.027  11.605  0.2259  0.0154  0.4570
 2234TIP3    H128193   5.741   4.029  11.598  0.2628  1.4632  0.8714
 2234TIP3    H228194   5.616   3.995  11.520  1.0877 -1.6142  0.7298
 2235TIP3   OH228195   0.239   1.104  11.120 -0.2719 -0.2390 -0.0331
 2235TIP3    H128196   0.248   1.070  11.209  1.6720  2.2004  0.8320
 2235TIP3    H228197   0.193   1.187  11.131 -0.6557 -0.2516 -1.4216
 2236TIP3   OH228198   1.821   4.456  10.296  0.2349  0.1397 -0.4311
 2236TIP3    H128199   1.788   4.391  10.358 -0.7247  0.1927 -0.8815
 2236TIP3    H228200   1.766   4.533  10.311  1.8810  1.1668  0.6871
 2237TIP3   OH228201   0.855   6.546  14.611  0.4205 -0.6566  0.8168
 2237TIP3    H128202   0.946   6.572  14.607  0.0483  0.6236  0.2422
 2237TIP3    H228203   0.816   6.582  14.531 -0.5501 -1.3281  0.9630
 2238TIP3   OH228204   2.612   0.006   2.421  0.6373 -1.1710  0.5949
 2238TIP3    H128205   2.548  -0.021   2.487  0.0424 -1.3484 -0.0397
 2238TIP3    H228206   2.697  -0.018   2.458  0.3732 -0.5731  1.6213
 2239TIP3   OH228207   7.096   2.933   3.275 -0.1855  0.9107  0.3603
 2239TIP3    H128208   7.013   2.965   3.310 -0.9120 -1.5928  1.1925
 2239TIP3    H228209   7.151   2.920   3.352  0.8320  2.0908 -0.1435
 2240TIP3   OH228210   5.910   1.694  12.047 -0.1515 -0.2342  0.0860
 2240TIP3    H128211   5.840   1.657  12.100 -1.9659  1.3902 -1.0382
 2240TIP3    H228212   5.907   1.645  11.965 -1.0599  0.8060 -0.5430
 2241TIP3   OH228213   3.544   5.816  13.987  0.3320  0.5720 -0.4199
 2241TIP3    H128214   3.544   5.738  14.042 -1.0579 -0.3248 -1.5983
 2241TIP3    H228215   3.562   5.888  14.047  2.6438 -0.7178  0.5442
 2242TIP3   OH228216   1.728   5.192  14.344 -0.6932 -0.4510 -0.0823
 2242TIP3    H128217   1.726   5.152  14.431 -1.5558  0.2568  0.2444
 2242TIP3    H228218   1.812   5.237  14.340 -0.8862 -0.0038  0.6265
 2243TIP3   OH228219   5.345   5.243  15.735  0.2187  0.5118 -0.1613
 2243TIP3    H128220   5.271   5.194  15.771  0.9169 -0.0857  0.5137
 2243TIP3    H228221   5.321   5.259  15.644 -0.3002 -0.5779 -0.2422
 2244TIP3   OH228222   4.032   0.936  12.087 -0.3231 -0.0359  0.0990
 2244TIP3    H128223   4.010   0.903  12.000  0.4120  2.0501 -0.9304
 2244TIP3    H228224   4.122   0.969  12.079  0.1064 -0.6060  1.9081
 2245TIP3   OH228225   4.384   6.954  10.106  0.6730  0.6010  0.1868
 2245TIP3    H128226   4.449   6.929  10.040  1.3548  2.5907  0.0623
 2245TIP3    H228227   4.306   6.976  10.056 -0.4796 -2.4985  0.3670
 2246TIP3   OH228228   0.392   3.953  11.203  0.6687  0.1711 -0.0077
 2246TIP3    H128229   0.319   3.937  11.263  0.4234  0.5033 -0.2178
 2246TIP3    H228230   0.356   3.934  11.116  0.2430  2.1628 -0.3248
 2247TIP3   OH228231   5.975   2.042   9.314  0.4422  0.2681 -0.1735
 2247TIP3    H128232   6.057   2.090   9.304  1.5408 -1.4752 -0.0702
 2247TIP3    H228233   5.952   2.052   9.407 -0.9224  2.9069 -0.7159
 2248TIP3   OH228234   5.429   5.243  14.083 -0.5577 -0.3859  0.1039
 2248TIP3    H128235   5.443   5.280  13.995  0.4675 -0.3105  0.2830
 2248TIP3    H228236   5.378   5.310  14.129 -2.4659 -1.0873 -0.8855
 2249TIP3   OH228237   5.337   4.191  12.565  0.6393 -0.2247 -0.5283
 2249TIP3    H128238   5.304   4.102  12.558 -0.6844  0.2557 -0.6585
 2249TIP3    H228239   5.389   4.192  12.645 -1.5463 -0.4686  0.9531
 2250TIP3   OH228240   2.888   1.345   1.021 -0.1658  0.1426  0.1594
 2250TIP3    H128241   2.969   1.396   1.024  0.7240 -1.2515  1.6265
 2250TIP3    H228242   2.873   1.329   0.928  2.1562 -0.9100 -0.0910
 2251TIP3   OH228243   4.059   0.408  10.550 -0.1925 -0.0249  0.4134
 2251TIP3    H128244   4.013   0.444  10.475  1.2198  1.4204  0.1665
 2251TIP3    H228245   4.059   0.479  10.614  0.2928 -0.5532  1.0157
 2252TIP3   OH228246   4.274   2.551   1.076 -0.5268 -0.0550 -0.1662
 2252TIP3    H128247   4.244   2.619   1.136 -1.2095  0.8522 -1.4886
 2252TIP3    H228248   4.219   2.475   1.097 -0.0343 -0.0999  1.0460
 2253TIP3   OH228249   1.410   1.298  13.342  0.1716  0.0364 -0.2816
 2253TIP3    H128250   1.336   1.358  13.343  0.1090 -0.0407  0.4348
 2253TIP3    H228251   1.457   1.317  13.424  0.0190 -1.0444  0.0740
 2254TIP3   OH228252   6.647   4.955  11.495 -0.2301  0.0140  0.0680
 2254TIP3    H128253   6.559   4.974  11.460 -0.3484 -0.1414  0.2792
 2254TIP3    H228254   6.646   4.861  11.512  0.9703 -0.6006 -2.6934
 2255TIP3   OH228255   2.077   2.079  10.920  0.1443 -0.2309 -0.2162
 2255TIP3    H128256   1.987   2.084  10.889  0.5247 -1.7171 -1.6643
 2255TIP3    H228257   2.071   2.036  11.005 -0.5942  0.8343  0.3050
 2256TIP3   OH228258   0.783   4.674  12.552  0.0195  0.3978  0.3682
 2256TIP3    H128259   0.749   4.626  12.476 -2.2713 -0.6275  1.9092
 2256TIP3    H228260   0.730   4.754  12.556 -1.8047 -0.7772  2.2638
 2257TIP3   OH228261   3.581   4.666   2.547  0.6197 -0.0545 -0.5501
 2257TIP3    H128262   3.510   4.662   2.483 -0.3151  2.2896  0.2318
 2257TIP3    H228263   3.660   4.673   2.494  0.2835 -1.9420 -1.4268
 2258TIP3   OH228264   2.170   6.952  12.781  0.3260 -0.5283  0.2159
 2258TIP3    H128265   2.266   6.950  12.790  0.2369  0.2103  1.6164
 2258TIP3    H228266   2.146   6.860  12.773  1.3232 -0.6470 -2.9386
 2259TIP3   OH228267   5.992   1.669   0.850 -0.5624  0.0904 -0.5538
 2259TIP3    H128268   5.952   1.606   0.911  0.4155  1.0938  1.1836
 2259TIP3    H228269   6.039   1.614   0.787 -1.3796 -0.9650 -0.2760
 2260TIP3   OH228270   0.954   5.215  14.631  0.2119 -0.6677 -0.4963
 2260TIP3    H128271   0.995   5.233  14.715 -2.4974 -1.3215  1.1043
 2260TIP3    H228272   1.023   5.230  14.566  2.2126  0.5240  1.7608
 2261TIP3   OH228273   4.820   5.324  14.988  0.3795 -0.0163  0.1801
 2261TIP3    H128274   4.841   5.414  14.964 -0.1178  0.0643  0.0440
 2261TIP3    H228275   4.870   5.270  14.927  0.6959  0.1643  0.2773
 2262TIP3   OH228276   4.365   0.393  11.178  0.3947  0.1343  0.4108
 2262TIP3    H128277   4.422   0.426  11.247  1.2978  2.1259 -1.1798
 2262TIP3    H228278   4.420   0.331  11.130 -0.3656 -1.5756  1.6473
 2263TIP3   OH228279   2.711   6.235   2.224 -0.5797 -0.4252 -1.0456
 2263TIP3    H128280   2.798   6.266   2.199 -0.9509  1.6451  0.0682
 2263TIP3    H228281   2.727   6.154   2.272  0.6663 -0.4260 -1.4411
 2264TIP3   OH228282   1.417   1.663   0.320 -0.0728 -0.9955 -0.0418
 2264TIP3    H128283   1.452   1.602   0.255 -0.2806 -0.3989 -0.7316
 2264TIP3    H228284   1.341   1.702   0.277 -1.1342 -1.6962  1.1407
 2265TIP3   OH228285   5.708   0.162   0.120 -0.0355 -0.1768 -0.0999
 2265TIP3    H128286   5.756   0.158   0.038  0.5262 -0.4327  0.2341
 2265TIP3    H228287   5.617   0.177   0.095  0.0424 -0.8311 -0.7925
 2266TIP3   OH228288   4.812   3.303  13.464  0.1374  0.0889  0.0651
 2266TIP3    H128289   4.730   3.256  13.480 -1.1725  2.0811 -0.4815
 2266TIP3    H228290   4.813   3.318  13.369  1.4140 -0.3155 -0.0112
 2267TIP3   OH228291   6.014   2.860  14.951 -0.4776  0.0850  0.0299
 2267TIP3    H128292   6.039   2.769  14.935 -0.6122 -0.0374  0.4999
 2267TIP3    H228293   6.040   2.906  14.872 -0.5246 -0.3870 -0.2639
 2268TIP3   OH228294   3.471   3.097   0.880  0.0687  1.2144  0.3822
 2268TIP3    H128295   3.514   3.134   0.957  0.9943 -0.1609  0.5521
 2268TIP3    H228296   3.394   3.052   0.915  0.1124  1.1645  0.4135
 2269TIP3   OH228297   4.075   0.136  13.096  0.1122 -0.1851  0.0234
 2269TIP3    H128298   3.984   0.118  13.116 -0.0836  1.5838  0.8931
 2269TIP3    H228299   4.091   0.224  13.129  2.1114 -0.3933 -0.2102
 2270TIP3   OH228300   4.957   6.567  14.417  0.2410 -0.1776  0.4981
 2270TIP3    H128301   4.976   6.495  14.356 -0.6910 -1.0245  1.1763
 2270TIP3    H228302   4.887   6.616  14.373 -0.8254 -1.1127  1.1017
 2271TIP3   OH228303   0.593   0.479  12.497 -0.0315  0.1954  0.2519
 2271TIP3    H128304   0.603   0.430  12.579 -1.6408 -1.6608 -0.5580
 2271TIP3    H228305   0.562   0.565  12.525 -0.2562 -0.2956  1.6253
 2272TIP3   OH228306   5.835   5.417  12.190  0.2785 -0.5251  0.0101
 2272TIP3    H128307   5.822   5.323  12.184  1.2495 -0.6671 -0.1019
 2272TIP3    H228308   5.841   5.435  12.284  1.3186 -0.7693 -0.0006
 2273TIP3   OH228309   3.631   1.258  11.737 -0.5992 -0.1323  0.0733
 2273TIP3    H128310   3.623   1.174  11.783 -0.4043 -1.0521 -1.4666
 2273TIP3    H228311   3.550   1.265  11.686 -0.6314  0.6375  0.2311
 2274TIP3   OH228312   1.340   1.300   4.652  0.4786  0.1469 -0.1147
 2274TIP3    H128313   1.311   1.273   4.565  0.3047 -3.3420  0.8725
 2274TIP3    H228314   1.434   1.282   4.653  0.4296 -0.1214  0.4685
 2275TIP3   OH228315   2.052   2.506  10.415 -0.1802  0.0027  0.4529
 2275TIP3    H128316   2.028   2.493  10.506  0.5155  0.4703  0.7090
 2275TIP3    H228317   1.969   2.497  10.367 -0.5501 -0.2294  1.1216
 2276TIP3   OH228318   2.548   1.226  11.878 -0.0204 -0.3144 -0.3862
 2276TIP3    H128319   2.601   1.241  11.957 -0.1523 -2.1189  0.0972
 2276TIP3    H228320   2.602   1.168  11.824  0.0980  0.9664 -1.6986
 2277TIP3   OH228321   3.178   4.339  11.002  0.1681  0.3205  0.6291
 2277TIP3    H128322   3.264   4.376  10.983  0.0492  0.1084 -0.3999
 2277TIP3    H228323   3.163   4.276  10.932 -1.1306  0.8877  0.3591
 2278TIP3   OH228324   4.046   4.919  13.131  0.4300 -0.1386  0.4629
 2278TIP3    H128325   4.002   4.983  13.187 -0.4817  0.1325 -0.5240
 2278TIP3    H228326   4.139   4.931  13.149  0.1894  0.3464  1.4679
 2279TIP3   OH228327   5.545   3.313  11.334 -0.5987 -0.0345 -0.9173
 2279TIP3    H128328   5.497   3.284  11.257 -0.1576 -1.2342 -0.7649
 2279TIP3    H228329   5.627   3.350  11.300 -1.6792  2.3168 -1.2014
 2280TIP3   OH228330   1.532   1.159  14.966  0.1090  0.1032  0.0118
 2280TIP3    H128331   1.625   1.184  14.973  0.0418  0.6027 -0.8158
 2280TIP3    H228332   1.484   1.240  14.980 -0.4179 -0.6794  4.2057
 2281TIP3   OH228333   5.566   3.089  12.090 -0.1809  0.3796 -0.1418
 2281TIP3    H128334   5.559   3.077  12.184 -0.4060 -0.6773 -0.2762
 2281TIP3    H228335   5.607   3.175  12.079 -1.3268  1.0824  0.8915
 2282TIP3   OH228336   1.728   1.737  14.946 -0.2176  0.0544 -0.0440
 2282TIP3    H128337   1.760   1.669  14.886 -0.5094 -0.4614  0.3683
 2282TIP3    H228338   1.768   1.715  15.030  2.1200  2.1560 -0.5113
 2283TIP3   OH228339   3.764   3.048  13.646  0.0128  0.6380  0.5679
 2283TIP3    H128340   3.696   3.115  13.646 -1.4024 -0.7125  0.4650
 2283TIP3    H228341   3.837   3.086  13.694 -1.2571  1.7439  1.6858
 2284TIP3   OH228342   5.402   5.146  10.204 -0.1197 -0.3679  0.4044
 2284TIP3    H128343   5.427   5.233  10.171  0.3466  0.2604  2.2816
 2284TIP3    H228344   5.318   5.128  10.161  0.6023  0.2096 -1.3479
 2285TIP3   OH228345   1.294   5.385   9.742 -0.4707 -0.4570 -0.0199
 2285TIP3    H128346   1.328   5.379   9.831 -1.8394  0.3766  0.5892
 2285TIP3    H228347   1.200   5.367   9.751 -0.7181  0.1390 -1.2250
 2286TIP3   OH228348   2.175   3.571   2.725 -0.3145 -0.0096 -0.1185
 2286TIP3    H128349   2.260   3.586   2.768  0.2792 -0.7724 -0.9901
 2286TIP3    H228350   2.151   3.657   2.690 -1.0621  0.7562  2.1076
 2287TIP3   OH228351   3.750   4.407  15.432 -0.6265 -0.2234  0.1700
 2287TIP3    H128352   3.759   4.325  15.384  0.6098 -0.0906  0.1370
 2287TIP3    H228353   3.668   4.445  15.400 -0.0279 -0.3127 -1.5767
 2288TIP3   OH228354   5.688   2.635  13.339 -0.0506  0.0071 -0.4496
 2288TIP3    H128355   5.755   2.628  13.407  1.6116 -2.5639 -2.1512
 2288TIP3    H228356   5.620   2.691  13.377  2.5355  1.8617  1.7834
 2289TIP3   OH228357   3.979   2.778   2.645  0.0423 -0.3589 -0.3786
 2289TIP3    H128358   3.970   2.693   2.602  1.1117 -0.6428 -0.0795
 2289TIP3    H228359   4.067   2.808   2.619 -0.6009  1.0081 -1.0939
 2290TIP3   OH228360   0.307   0.278  12.320  0.3533  0.0363  0.6189
 2290TIP3    H128361   0.294   0.360  12.271 -1.6892 -0.1226  0.8152
 2290TIP3    H228362   0.355   0.304  12.398 -0.4057  1.0800  0.7547
 2291TIP3   OH228363   1.412   1.316   3.411  0.5381 -0.4527  0.1449
 2291TIP3    H128364   1.399   1.222   3.425  0.4121 -0.5867 -0.7973
 2291TIP3    H228365   1.434   1.350   3.497  2.7603 -1.7020  0.1385
 2292TIP3   OH228366   2.231   2.163  13.294 -0.1806 -0.1726  0.0360
 2292TIP3    H128367   2.197   2.119  13.216  3.0033 -2.6592 -0.1367
 2292TIP3    H228368   2.325   2.174  13.277  0.1003  1.9817  2.3432
 2293TIP3   OH228369   6.747   3.218  11.216  0.3404 -0.2273 -0.4174
 2293TIP3    H128370   6.769   3.305  11.183 -1.0226 -0.3525 -1.7547
 2293TIP3    H228371   6.658   3.228  11.251 -0.0242 -1.1814 -1.0453
 2294TIP3   OH228372   0.813   7.011  11.453  0.3303 -0.0617 -0.3284
 2294TIP3    H128373   0.821   6.945  11.384 -0.2018  0.0494 -0.5008
 2294TIP3    H228374   0.902   7.021  11.487  0.6918  0.2421 -1.3340
 2295TIP3   OH228375   1.573   1.710  15.620  0.0962 -0.1847  0.6937
 2295TIP3    H128376   1.577   1.757  15.703 -1.9056  1.0778  0.1678
 2295TIP3    H228377   1.588   1.618  15.643 -0.3867  0.1336  2.4468
 2296TIP3   OH228378   6.805   6.629  15.672 -0.2809  0.6127 -0.0805
 2296TIP3    H128379   6.757   6.708  15.650  0.3818  0.4316 -2.4468
 2296TIP3    H228380   6.749   6.557  15.643  1.2756  0.4014 -2.9292
 2297TIP3   OH228381   2.340   0.264  12.881 -0.5776  0.0183  0.2561
 2297TIP3    H128382   2.416   0.207  12.887 -0.3494  0.3868  1.0306
 2297TIP3    H228383   2.309   0.272  12.971 -1.7651 -0.4319 -0.1018
 2298TIP3   OH228384   4.642   4.468  12.959 -0.0640 -0.1215  0.2705
 2298TIP3    H128385   4.546   4.462  12.965 -0.0030 -0.1971  1.2260
 2298TIP3    H228386   4.663   4.554  12.993  0.2247 -0.1545  0.1814
 2299TIP3   OH228387   0.652   3.102   3.642 -0.9059 -0.2657  0.3187
 2299TIP3    H128388   0.630   3.010   3.628  2.7642 -1.5270  1.5302
 2299TIP3    H228389   0.623   3.146   3.562 -5.7767 -1.6623  1.0103
 2300TIP3   OH228390   5.452   4.018   1.767 -0.4555 -0.1575 -0.4360
 2300TIP3    H128391   5.438   4.032   1.860  1.3197 -1.0397  0.0067
 2300TIP3    H228392   5.542   4.048   1.752 -0.0872 -1.7035 -1.4806
 2301TIP3   OH228393   6.431   6.273  14.919 -0.3013 -0.4344  0.5157
 2301TIP3    H128394   6.464   6.333  14.852  1.7836 -0.1737  1.7159
 2301TIP3    H228395   6.395   6.199  14.868  0.7893 -0.0371 -0.9031
 2302TIP3   OH228396   6.655   1.622   2.364  0.4749 -0.8195  0.4876
 2302TIP3    H128397   6.652   1.614   2.459  0.4338 -1.5786  0.4222
 2302TIP3    H228398   6.579   1.677   2.342 -0.1469 -1.5379  0.8008
 2303TIP3   OH228399   5.228   7.149  11.337 -0.3070  0.6157  0.1169
 2303TIP3    H128400   5.213   7.105  11.421  1.6233  1.0929  0.7688
 2303TIP3    H228401   5.288   7.090  11.290 -0.7012  0.7571 -0.5730
 2304TIP3   OH228402   1.590   3.657  13.651 -0.2453 -0.6160  0.0759
 2304TIP3    H128403   1.680   3.626  13.646 -0.2676 -0.7709  0.6329
 2304TIP3    H228404   1.569   3.657  13.744 -0.3145  0.8640  0.0801
 2305TIP3   OH228405   7.003   2.248  10.917 -0.6287 -0.0568  0.2211
 2305TIP3    H128406   7.043   2.175  10.870  0.5881  1.4140 -1.1610
 2305TIP3    H228407   7.038   2.326  10.874  1.3169  1.4948  4.1784
 2306TIP3   OH228408   4.505   3.933  14.555  0.2072  0.1093 -0.1699
 2306TIP3    H128409   4.495   3.939  14.460  1.1949  0.9371 -0.2335
 2306TIP3    H228410   4.597   3.954  14.571  0.1423 -0.4188  0.9395
 2307TIP3   OH228411   1.561   5.305  10.543  0.2879 -0.2110  0.1302
 2307TIP3    H128412   1.647   5.277  10.510  0.0244 -1.1759  0.2130
 2307TIP3    H228413   1.544   5.245  10.616 -0.3854  0.0814  0.2188
 2308TIP3   OH228414   3.391   2.775  15.111  0.0677 -0.2923 -0.2977
 2308TIP3    H128415   3.353   2.821  15.185 -1.2691 -0.3645 -0.9118
 2308TIP3    H228416   3.319   2.723  15.075  0.9471 -1.0359 -1.0354
 2309TIP3   OH228417   1.804   6.590  15.282 -0.2927  0.0170 -0.0139
 2309TIP3    H128418   1.760   6.529  15.341  0.5735  0.3689  1.0276
 2309TIP3    H228419   1.865   6.638  15.338  0.1570  0.7555 -1.0996
 2310TIP3   OH228420   6.097   5.072  14.900 -0.2549  0.2150  0.0013
 2310TIP3    H128421   6.004   5.057  14.882 -0.4102  1.7591 -0.5756
 2310TIP3    H228422   6.132   4.984  14.915 -1.5755 -0.4957 -0.8489
 2311TIP3   OH228423   4.288   0.143   1.795  0.4679 -0.1373  0.4398
 2311TIP3    H128424   4.298   0.238   1.805  0.6144  0.0219 -0.9419
 2311TIP3    H228425   4.290   0.109   1.884  1.3362  1.0710  0.9169
 2312TIP3   OH228426   6.058   5.699  13.627 -0.2064 -0.5473  0.2541
 2312TIP3    H128427   6.088   5.635  13.562 -0.9779  0.5630 -1.2427
 2312TIP3    H228428   5.966   5.676  13.643 -0.4564  0.0949 -0.2104
 2313TIP3   OH228429   5.027   0.864   9.361 -0.3543  0.5306  0.3612
 2313TIP3    H128430   5.009   0.781   9.405  0.0026 -0.1603 -0.7455
 2313TIP3    H228431   5.048   0.839   9.271  1.3962  1.6852  0.4074
 2314TIP3   OH228432   0.539   3.305  11.305 -0.9520  0.1145  0.0633
 2314TIP3    H128433   0.624   3.345  11.288 -0.9264  1.1291  2.1989
 2314TIP3    H228434   0.491   3.314  11.223  0.4201  1.0165 -0.6846
 2315TIP3   OH228435   2.100   2.012  13.116 -0.1827  0.5338  1.0261
 2315TIP3    H128436   2.010   1.981  13.100 -0.3687  0.6134  1.8498
 2315TIP3    H228437   2.156   1.944  13.078 -0.5938 -0.2068  1.7054
 2316TIP3   OH228438   4.626   0.815  14.816  0.1660 -0.1329  0.1137
 2316TIP3    H128439   4.684   0.823  14.892  1.9914  0.8519 -1.3063
 2316TIP3    H228440   4.678   0.769  14.751 -1.6177 -1.5959 -0.3420
 2317TIP3   OH228441   5.166   4.290  11.998  0.0994  0.3822 -0.1244
 2317TIP3    H128442   5.243   4.234  12.001 -0.1645  0.0486  0.5655
 2317TIP3    H228443   5.193   4.365  11.945  0.4789 -0.3532 -0.9989
 2318TIP3   OH228444   4.163   2.979  13.885 -0.3428  0.0994 -0.0035
 2318TIP3    H128445   4.136   2.953  13.973  0.7675  1.4191  0.7649
 2318TIP3    H228446   4.117   3.061  13.868 -0.2363  0.0651 -0.4984
 2319TIP3   OH228447   1.938   5.029  13.689  0.5246 -0.4865 -0.0621
 2319TIP3    H128448   2.029   5.059  13.698  0.7029 -0.3896 -1.8899
 2319TIP3    H228449   1.913   5.056  13.601 -1.0627 -1.1260  0.1743
 2320TIP3   OH228450   4.465   0.650   9.647  0.3705 -0.1074  0.1118
 2320TIP3    H128451   4.414   0.609   9.577  1.4994  0.6050 -1.1619
 2320TIP3    H228452   4.435   0.741   9.648  1.1407  0.1551 -0.2073
 2321TIP3   OH228453   5.427   4.805  12.514  0.1215  0.5880 -0.1488
 2321TIP3    H128454   5.369   4.756  12.573  2.3076  0.1728  1.8324
 2321TIP3    H228455   5.380   4.887  12.497 -1.0119  0.3259  1.4359
 2322TIP3   OH228456   3.581   5.919  10.692  0.0300 -0.1286  0.1434
 2322TIP3    H128457   3.581   5.902  10.598  0.7808  1.7026 -0.2332
 2322TIP3    H228458   3.519   5.992  10.703  0.2844 -0.0279  1.0089
 2323TIP3   OH228459   6.980   5.420  12.319  0.5112 -0.4083 -0.1374
 2323TIP3    H128460   7.037   5.345  12.330 -0.7858 -1.1441  2.2271
 2323TIP3    H228461   7.023   5.491  12.366  0.2587 -0.5313  0.2851
 2324TIP3   OH228462   7.012   2.362  10.230  0.4071  0.0998  0.1907
 2324TIP3    H128463   6.970   2.355  10.145  1.7927 -2.8336 -0.3961
 2324TIP3    H228464   7.068   2.439  10.224 -0.2874  0.5165 -1.1904
 2325TIP3   OH228465   6.732   2.203   0.177  0.0130 -0.4940  0.2800
 2325TIP3    H128466   6.688   2.128   0.136 -0.4402 -1.2844  2.1381
 2325TIP3    H228467   6.665   2.271   0.180 -0.9074 -1.4252  2.3549
 2326TIP3   OH228468   2.714   6.456   1.890 -0.1783  0.5909  0.2756
 2326TIP3    H128469   2.625   6.478   1.864  0.3276  3.0174  0.4096
 2326TIP3    H228470   2.730   6.370   1.851 -1.8290  1.0497 -1.5581
 2327TIP3   OH228471   0.131   4.782   0.885  0.2817 -0.2169  0.2184
 2327TIP3    H128472   0.185   4.860   0.897 -1.2315  0.8675  0.2295
 2327TIP3    H228473   0.096   4.791   0.796 -0.9719 -0.1693  0.6952
 2328TIP3   OH228474   0.873   3.752   2.164  0.4919 -0.7889 -0.2947
 2328TIP3    H128475   0.954   3.716   2.202  0.3760 -0.9766 -0.2208
 2328TIP3    H228476   0.842   3.683   2.105  0.0751 -0.9657  0.1229
 2329TIP3   OH228477   2.618   1.450  15.492 -0.0783  0.4199 -0.3483
 2329TIP3    H128478   2.574   1.533  15.478 -0.7739  0.2984  0.9882
 2329TIP3    H228479   2.612   1.405  15.407  0.9091  1.9730 -1.2803
 2330TIP3   OH228480   4.025   7.122  12.373 -0.8791 -0.4000 -0.1086
 2330TIP3    H128481   4.108   7.150  12.335  0.8268  0.0639  3.5031
 2330TIP3    H228482   4.028   7.026  12.368 -0.3836 -0.3666 -0.5210
 2331TIP3   OH228483   6.178   0.412  13.140  0.0512  0.3302  0.2090
 2331TIP3    H128484   6.258   0.428  13.090  0.0322  0.5907  0.2629
 2331TIP3    H228485   6.131   0.346  13.089  0.3432  0.1070  0.2263
 2332TIP3   OH228486   0.345   1.924  15.114 -0.2222 -0.6146 -0.8201
 2332TIP3    H128487   0.438   1.907  15.127 -0.3485  0.1210  1.4337
 2332TIP3    H228488   0.337   2.019  15.118 -1.1833 -0.7097  0.1260
 2333TIP3   OH228489   5.384   1.868  14.325 -0.0127  0.2975  0.4940
 2333TIP3    H128490   5.377   1.962  14.310 -2.2110  0.1929  0.5190
 2333TIP3    H228491   5.338   1.854  14.408  1.1996 -0.6936  1.0310
 2334TIP3   OH228492   3.913   0.708   0.554  0.0571 -0.3432 -0.8867
 2334TIP3    H128493   3.940   0.800   0.544  1.0781 -0.6088 -0.6716
 2334TIP3    H228494   3.992   0.658   0.536  0.2268 -1.0831  1.6447
 2335TIP3   OH228495   6.464   0.421  12.205  0.1273  0.4596  0.5667
 2335TIP3    H128496   6.440   0.435  12.297  0.1354  1.9458  0.3633
 2335TIP3    H228497   6.513   0.500  12.181 -0.4676  0.3984 -0.9088
 2336TIP3   OH228498   5.618   5.241   5.480 -0.0527 -0.0994  1.1771
 2336TIP3    H128499   5.558   5.199   5.542 -1.5634  1.2171  0.6738
 2336TIP3    H228500   5.596   5.334   5.486 -0.6418  0.0263 -1.7351
 2337TIP3   OH228501   1.019   3.205   9.401 -0.9249  0.0033 -0.2130
 2337TIP3    H128502   0.952   3.248   9.348  0.5201  0.5475 -1.7245
 2337TIP3    H228503   0.987   3.116   9.412 -1.7839  0.1726 -1.1289
 2338TIP3   OH228504   5.344   5.493  13.557 -0.8950 -0.1986 -0.3289
 2338TIP3    H128505   5.314   5.404  13.541 -1.7703  0.1150 -0.4559
 2338TIP3    H228506   5.388   5.489  13.642  1.2143 -1.2527 -1.3787
 2339TIP3   OH228507   3.325   4.475   1.525 -0.2452 -0.0325 -0.3239
 2339TIP3    H128508   3.377   4.547   1.560 -1.7940  1.5270 -1.0563
 2339TIP3    H228509   3.292   4.429   1.602 -0.2542  0.8324  0.2007
 2340TIP3   OH228510   0.442   1.178  10.351  0.0010  0.5603 -0.3501
 2340TIP3    H128511   0.490   1.162  10.270 -0.6651  0.0899 -0.6675
 2340TIP3    H228512   0.375   1.110  10.352  1.5306 -1.0477  1.8449
 2341TIP3   OH228513   5.252   1.001  12.600 -0.0595 -0.4661 -0.4064
 2341TIP3    H128514   5.167   1.038  12.576 -0.3633 -0.0153  1.2699
 2341TIP3    H228515   5.314   1.071  12.581 -0.1769 -0.4344 -0.6840
 2342TIP3   OH228516   4.022   6.951  10.825  0.0139  0.2643 -0.2697
 2342TIP3    H128517   4.014   6.892  10.750  0.4335  2.3323 -2.0363
 2342TIP3    H228518   4.114   6.943  10.852 -0.3740 -1.2463  0.7749
 2343TIP3   OH228519   4.490   6.962  13.610 -0.0017  0.6977 -0.0848
 2343TIP3    H128520   4.419   6.968  13.546  0.5561  0.5763 -0.7282
 2343TIP3    H228521   4.552   7.030  13.584 -0.2825  1.3806  0.9940
 2344TIP3   OH228522   5.013   2.740   9.733  0.0353 -0.3339  0.4785
 2344TIP3    H128523   5.040   2.714   9.645 -1.1452 -1.4643  0.4222
 2344TIP3    H228524   4.964   2.665   9.767  2.2385 -0.8301  2.9582
 2345TIP3   OH228525   1.455   0.435  14.379  0.3333  0.6792 -0.0353
 2345TIP3    H128526   1.534   0.401  14.338  0.3927  1.1030 -0.2836
 2345TIP3    H228527   1.487   0.481  14.457  0.2940  0.5003  0.0847
 2346TIP3   OH228528   1.920   5.047  15.400 -0.0117 -0.3553 -0.1262
 2346TIP3    H128529   1.912   4.996  15.480  0.6034 -2.4475 -1.3351
 2346TIP3    H228530   1.920   5.138  15.430 -1.3351 -0.9989  2.0932
 2347TIP3   OH228531   3.017   3.445  14.376 -0.3378  0.4808  0.3911
 2347TIP3    H128532   3.064   3.497  14.312  0.3909 -2.0835 -1.2941
 2347TIP3    H228533   2.934   3.424  14.333  0.2124 -1.3709  0.1726
 2348TIP3   OH228534   3.811   2.622  10.477 -0.1096  0.5835  0.0188
 2348TIP3    H128535   3.789   2.646  10.567 -1.6856 -1.4190  0.2404
 2348TIP3    H228536   3.855   2.699  10.442  1.6876  1.0183  2.8546
 2349TIP3   OH228537   0.023   2.030  12.637  0.1660 -0.5040 -0.2231
 2349TIP3    H128538   0.028   2.041  12.732  0.4490 -0.5189 -0.2357
 2349TIP3    H228539  -0.066   2.057  12.615  0.2250 -0.1160 -0.0023
 2350TIP3   OH228540   0.789   4.317  11.272  0.0505  0.1870 -0.1108
 2350TIP3    H128541   0.730   4.291  11.201 -1.0663  0.3473  0.7273
 2350TIP3    H228542   0.730   4.337  11.345  1.2196 -2.6340  1.7890
 2351TIP3   OH228543   4.244   5.668  13.394 -0.1348  0.2281 -0.2648
 2351TIP3    H128544   4.199   5.599  13.443  0.2897 -0.4716 -0.8278
 2351TIP3    H228545   4.174   5.718  13.352 -0.4903  0.6993  0.8596
 2352TIP3   OH228546   6.861   3.397   9.883 -0.2333  0.2524 -0.4741
 2352TIP3    H128547   6.903   3.478   9.913  3.0795 -1.0537 -1.1675
 2352TIP3    H228548   6.860   3.405   9.788 -0.3855 -0.2757 -0.5195
 2353TIP3   OH228549   3.258   1.224  12.171 -0.3032  0.0035 -0.0006
 2353TIP3    H128550   3.249   1.306  12.220 -1.2419 -0.7721  1.2118
 2353TIP3    H228551   3.341   1.187  12.202 -0.0155  0.3635 -0.3409
 2354TIP3   OH228552   1.481   7.100  13.955 -0.3946 -0.1781 -0.3704
 2354TIP3    H128553   1.477   7.051  14.037 -0.9234  0.7784  0.1883
 2354TIP3    H228554   1.404   7.073  13.906 -0.4210 -0.2666 -0.2787
 2355TIP3   OH228555   5.123   6.689  15.106 -0.7699  0.1070 -0.3161
 2355TIP3    H128556   5.196   6.714  15.161  0.1008 -1.8267 -0.5132
 2355TIP3    H228557   5.047   6.733  15.144  0.2241  0.8079  0.9007
 2356TIP3   OH228558   0.915   4.608   1.131 -0.3211 -0.0124  0.1058
 2356TIP3    H128559   0.872   4.532   1.092  1.3735 -0.9554  0.0235
 2356TIP3    H228560   0.881   4.612   1.221  0.5779 -1.7168  0.5596
 2357TIP3   OH228561   0.660   0.733  12.791  0.6756 -0.3227 -0.2250
 2357TIP3    H128562   0.735   0.792  12.789  0.4867 -0.0655  0.2279
 2357TIP3    H228563   0.697   0.647  12.772  0.9381 -0.0509 -1.0158
 2358TIP3   OH228564   1.132   0.675   9.934 -0.1244 -0.3000  0.0345
 2358TIP3    H128565   1.127   0.749   9.995  0.8606 -1.5142  1.6930
 2358TIP3    H228566   1.223   0.645   9.941  0.2804  0.0299 -2.7615
 2359TIP3   OH228567   6.512   0.782  14.039  0.0736  0.2425  0.0695
 2359TIP3    H128568   6.559   0.771  13.957 -0.3517  1.3212 -0.3323
 2359TIP3    H228569   6.579   0.774  14.107  0.2022 -2.2162 -0.2522
 2360TIP3   OH228570   0.933   0.335   9.710 -0.0505 -0.2631  0.4546
 2360TIP3    H128571   0.973   0.314   9.794 -0.6281  0.0164  0.8068
 2360TIP3    H228572   0.967   0.422   9.688  1.7021 -1.1606 -0.6088
 2361TIP3   OH228573   1.393   6.786  10.148 -0.6857 -0.2738 -0.0599
 2361TIP3    H128574   1.356   6.702  10.175 -1.8215  0.6054  1.2304
 2361TIP3    H228575   1.488   6.774  10.156 -0.8638 -1.2022  0.8796
 2362TIP3   OH228576   7.111   6.936   1.345  0.3889 -0.3026 -0.8030
 2362TIP3    H128577   7.191   6.955   1.395  1.0932 -0.0510 -1.9810
 2362TIP3    H228578   7.139   6.937   1.254 -1.1956  1.0233 -1.3278
 2363TIP3   OH228579   0.330   5.748  13.427 -0.5464 -0.0241 -0.1066
 2363TIP3    H128580   0.364   5.807  13.360  1.0413 -1.1231 -0.3369
 2363TIP3    H228581   0.405   5.693  13.450 -0.7186  0.9506  3.3168
 2364TIP3   OH228582   6.090   4.463  14.446 -0.5203  0.5398 -0.0081
 2364TIP3    H128583   6.115   4.371  14.459  1.0113  0.6353 -1.8804
 2364TIP3    H228584   6.170   4.506  14.417 -1.7978  1.8957 -1.7559
 2365TIP3   OH228585   0.742   6.121  13.769  0.1550 -0.1133  0.6178
 2365TIP3    H128586   0.708   6.032  13.778  0.7722 -0.4493 -0.2326
 2365TIP3    H228587   0.832   6.116  13.799  1.8995 -1.0077 -3.9036
 2366TIP3   OH228588   6.015   6.546  11.306  0.3968  0.1516  0.0062
 2366TIP3    H128589   6.104   6.579  11.314 -0.0508  1.0497  1.8255
 2366TIP3    H228590   5.963   6.602  11.364 -1.0455 -1.4746  0.3785
 2367TIP3   OH228591   6.275   1.708   5.241 -0.2040 -0.1190 -0.3361
 2367TIP3    H128592   6.229   1.791   5.229  0.0934 -0.0427 -1.0455
 2367TIP3    H228593   6.311   1.712   5.329  0.4843  0.8630 -0.6385
 2368TIP3   OH228594   3.451   6.894  13.335  0.9179  0.3770  0.2373
 2368TIP3    H128595   3.375   6.837  13.322  0.3803  1.0671  0.3193
 2368TIP3    H228596   3.419   6.963  13.393  1.2089  1.4418 -0.8414
 2369TIP3   OH228597   3.191   4.289  11.724  0.5619 -0.2358 -0.3037
 2369TIP3    H128598   3.160   4.257  11.808 -1.4012 -0.6131 -1.1185
 2369TIP3    H228599   3.264   4.347  11.745 -0.3809  0.2776  1.6997
 2370TIP3   OH228600   2.009   3.713   0.749  0.0992  0.3812  0.2636
 2370TIP3    H128601   2.021   3.793   0.800  0.6723  0.8199 -0.5470
 2370TIP3    H228602   1.916   3.692   0.760  0.3335  0.0795  2.0178
 2371TIP3   OH228603   3.815   2.405  11.779  0.2913  0.1804 -0.1530
 2371TIP3    H128604   3.834   2.387  11.687  0.9484 -2.7712  0.4507
 2371TIP3    H228605   3.724   2.376  11.791  0.2043  0.5605  0.1069
 2372TIP3   OH228606   1.099   2.750  10.198  0.3821 -0.3035 -0.2737
 2372TIP3    H128607   1.139   2.683  10.143 -1.8990 -0.7692 -1.4597
 2372TIP3    H228608   1.048   2.702  10.263 -0.2384  0.2766 -0.3210
 2373TIP3   OH228609   4.427   6.536  13.828  0.2707  0.4761  0.1663
 2373TIP3    H128610   4.355   6.558  13.768 -0.0072 -0.2541  0.2261
 2373TIP3    H228611   4.429   6.440  13.830  1.4136  0.4778 -0.0318
 2374TIP3   OH228612   5.388   1.649   0.193  0.0895 -0.6790  0.0223
 2374TIP3    H128613   5.358   1.740   0.199  2.9168  0.4269 -0.8539
 2374TIP3    H228614   5.361   1.620   0.106 -0.7703 -0.6876  0.2825
 2375TIP3   OH228615   5.172   4.776   1.762 -0.2467  0.0189 -0.1125
 2375TIP3    H128616   5.128   4.860   1.775 -1.4002 -0.8298  2.0938
 2375TIP3    H228617   5.243   4.795   1.701 -0.6731  2.5079  0.0490
 2376TIP3   OH228618   6.478   4.191  11.501 -0.3370 -0.7007 -0.6372
 2376TIP3    H128619   6.484   4.115  11.444 -0.9709  0.1595 -1.9035
 2376TIP3    H228620   6.394   4.232  11.478 -0.8325 -0.5419  1.2175
 2377TIP3   OH228621   6.455   4.320  12.127 -0.4259 -0.2452  0.0714
 2377TIP3    H128622   6.445   4.279  12.213  0.1209  2.3474  1.4525
 2377TIP3    H228623   6.366   4.343  12.101 -0.5284 -0.3876  0.2901
 2378TIP3   OH228624   2.406   5.383  11.974  0.3918  0.0666 -0.1383
 2378TIP3    H128625   2.432   5.394  12.065  1.1498 -2.5442  0.0361
 2378TIP3    H228626   2.323   5.430  11.967  0.5482  0.7153  1.7490
 2379TIP3   OH228627   2.646   4.300  11.239  0.6536 -0.4993  0.1208
 2379TIP3    H128628   2.689   4.339  11.315  0.1461 -1.1612  0.7628
 2379TIP3    H228629   2.620   4.375  11.185  0.1292  0.0355  1.0939
 2380TIP3   OH228630   5.146   1.496   0.113 -0.4990 -0.3432  0.3889
 2380TIP3    H128631   5.137   1.407   0.149  3.0015 -0.6667  0.8329
 2380TIP3    H228632   5.142   1.484   0.018 -1.8087 -0.6674  0.4647
 2381TIP3   OH228633   3.257   3.729  13.422 -0.4190 -0.0625  0.1272
 2381TIP3    H128634   3.168   3.756  13.443  0.7481  3.1859  1.4904
 2381TIP3    H228635   3.309   3.754  13.499  2.4332  2.9304 -2.4318
 2382TIP3   OH228636   4.652   3.260  10.798 -0.7639 -0.0810 -0.1538
 2382TIP3    H128637   4.582   3.242  10.861 -1.7368 -0.8345 -1.4081
 2382TIP3    H228638   4.733   3.253  10.850 -1.5767  0.5337  1.2590
 2383TIP3   OH228639   3.745   3.574  15.006  0.0536 -0.6127 -0.6576
 2383TIP3    H128640   3.831   3.612  14.989  0.0551  0.4071  1.3891
 2383TIP3    H228641   3.737   3.503  14.941  2.4662 -0.8177 -0.8092
 2384TIP3   OH228642   5.355   2.761  10.843  0.9098 -0.0036  0.6249
 2384TIP3    H128643   5.298   2.808  10.904 -0.0455 -0.3149 -0.0058
 2384TIP3    H228644   5.439   2.807  10.849  0.5196  0.6497  1.3541
 2385TIP3   OH228645   0.810   0.652  13.410  0.7301  0.1755  0.2267
 2385TIP3    H128646   0.729   0.689  13.375  1.5685  3.7004  1.5366
 2385TIP3    H228647   0.876   0.673  13.343  1.1256  0.4473  0.6973
 2386TIP3   OH228648   5.883   1.825  15.182 -0.0170  0.4622 -0.2446
 2386TIP3    H128649   5.952   1.772  15.221 -1.2093 -1.0492 -0.1136
 2386TIP3    H228650   5.913   1.840  15.092  1.3288  1.4245  0.3267
 2387TIP3   OH228651   6.445   4.809  12.094 -0.2262  0.0184  0.2007
 2387TIP3    H128652   6.397   4.740  12.047 -0.2365 -0.0862  0.3640
 2387TIP3    H228653   6.423   4.889  12.047 -0.3651 -0.0641  0.1240
 2388TIP3   OH228654   3.549   6.144  13.732 -0.0910  0.5266  0.3567
 2388TIP3    H128655   3.528   6.155  13.824 -0.4422  2.8228  0.0718
 2388TIP3    H228656   3.618   6.079  13.730 -0.6108 -0.1364  2.1582
 2389TIP3   OH228657   5.581   1.151  12.387  0.4795  0.2897 -0.2881
 2389TIP3    H128658   5.660   1.203  12.407  1.7020 -2.3570  2.5450
 2389TIP3    H228659   5.512   1.193  12.438  0.5618  1.2587 -0.9430
 2390TIP3   OH228660   3.394   3.330  10.255 -0.1406  0.0043 -0.0552
 2390TIP3    H128661   3.321   3.391  10.261  0.2092  0.4806 -0.5442
 2390TIP3    H228662   3.471   3.386  10.244  0.0417 -0.5450 -1.8282
 2391TIP3   OH228663   5.292   6.060  11.195 -0.2055 -0.2796 -0.2226
 2391TIP3    H128664   5.207   6.049  11.152 -1.4287  0.6662  1.8086
 2391TIP3    H228665   5.275   6.124  11.264  1.6873 -1.5904  1.5558
 2392TIP3   OH228666   4.705   0.970   4.726  0.3509  0.7230 -0.2997
 2392TIP3    H128667   4.788   0.991   4.683  1.3422  0.2955  1.3124
 2392TIP3    H228668   4.716   0.881   4.758  0.4318  1.6367  2.4609
 2393TIP3   OH228669   6.133   1.138  14.907  0.2236 -0.1680  0.6289
 2393TIP3    H128670   6.124   1.191  14.828  0.6743  1.7162  1.7706
 2393TIP3    H228671   6.068   1.068  14.897 -0.2301  0.4417 -1.0579
 2394TIP3   OH228672   5.977   0.587   2.683 -0.7625 -0.2620 -0.2373
 2394TIP3    H128673   5.916   0.545   2.621 -0.9936  0.3805 -0.4564
 2394TIP3    H228674   5.970   0.680   2.663  0.4608 -0.1959 -0.4032
 2395TIP3   OH228675   4.417   3.804  10.647 -0.2220 -0.3800  0.2157
 2395TIP3    H128676   4.441   3.892  10.619 -2.3765  0.6962  1.4325
 2395TIP3    H228677   4.432   3.804  10.742 -0.5761 -1.2018  0.2821
 2396TIP3   OH228678   6.025   2.424  14.195 -0.5193 -0.2769 -0.8186
 2396TIP3    H128679   5.948   2.404  14.142  0.9178  1.6810 -3.9052
 2396TIP3    H228680   6.089   2.357  14.172  0.0643  0.4993 -1.5291
 2397TIP3   OH228681   4.593   2.644  14.330  0.3613  0.0002 -0.0689
 2397TIP3    H128682   4.622   2.724  14.375  0.6533 -0.2554  0.2076
 2397TIP3    H228683   4.644   2.574  14.372  2.4660 -0.0027 -2.4246
 2398TIP3   OH228684   4.850   1.076  10.436  0.0582  0.6357 -0.0669
 2398TIP3    H128685   4.924   1.088  10.496 -0.4222  0.6311  0.5333
 2398TIP3    H228686   4.861   1.145  10.371 -0.6338  2.0478  1.2630
 2399TIP3   OH228687   5.164   1.593   0.445  0.1373 -0.2528  0.0028
 2399TIP3    H128688   5.094   1.582   0.381 -0.4099 -0.3330  0.6025
 2399TIP3    H228689   5.242   1.613   0.393  0.3112 -2.8780 -0.8832
 2400TIP3   OH228690   3.160   1.182  13.635  0.1235  0.6779 -0.2365
 2400TIP3    H128691   3.208   1.254  13.593  1.2450 -0.4494 -0.9407
 2400TIP3    H228692   3.225   1.138  13.689 -0.5551  0.1739  0.1838
 2401TIP3   OH228693   1.129   0.188  15.140  0.0199  0.1953 -0.1885
 2401TIP3    H128694   1.046   0.218  15.178 -1.0040 -1.8839 -0.6392
 2401TIP3    H228695   1.121   0.206  15.047  0.5837  1.0174 -0.0923
 2402TIP3   OH228696   3.441   4.630  14.394 -0.3234  1.2343 -0.1739
 2402TIP3    H128697   3.386   4.553  14.401 -0.4304  1.3764  0.5463
 2402TIP3    H228698   3.514   4.615  14.454  0.4439  1.0453 -1.1134
 2403TIP3   OH228699   1.886   6.067  15.335 -0.0226 -0.0782 -0.5878
 2403TIP3    H128700   1.800   6.097  15.308  0.9993  2.5245 -1.1844
 2403TIP3    H228701   1.890   6.086  15.429 -0.0459 -0.0553 -0.5913
 2404TIP3   OH228702   5.221   4.803   9.927  0.3269 -0.1093  0.5878
 2404TIP3    H128703   5.145   4.827   9.980 -1.2485 -0.7279 -1.2888
 2404TIP3    H228704   5.253   4.885   9.890  0.8066  0.1909  1.6263
 2405TIP3   OH228705   2.557   1.746   2.964  0.4537  0.5245  0.1390
 2405TIP3    H128706   2.603   1.683   2.909  0.7775  1.0635 -0.2167
 2405TIP3    H228707   2.465   1.735   2.943  0.4105 -0.5153  0.8017
 2406TIP3   OH228708   4.523   0.430  11.397  0.1869 -0.0033 -0.0900
 2406TIP3    H128709   4.546   0.469  11.481  0.2754 -1.3299  0.5363
 2406TIP3    H228710   4.505   0.338  11.418  1.0817 -0.5746 -1.6602
 2407TIP3   OH228711   4.446   4.264  10.111 -0.5029  0.3148 -0.3046
 2407TIP3    H128712   4.412   4.176  10.100 -2.5617  0.9113  0.7947
 2407TIP3    H228713   4.404   4.315  10.042  0.5605  0.4900 -0.8433
 2408TIP3   OH228714   1.179   6.597   3.724  0.3567  0.5755 -0.4156
 2408TIP3    H128715   1.221   6.591   3.638  1.5809 -1.2973  0.2483
 2408TIP3    H228716   1.119   6.523   3.727  0.5373  0.4509  0.4322
 2409TIP3   OH228717   6.874   2.964  11.221  0.3066  0.1555  0.5960
 2409TIP3    H128718   6.898   2.924  11.305 -0.9329 -0.8249  0.5128
 2409TIP3    H228719   6.835   3.048  11.244  2.0000  0.9256  0.8371
 2410TIP3   OH228720   1.548   0.742   0.060  0.0551 -0.1216  0.5154
 2410TIP3    H128721   1.474   0.803   0.054  1.6288  1.8336 -0.0797
 2410TIP3    H228722   1.561   0.730   0.154 -1.2504 -0.8201  0.6253
 2411TIP3   OH228723   5.071   4.389  11.597 -0.3663 -0.1192  0.4673
 2411TIP3    H128724   5.037   4.421  11.681  0.9123 -1.1079  1.4016
 2411TIP3    H228725   5.146   4.446  11.578  1.0148 -1.5287  1.4050
 2412TIP3   OH228726   1.118   1.169   1.150 -0.2194  0.0975 -0.6478
 2412TIP3    H128727   1.183   1.111   1.189  1.7437 -0.1563 -3.8942
 2412TIP3    H228728   1.167   1.221   1.087 -2.7900  1.6912 -1.4940
 2413TIP3   OH228729   2.903   1.501   1.670  0.2286 -0.3722  0.5911
 2413TIP3    H128730   2.968   1.555   1.715  0.1858  0.0092  0.1934
 2413TIP3    H228731   2.925   1.509   1.577  0.4723 -1.3509  0.5467
 2414TIP3   OH228732   6.337   0.485  14.047  0.9875 -0.2525 -0.0891
 2414TIP3    H128733   6.371   0.482  14.137  0.8754  1.1269  0.0206
 2414TIP3    H228734   6.408   0.450  13.994  0.8629 -1.5845  0.5707
 2415TIP3   OH228735   1.012   6.847  10.739  1.0178 -0.0173  0.0236
 2415TIP3    H128736   0.956   6.909  10.785  0.5505 -0.8332  0.5629
 2415TIP3    H228737   0.961   6.766  10.734  1.4984 -0.2821 -0.9321
 2416TIP3   OH228738   0.179   3.662  11.139  0.3599 -0.1057  0.4350
 2416TIP3    H128739   0.162   3.682  11.047 -1.3676 -2.2476  0.2133
 2416TIP3    H228740   0.165   3.746  11.184 -1.3058  0.4372 -0.9694
 2417TIP3   OH228741   1.165   4.011  11.438 -0.5108  0.4294  0.1874
 2417TIP3    H128742   1.247   4.057  11.418  0.0146 -0.5128  0.0721
 2417TIP3    H228743   1.143   3.964  11.357 -0.9377  0.3515  0.3461
 2418TIP3   OH228744   4.280   4.015  15.201 -0.0538 -0.1045  0.5369
 2418TIP3    H128745   4.365   4.033  15.161 -0.8267  0.3216 -0.9699
 2418TIP3    H228746   4.300   4.004  15.295  1.4455  1.5034  0.4585
 2419TIP3   OH228747   0.829   3.903  12.055 -0.0359  0.3680 -0.2385
 2419TIP3    H128748   0.878   3.874  12.132 -0.0934 -1.1976 -0.7608
 2419TIP3    H228749   0.889   3.961  12.009 -0.1559  1.6720  1.1864
 2420TIP3   OH228750   0.692   6.227  11.993 -0.4642  0.0249 -0.5338
 2420TIP3    H128751   0.749   6.244  11.919 -2.8861 -0.2927 -2.5917
 2420TIP3    H228752   0.700   6.305  12.048  1.9830 -0.0888 -0.6074
 2421TIP3   OH228753   2.879   4.280  11.651  0.1778 -0.3417 -0.2058
 2421TIP3    H128754   2.967   4.246  11.669  0.8403  2.0596  1.5772
 2421TIP3    H228755   2.834   4.274  11.735 -0.0513  1.9115 -0.1009
 2422TIP3   OH228756   3.170   2.045  11.005  0.6808  0.1523 -0.6608
 2422TIP3    H128757   3.190   2.012  10.917  0.8105  0.4999 -0.7626
 2422TIP3    H228758   3.099   1.988  11.036  0.4471  0.1994 -1.0993
 2423TIP3   OH228759   4.516   3.585  10.478 -0.2135  0.1255  0.2072
 2423TIP3    H128760   4.482   3.666  10.517 -0.8324  0.0836 -0.2271
 2423TIP3    H228761   4.498   3.595  10.384  0.5123 -0.1313  0.0346
 2424TIP3   OH228762   1.725   2.959  14.916  0.3222  0.2706  0.0305
 2424TIP3    H128763   1.655   2.924  14.971  1.7821 -1.4746  0.8777
 2424TIP3    H228764   1.772   2.882  14.886  0.6052  1.2894 -2.3346
 2425TIP3   OH228765   5.598   4.909  10.883  0.4407 -0.0663  0.1037
 2425TIP3    H128766   5.652   4.966  10.829  1.6616 -0.6330  0.6898
 2425TIP3    H228767   5.646   4.826  10.885 -0.4916 -0.6046  0.5756
 2426TIP3   OH228768   2.710   2.186   1.393  0.2176 -0.6438 -0.0276
 2426TIP3    H128769   2.704   2.112   1.454  1.9400  0.1246  1.1752
 2426TIP3    H228770   2.633   2.240   1.413  0.6288 -0.5213  1.3717
 2427TIP3   OH228771   1.494   2.230   3.393  0.4257 -0.3020 -0.2445
 2427TIP3    H128772   1.458   2.312   3.426  1.1737 -0.6271  1.4674
 2427TIP3    H228773   1.469   2.165   3.458  2.0158 -0.9538 -0.2401
 2428TIP3   OH228774   1.467   6.204  11.742  0.8535  0.1942 -0.4566
 2428TIP3    H128775   1.486   6.269  11.809 -0.0517  0.7439 -0.7134
 2428TIP3    H228776   1.372   6.204  11.734  0.7429 -1.8801  0.2217
 2429TIP3   OH228777   3.557   3.917  10.947  0.5527 -0.6856 -0.2028
 2429TIP3    H128778   3.593   3.831  10.971 -0.0473 -1.6374 -2.4196
 2429TIP3    H228779   3.463   3.903  10.944  0.3134  0.5204  0.9786
 2430TIP3   OH228780   3.185   5.333  10.065  0.6049 -0.0124 -0.3582
 2430TIP3    H128781   3.272   5.306  10.035  1.6094  0.7247  1.7410
 2430TIP3    H228782   3.171   5.283  10.145 -1.0145 -0.2384 -0.7519
 2431TIP3   OH228783   0.300   1.660  11.768 -0.4094 -0.6188 -0.4367
 2431TIP3    H128784   0.366   1.669  11.699  1.9725  0.5602  1.7680
 2431TIP3    H228785   0.239   1.733  11.753 -0.4708 -0.9299 -1.7761
 2432TIP3   OH228786   1.900   4.555  10.701 -0.0333 -0.2446  0.7911
 2432TIP3    H128787   1.834   4.594  10.758  0.4080 -0.9941  1.8437
 2432TIP3    H228788   1.849   4.507  10.635 -0.5485  0.7190  0.4648
 2433TIP3   OH228789   3.792   1.412   9.626  0.0880  0.0585 -0.1765
 2433TIP3    H128790   3.784   1.320   9.601  0.6662  0.2905 -1.2929
 2433TIP3    H228791   3.702   1.440   9.645 -0.3745 -0.2268 -1.7779
 2434TIP3   OH228792   2.931   1.218   1.286  0.0355 -0.0331  0.3337
 2434TIP3    H128793   2.890   1.279   1.224  1.3427 -0.4641 -1.0038
 2434TIP3    H228794   2.885   1.135   1.271  1.8646 -0.7508 -1.8051
 2435TIP3   OH228795   0.714   0.147  15.651  0.2207  0.3862 -0.3417
 2435TIP3    H128796   0.784   0.165  15.588 -1.3090 -2.1991 -3.0306
 2435TIP3    H228797   0.638   0.193  15.617 -0.2801  0.2132  0.5135
 2436TIP3   OH228798   0.039   2.949  15.243  0.0154 -0.1760 -0.1212
 2436TIP3    H128799   0.097   2.873  15.238 -0.1379 -0.3252  0.3874
 2436TIP3    H228800  -0.028   2.932  15.177  0.8294  0.2404 -1.0803
 2437TIP3   OH228801   5.547   3.875  15.522 -0.4793  0.8139 -0.4314
 2437TIP3    H128802   5.492   3.942  15.560 -0.7659  0.4637 -0.2243
 2437TIP3    H228803   5.637   3.903  15.542 -0.6174 -0.3775  2.3078
 2438TIP3   OH228804   0.178   0.649   0.718  0.1097  0.2126 -0.2397
 2438TIP3    H128805   0.161   0.608   0.634 -0.5953  0.9828 -0.4915
 2438TIP3    H228806   0.240   0.719   0.699  1.1222 -0.5631  0.1459
 2439TIP3   OH228807   3.518   1.656  12.587 -1.1541  0.0721  0.0117
 2439TIP3    H128808   3.520   1.616  12.500 -0.9890  0.1146 -0.0036
 2439TIP3    H228809   3.609   1.679  12.606 -0.7520 -2.2402  1.2769
 2440TIP3   OH228810   5.243   2.336   2.517 -0.3176 -0.3070  0.4057
 2440TIP3    H128811   5.299   2.411   2.496  0.4176 -0.8225  0.4964
 2440TIP3    H228812   5.191   2.322   2.437  0.0526 -0.1509  0.1337
 2441TIP3   OH228813   3.715   3.135  14.272  0.2183  0.1616 -0.5521
 2441TIP3    H128814   3.622   3.158  14.278 -1.0501 -3.6901 -2.3166
 2441TIP3    H228815   3.741   3.113  14.362 -0.3295  1.8976  0.0610
 2442TIP3   OH228816   5.873   3.886   2.096 -0.2369 -0.1529 -0.2471
 2442TIP3    H128817   5.925   3.875   2.016  0.9252 -1.1011  0.6166
 2442TIP3    H228818   5.931   3.933   2.156 -2.2219  3.6754 -0.9917
 2443TIP3   OH228819   2.122   7.112   1.454  0.5183  0.1336  0.1196
 2443TIP3    H128820   2.144   7.076   1.368  0.5043  0.2396  0.0710
 2443TIP3    H228821   2.188   7.180   1.468  1.4361 -0.8825  0.8460
 2444TIP3   OH228822   0.291   5.187  15.249  0.1049  0.3478 -0.0135
 2444TIP3    H128823   0.281   5.281  15.267  0.9905  0.6451 -0.9708
 2444TIP3    H228824   0.270   5.145  15.332  1.8552  1.5284  1.1168
 2445TIP3   OH228825   4.015   3.909  15.155  0.2279 -0.3961  0.4385
 2445TIP3    H128826   4.101   3.946  15.176 -1.2313  2.7600  1.5085
 2445TIP3    H228827   3.993   3.855  15.231  0.4261  0.4265  1.0885
 2446TIP3   OH228828   6.562   1.491  10.182  0.4814  0.8188  0.0106
 2446TIP3    H128829   6.474   1.455  10.174 -0.0894  2.0213  0.6200
 2446TIP3    H228830   6.619   1.426  10.140 -0.7228  0.1757 -0.6611
 2447TIP3   OH228831   1.689   4.434  10.565 -0.1544  0.2340 -0.2923
 2447TIP3    H128832   1.616   4.489  10.594 -2.2400 -3.5404  2.5237
 2447TIP3    H228833   1.650   4.374  10.501  0.4665 -1.4688  0.8252
 2448TIP3   OH228834   4.782   3.740  10.748 -0.2394  0.7606 -0.3624
 2448TIP3    H128835   4.750   3.654  10.719  1.4249  0.2063 -0.6434
 2448TIP3    H228836   4.739   3.802  10.689 -0.3795 -0.0057 -1.1000
 2449TIP3   OH228837   0.278   1.545  14.602  0.4340  0.5602  0.0007
 2449TIP3    H128838   0.242   1.607  14.666  0.3812  0.2841  0.2419
 2449TIP3    H228839   0.359   1.515  14.642 -0.0162 -0.2551  0.3367
 2450TIP3   OH228840   5.220   6.263  12.204 -0.2928  0.0863 -0.3801
 2450TIP3    H128841   5.130   6.290  12.188 -0.2139  0.8350  0.3609
 2450TIP3    H228842   5.263   6.342  12.238 -0.4922 -1.3163  3.6129
 2451TIP3   OH228843   3.778   6.251   1.692  0.3365 -0.1164  0.6441
 2451TIP3    H128844   3.709   6.186   1.677 -0.8000  1.1561  0.1684
 2451TIP3    H228845   3.848   6.225   1.632 -0.5997 -0.2083 -0.4495
 2452TIP3   OH228846   4.406   4.135  12.002  0.1185 -0.0658  0.3791
 2452TIP3    H128847   4.495   4.105  12.020  0.5685  1.6255  1.1151
 2452TIP3    H228848   4.392   4.209  12.060 -1.4344  0.3165 -0.4043
 2453TIP3   OH228849   5.029   0.609   3.315 -0.1276  0.5593  0.2854
 2453TIP3    H128850   5.036   0.663   3.236  0.1384 -0.1235 -0.1759
 2453TIP3    H228851   4.967   0.540   3.291 -0.3656  0.5840  0.8196
 2454TIP3   OH228852   1.253   5.903  15.733 -0.7489  0.1426  0.1258
 2454TIP3    H128853   1.194   5.951  15.790 -1.0235  1.4557 -1.2011
 2454TIP3    H228854   1.202   5.828  15.702 -1.0078  0.1172  0.6078
 2455TIP3   OH228855   6.065   4.076   4.882  0.0305 -0.0835 -0.5937
 2455TIP3    H128856   6.060   4.091   4.977  0.5678  0.1770 -0.6074
 2455TIP3    H228857   6.066   4.164   4.844  0.8881 -0.1696 -0.7875
 2456TIP3   OH228858   5.602   0.114  11.283  0.0935  0.0367 -0.2355
 2456TIP3    H128859   5.600   0.153  11.195  1.3605  2.5527  0.7532
 2456TIP3    H228860   5.555   0.177  11.338  1.2028 -0.4076  1.2749
 2457TIP3   OH228861   5.148   5.540  10.737  0.0179 -0.1087 -0.0457
 2457TIP3    H128862   5.185   5.614  10.688  0.6336 -1.0348 -1.0314
 2457TIP3    H228863   5.143   5.571  10.827  0.1967  1.1574 -0.4544
 2458TIP3   OH228864   1.365   6.305  10.205 -0.0089 -0.2958  0.6251
 2458TIP3    H128865   1.399   6.358  10.132  0.1249  1.1840  1.7079
 2458TIP3    H228866   1.419   6.227  10.205  0.4956  0.0276 -0.3916
 2459TIP3   OH228867   5.747   2.759   1.524 -0.0613 -0.2413  0.6796
 2459TIP3    H128868   5.694   2.830   1.489 -0.0695 -0.1654  0.8458
 2459TIP3    H228869   5.789   2.720   1.447  0.0329  0.0157  0.6008
 2460TIP3   OH228870   0.076   0.426  13.051 -0.4412  0.0376 -0.4106
 2460TIP3    H128871   0.057   0.440  13.144  2.0265 -3.0958  0.7393
 2460TIP3    H228872   0.168   0.400  13.049 -0.6338 -0.7980 -3.6775
 2461TIP3   OH228873   6.890   0.399  12.728 -0.1013 -0.3972 -0.2039
 2461TIP3    H128874   6.878   0.460  12.654  2.3188  0.9592  0.4003
 2461TIP3    H228875   6.965   0.345  12.702 -0.1963 -0.9346  0.6219
 2462TIP3   OH228876   1.994   1.152  15.432  0.1032 -0.0922  0.5231
 2462TIP3    H128877   2.062   1.106  15.382  0.2471 -0.9757  1.4955
 2462TIP3    H228878   2.031   1.238  15.450  0.6292 -0.2775  0.3384
 2463TIP3   OH228879   2.623   3.868  13.129  0.0734  0.2291 -0.1113
 2463TIP3    H128880   2.704   3.916  13.147  0.7226 -0.6500 -0.5702
 2463TIP3    H228881   2.594   3.838  13.215  0.1562  0.6701  0.0756
 2464TIP3   OH228882   2.212   6.936  11.372  0.3459 -0.2302 -0.2171
 2464TIP3    H128883   2.286   6.994  11.356  1.7351 -1.5595  1.1395
 2464TIP3    H228884   2.164   6.978  11.444  1.6186 -0.9381  1.0949
 2465TIP3   OH228885   2.003   6.665  14.201 -0.1139  0.3939 -0.0845
 2465TIP3    H128886   2.073   6.616  14.244  0.4334  2.2375  1.2654
 2465TIP3    H228887   1.955   6.705  14.273 -1.2481  0.8870 -1.0945
 2466TIP3   OH228888   3.960   0.372  10.965  0.0588  0.3555  0.1667
 2466TIP3    H128889   4.018   0.446  10.981  0.1950  0.6681 -1.5541
 2466TIP3    H228890   4.014   0.295  10.983 -0.0585  0.6292  1.8767
 2467TIP3   OH228891   5.276   2.975  12.655 -0.1355 -0.7288  0.8438
 2467TIP3    H128892   5.224   2.987  12.734 -0.8663 -1.6509  0.5208
 2467TIP3    H228893   5.224   2.917  12.600  0.8651 -1.0096  0.1558
 2468TIP3   OH228894   5.022   4.690   3.175 -0.3042 -0.6909  0.3711
 2468TIP3    H128895   5.032   4.727   3.262  1.2391  0.2707 -0.1896
 2468TIP3    H228896   4.927   4.690   3.159 -0.4506  1.6016  1.0003
 2469TIP3   OH228897   1.639   0.609  10.901 -0.2834 -0.0829  0.3210
 2469TIP3    H128898   1.704   0.679  10.908 -0.6986  0.1183  2.7969
 2469TIP3    H228899   1.636   0.570  10.988  0.5771 -3.8275 -1.1137
 2470TIP3   OH228900   4.662   3.889  13.961  0.1745  0.7404  0.0246
 2470TIP3    H128901   4.654   3.983  13.946 -2.0073  0.9361  1.8215
 2470TIP3    H228902   4.635   3.877  14.052  1.0077 -1.5710  0.0322
 2471TIP3   OH228903   4.987   0.422  12.749  0.6850  0.3979  0.0810
 2471TIP3    H128904   5.029   0.483  12.688  1.6824  0.3426  0.6849
 2471TIP3    H228905   4.977   0.341  12.699  0.6263  0.6406 -0.3010
 2472TIP3   OH228906   3.955   1.434   5.644 -0.2276  0.8872  0.1994
 2472TIP3    H128907   4.034   1.487   5.635 -0.5128  1.3093  0.1461
 2472TIP3    H228908   3.942   1.426   5.739  1.0027 -0.8955  0.2700
 2473TIP3   OH228909   3.182   3.866  11.363 -0.1602  0.2146 -0.5501
 2473TIP3    H128910   3.218   3.919  11.433 -1.4841  2.2708 -1.3204
 2473TIP3    H228911   3.203   3.776  11.387  2.2241  1.0464  0.8002
 2474TIP3   OH228912   2.936   6.466  14.348 -0.4643 -0.1173 -0.3487
 2474TIP3    H128913   2.880   6.401  14.389 -2.2004  0.9562 -0.8915
 2474TIP3    H228914   2.907   6.550  14.385 -0.0896  0.5888 -1.5761
 2475TIP3   OH228915   5.565   0.884  10.908 -0.0301 -0.2677  0.5435
 2475TIP3    H128916   5.652   0.868  10.945  0.0803 -1.6363 -0.2736
 2475TIP3    H228917   5.530   0.956  10.961  2.1308  1.2811  0.0098
 2476TIP3   OH228918   5.799   5.980  13.592 -0.2319  0.2197 -0.0774
 2476TIP3    H128919   5.797   5.929  13.511 -1.0138 -0.4239  0.3331
 2476TIP3    H228920   5.801   6.071  13.562  0.6216 -0.0227 -0.8178
 2477TIP3   OH228921   4.383   5.365  12.392  0.0625  0.2013  0.3163
 2477TIP3    H128922   4.431   5.282  12.389 -0.0598  0.1476 -0.2058
 2477TIP3    H228923   4.292   5.340  12.378 -0.2492  0.2154  2.0260
 2478TIP3   OH228924   5.807   6.581   3.362  0.6625  0.1617  0.0804
 2478TIP3    H128925   5.813   6.676   3.350 -0.0662  0.3095  0.7693
 2478TIP3    H228926   5.754   6.570   3.441  0.1094 -0.8317 -0.4027
 2479TIP3   OH228927   5.517   4.797  13.480  0.3561 -0.4533  0.6329
 2479TIP3    H128928   5.426   4.781  13.506  0.4222 -2.5433 -0.2043
 2479TIP3    H228929   5.568   4.765  13.554  0.4262 -1.3439  0.2158
 2480TIP3   OH228930   2.230   3.858  13.369 -0.5095 -0.0995  0.2971
 2480TIP3    H128931   2.235   3.851  13.273  0.6527 -0.5132  0.3688
 2480TIP3    H228932   2.302   3.917  13.392 -1.3124  0.6844  0.8629
 2481TIP3   OH228933   3.825   4.714   3.388  0.2831 -0.4464 -0.2390
 2481TIP3    H128934   3.770   4.718   3.466  1.9197  0.3080  0.9477
 2481TIP3    H228935   3.895   4.653   3.412  0.5304 -0.6013 -1.3106
 2482TIP3   OH228936   5.604   2.035  15.004 -0.1029  0.1136 -0.6150
 2482TIP3    H128937   5.586   1.955  15.052 -0.1627  0.4979  0.0148
 2482TIP3    H228938   5.582   2.105  15.065  1.3685  0.6064 -0.6185
 2483TIP3   OH228939   0.978   4.782   4.425  0.2438 -0.3422  0.1004
 2483TIP3    H128940   0.923   4.790   4.347 -0.1764 -0.2520  0.4002
 2483TIP3    H228941   1.023   4.866   4.432  0.0423 -0.2348  0.1275
 2484TIP3   OH228942   1.233   2.238  11.442 -0.5068 -0.1070 -0.1681
 2484TIP3    H128943   1.192   2.173  11.498 -1.7153 -1.5768 -2.5906
 2484TIP3    H228944   1.326   2.235  11.466 -1.0217 -0.2732  2.0318
 2485TIP3   OH228945   2.710   6.793   1.540  0.0668  0.1739  0.0245
 2485TIP3    H128946   2.629   6.843   1.532 -0.0679 -0.0599 -0.0761
 2485TIP3    H228947   2.685   6.703   1.522  0.2107 -0.0151  0.7385
 2486TIP3   OH228948   1.042   2.236  14.186  0.1536 -0.1609 -0.0495
 2486TIP3    H128949   1.068   2.301  14.120  0.1999  0.3882  0.5042
 2486TIP3    H228950   0.946   2.234  14.181  0.2161 -1.8104 -1.7295
 2487TIP3   OH228951   4.999   0.470  10.365  0.4511  0.0679  0.4954
 2487TIP3    H128952   4.977   0.443  10.455 -1.4057 -0.7881 -0.1623
 2487TIP3    H228953   5.061   0.404  10.334  0.3509 -0.1798  0.8210
 2488TIP3   OH228954   5.845   3.643  13.056  0.8038  0.4791  0.0259
 2488TIP3    H128955   5.908   3.652  12.985 -0.0336  2.2423 -0.5501
 2488TIP3    H228956   5.792   3.567  13.032  0.1935  1.3518 -1.5428
 2489TIP3   OH228957   2.931   0.639   4.900  0.1860  0.2175  0.3911
 2489TIP3    H128958   2.956   0.559   4.854  0.3100  0.8118 -0.6097
 2489TIP3    H228959   2.835   0.634   4.906  0.0465  0.7450 -1.1232
 2490TIP3   OH228960   3.984   4.112  12.917 -0.2991 -0.4431 -0.3331
 2490TIP3    H128961   3.974   4.147  12.828  0.0144  0.2597 -0.0968
 2490TIP3    H228962   3.903   4.064  12.932 -1.2922  1.1621 -0.2383
 2491TIP3   OH228963   3.118   1.073   0.702 -0.1687  0.4553 -0.5966
 2491TIP3    H128964   3.154   1.025   0.627 -1.8239 -0.2108 -1.0120
 2491TIP3    H228965   3.193   1.121   0.738  1.1813 -1.0679 -1.2309
 2492TIP3   OH228966   4.274   2.681   3.415 -0.1783 -0.2972 -0.5661
 2492TIP3    H128967   4.273   2.664   3.321 -0.6269  0.8213 -0.7812
 2492TIP3    H228968   4.261   2.776   3.423 -0.2257 -0.3799  0.6257
 2493TIP3   OH228969   6.225   3.983  10.348 -0.3420 -0.1581 -0.3796
 2493TIP3    H128970   6.172   4.004  10.424 -0.4957 -1.2546 -0.1664
 2493TIP3    H228971   6.315   4.001  10.376 -0.5551  1.6825 -0.7376
 2494TIP3   OH228972   2.395   1.115  14.955  0.1721 -0.3547 -0.1388
 2494TIP3    H128973   2.452   1.095  14.881 -0.8666 -0.3418 -0.9763
 2494TIP3    H228974   2.377   1.030  14.995 -0.2786 -0.5306 -0.6935
 2495TIP3   OH228975   6.815   5.544   9.940  0.3031  0.2567  0.4390
 2495TIP3    H128976   6.888   5.559   9.879  0.0794  1.7891  0.4972
 2495TIP3    H228977   6.854   5.498  10.014  1.6583  2.5165  1.2520
 2496TIP3   OH228978   2.740   2.437   2.239 -0.3867  0.3848  0.5606
 2496TIP3    H128979   2.716   2.457   2.149 -1.4570  0.7635  0.9141
 2496TIP3    H228980   2.708   2.512   2.290  0.3355  0.2502  1.2425
 2497TIP3   OH228981   4.672   2.769  10.170  0.0865 -0.5145 -0.6566
 2497TIP3    H128982   4.579   2.786  10.154  0.3593  0.2194 -1.5856
 2497TIP3    H228983   4.684   2.677  10.145 -0.2293 -0.3776 -1.3487
 2498TIP3   OH228984   3.238   0.612  15.418  0.0870  0.2514 -0.0934
 2498TIP3    H128985   3.232   0.696  15.464 -0.7881 -0.5775  1.3606
 2498TIP3    H228986   3.218   0.546  15.484  0.1288 -1.0854 -1.3548
 2499TIP3   OH228987   0.443   1.301   3.588 -0.5483 -0.2099 -0.2573
 2499TIP3    H128988   0.382   1.274   3.656 -1.2818  0.2068 -0.7410
 2499TIP3    H228989   0.437   1.397   3.587 -1.2800 -0.2494 -1.5633
 2500TIP3   OH228990   5.662   5.452  10.162  0.3289 -0.1449  0.6680
 2500TIP3    H128991   5.601   5.395  10.210  0.6070 -1.0507 -0.0297
 2500TIP3    H228992   5.704   5.394  10.098  0.6975  0.8335  0.0049
 2501TIP3   OH228993   0.510   2.155  10.790  0.1966  0.2893  0.4484
 2501TIP3    H128994   0.535   2.246  10.771  1.1201  0.2199  1.2207
 2501TIP3    H228995   0.576   2.126  10.854 -0.6373 -0.6223  0.9103
 2502TIP3   OH228996   6.118   0.241  11.844 -0.2098  0.3907  0.6270
 2502TIP3    H128997   6.175   0.243  11.921  0.2692 -0.7293  0.3247
 2502TIP3    H228998   6.079   0.328  11.840  1.7530  1.3137  0.6417
 2503TIP3   OH228999   0.177   2.321  11.223  0.2743  0.3222  0.1925
 2503TIP3    H129000   0.102   2.335  11.281  0.8841  0.5928  0.9236
 2503TIP3    H229001   0.190   2.405  11.179  0.3136  0.3510  0.2596
 2504TIP3   OH229002   2.705   4.974  14.252 -0.1748  0.1310 -0.2895
 2504TIP3    H129003   2.706   4.928  14.168 -0.6516 -0.3392 -0.0422
 2504TIP3    H229004   2.627   5.029  14.248  0.1817  0.6424 -0.4257
 2505TIP3   OH229005   4.624   3.182  11.596 -0.1557 -0.7165 -0.0711
 2505TIP3    H129006   4.623   3.275  11.572 -2.7625 -0.2685  1.3373
 2505TIP3    H229007   4.616   3.136  11.513  0.7066  0.3153 -0.7549
 2506TIP3   OH229008   1.220   6.711   0.479 -0.6232 -0.0985 -0.1326
 2506TIP3    H129009   1.290   6.744   0.423  0.7392  0.8065  1.9461
 2506TIP3    H229010   1.175   6.646   0.426  0.6623  0.5741 -2.1721
 2507TIP3   OH229011   2.937   4.185  11.102  0.1295 -0.2823  0.7667
 2507TIP3    H129012   2.994   4.252  11.064  0.5777 -1.2574 -0.3491
 2507TIP3    H229013   2.863   4.234  11.138 -0.6184  0.7024 -1.8566
 2508TIP3   OH229014   6.417   0.446  13.029 -0.3423 -0.3406  0.1022
 2508TIP3    H129015   6.478   0.519  13.042  0.6665 -1.3591  1.2686
 2508TIP3    H229016   6.460   0.392  12.962 -1.3049  0.3189 -1.1005
 2509TIP3   OH229017   6.430   1.654  12.523 -0.4192  0.4124  0.0806
 2509TIP3    H129018   6.418   1.575  12.575  1.4801 -0.8497 -1.3003
 2509TIP3    H229019   6.519   1.683  12.543 -0.7874  1.7363 -0.0938
 2510TIP3   OH229020   5.987   5.902  11.125  0.1613 -0.4395 -0.6620
 2510TIP3    H129021   5.944   5.984  11.150  0.6760 -0.3469 -0.0771
 2510TIP3    H229022   5.915   5.841  11.110 -0.1938 -0.6805  1.6277
 2511TIP3   OH229023   3.116   4.456  10.746  0.0371 -0.6617  0.2801
 2511TIP3    H129024   3.045   4.515  10.772  0.3273  0.2046 -0.8075
 2511TIP3    H229025   3.157   4.430  10.828  2.2817  3.6330  0.8249
 2512TIP3   OH229026   7.087   2.555  11.551 -0.1724 -0.1622  0.3368
 2512TIP3    H129027   7.038   2.629  11.514  1.5974 -0.0497 -1.9591
 2512TIP3    H229028   7.177   2.586  11.555  0.6678 -2.2652 -1.0044
 2513TIP3   OH229029   0.219   5.587  10.797  0.4960  0.5111  0.3775
 2513TIP3    H129030   0.297   5.550  10.838 -1.0731 -1.1502  2.0977
 2513TIP3    H229031   0.209   5.537  10.716  0.3397 -0.4912  0.9813
 2514TIP3   OH229032   1.937   7.057  12.701  0.0061 -0.3553 -0.7474
 2514TIP3    H129033   1.892   6.973  12.696 -1.5197  0.2848  0.8962
 2514TIP3    H229034   2.022   7.037  12.740 -0.1433 -1.2028 -0.8415
 2515TIP3   OH229035   2.868   5.665   0.960 -0.4980 -0.3511  0.6886
 2515TIP3    H129036   2.951   5.668   0.914 -1.6101  0.7205 -1.3984
 2515TIP3    H229037   2.865   5.579   1.001  0.6374 -1.3014 -1.1377
 2516TIP3   OH229038   3.741   0.038  11.152  0.2992  0.4332  0.3413
 2516TIP3    H129039   3.753  -0.018  11.074  0.7352  0.2729  0.5209
 2516TIP3    H229040   3.666  -0.001  11.197  0.9408 -0.3470  0.7518
 2517TIP3   OH229041   2.272   1.832  13.655 -0.1371  0.3687 -0.6193
 2517TIP3    H129042   2.220   1.886  13.595 -0.1774 -1.3634 -2.2778
 2517TIP3    H229043   2.212   1.810  13.726 -1.1761 -0.2226 -1.6523
 2518TIP3   OH229044   6.725   4.095   1.388  0.4824  0.0299  0.2774
 2518TIP3    H129045   6.819   4.079   1.399  0.6287 -0.0584 -0.8773
 2518TIP3    H229046   6.684   4.012   1.412  0.6295  0.3236  1.5759
 2519TIP3   OH229047   2.762   6.759   0.063 -0.6192 -0.4690 -0.4831
 2519TIP3    H129048   2.736   6.769  -0.028  0.2565  0.1212 -0.6829
 2519TIP3    H229049   2.767   6.665   0.077 -1.5038 -0.5695 -0.8226
 2520TIP3   OH229050   1.067   2.906  11.034  0.3539  0.5457 -0.2319
 2520TIP3    H129051   1.047   2.948  10.951 -0.5967  2.5839  0.9639
 2520TIP3    H229052   1.160   2.922  11.048 -0.1156  2.9197  0.4980
 2521TIP3   OH229053   0.433   4.358  12.297 -0.4150 -0.0697  0.4462
 2521TIP3    H129054   0.511   4.304  12.310 -0.7422 -0.3712  1.2120
 2521TIP3    H229055   0.407   4.341  12.207  0.0060 -0.5100  0.4040
 2522TIP3   OH229056   6.852   6.921   5.569  0.4930  0.1004  0.5350
 2522TIP3    H129057   6.873   7.010   5.596 -2.8692  0.8438  1.1244
 2522TIP3    H229058   6.869   6.868   5.647 -0.9259  0.8582  1.3997
 2523TIP3   OH229059   4.094   2.121  10.506 -0.0528 -0.1679 -0.1332
 2523TIP3    H129060   4.032   2.177  10.553 -0.8884 -0.6498 -0.6555
 2523TIP3    H229061   4.049   2.038  10.496  0.0512 -0.0426 -1.9002
 2524TIP3   OH229062   1.448   2.165  13.580  0.0365 -0.2187 -0.1467
 2524TIP3    H129063   1.470   2.196  13.668 -1.1091 -0.3943  0.2193
 2524TIP3    H229064   1.497   2.083  13.571  1.5446  0.6704 -0.3752
 2525TIP3   OH229065   1.299   5.114   4.926  0.1243 -0.1695  0.4299
 2525TIP3    H129066   1.221   5.136   4.976  0.5196  0.8982  0.6039
 2525TIP3    H229067   1.371   5.118   4.990  0.3934 -0.5969  0.1595
 2526TIP3   OH229068   3.030   1.038  12.167  0.6946  0.0633 -0.4703
 2526TIP3    H129069   2.974   1.060  12.241 -0.5160 -1.4073 -0.9112
 2526TIP3    H229070   3.094   1.110  12.163 -1.3028  1.9582 -0.1324
 2527TIP3   OH229071   1.771   3.734  12.746 -0.7172  0.2200  0.1224
 2527TIP3    H129072   1.727   3.664  12.794  1.0850 -0.2247  1.2117
 2527TIP3    H229073   1.773   3.808  12.807 -3.8816  1.8579 -1.4918
 2528TIP3   OH229074   2.445   0.359   1.476  0.1427 -0.3804  0.0785
 2528TIP3    H129075   2.442   0.338   1.569 -2.1866 -0.6354  0.0154
 2528TIP3    H229076   2.376   0.424   1.463 -0.3086 -1.1142 -1.6019
 2529TIP3   OH229077   5.173   2.686   3.274 -0.0695 -0.1043  0.1347
 2529TIP3    H129078   5.157   2.780   3.282 -2.0137 -0.2986 -0.8179
 2529TIP3    H229079   5.093   2.652   3.235  1.1342 -1.9578 -0.8683
 2530TIP3   OH229080   0.328   3.849  14.079 -0.1681  0.3153 -0.1327
 2530TIP3    H129081   0.241   3.824  14.048 -0.0352 -0.9815  0.4625
 2530TIP3    H229082   0.386   3.779  14.048 -0.0684 -1.2259  3.0649
 2531TIP3   OH229083   6.837   3.175   3.153  0.3775 -0.0651 -0.7406
 2531TIP3    H129084   6.843   3.132   3.238 -0.6524  2.2088  0.5570
 2531TIP3    H229085   6.743   3.174   3.132  0.3026  1.6249 -0.5881
 2532TIP3   OH229086   2.956   2.296  12.340  0.3135  0.6934 -0.4854
 2532TIP3    H129087   2.944   2.373  12.285  0.3046 -0.4892 -2.1911
 2532TIP3    H229088   2.996   2.331  12.420 -0.5978  2.5923 -0.7903
 2533TIP3   OH229089   1.445   6.653   1.691 -0.2037 -0.3616 -0.1360
 2533TIP3    H129090   1.439   6.688   1.603 -1.4623 -2.3333 -0.8992
 2533TIP3    H229091   1.539   6.651   1.710  0.1511 -0.7158 -1.8028
 2534TIP3   OH229092   5.912   0.161  11.201 -0.0265 -0.1493 -0.4840
 2534TIP3    H129093   5.817   0.166  11.193  0.0897  0.1211 -1.8950
 2534TIP3    H229094   5.927   0.121  11.287 -1.3825  1.2722  0.4782
 2535TIP3   OH229095   4.957   2.047  11.155  0.4572  0.5553 -0.5041
 2535TIP3    H129096   4.909   1.969  11.125 -0.3584  0.8759 -0.0728
 2535TIP3    H229097   5.031   2.012  11.204  0.0260  0.0458 -0.2022
 2536TIP3   OH229098   4.534   0.231   2.595 -0.2338 -0.4779 -0.1048
 2536TIP3    H129099   4.464   0.170   2.574  0.1783 -0.6861 -0.9337
 2536TIP3    H229100   4.566   0.203   2.680 -2.1872  0.5989  1.0681
 2537TIP3   OH229101   5.894   1.427   4.825  0.3242  0.2629 -0.3616
 2537TIP3    H129102   5.897   1.523   4.831 -0.7318  0.2377  1.2421
 2537TIP3    H229103   5.808   1.404   4.860  0.0600 -1.2204 -1.8898
 2538TIP3   OH229104   0.865   6.648  13.364 -0.7702  0.3027 -0.0010
 2538TIP3    H129105   0.930   6.718  13.355 -0.0576 -0.2830  0.5450
 2538TIP3    H229106   0.885   6.587  13.293 -1.2357  0.5242 -0.3266
 2539TIP3   OH229107   6.507   5.961   0.629  0.1624 -0.2408  0.1071
 2539TIP3    H129108   6.603   5.962   0.626  0.2122 -2.1170 -0.6269
 2539TIP3    H229109   6.486   5.908   0.706 -0.3745  1.9604  1.5696
 2540TIP3   OH229110   4.458   0.433  12.260 -0.0256  0.4663 -0.3139
 2540TIP3    H129111   4.467   0.419  12.166 -0.9238  0.4341 -0.3994
 2540TIP3    H229112   4.452   0.528  12.269  2.1201  0.6386 -0.0825
 2541TIP3   OH229113   0.436   6.163   4.213  0.3140  0.1858 -0.6287
 2541TIP3    H129114   0.479   6.247   4.200 -0.2002  0.4466 -0.6516
 2541TIP3    H229115   0.424   6.128   4.125  0.6717  0.0071 -0.6126
 2542TIP3   OH229116   5.554   4.260   0.062 -0.0548 -0.1422 -0.5269
 2542TIP3    H129117   5.475   4.314   0.051  0.3727  0.3217 -1.3867
 2542TIP3    H229118   5.614   4.316   0.112 -0.4937 -0.7418  0.7198
 2543TIP3   OH229119   6.181   0.773  14.550  0.4359 -0.2707 -0.3896
 2543TIP3    H129120   6.151   0.860  14.577 -0.9239 -0.7789 -0.1804
 2543TIP3    H229121   6.220   0.786  14.464  0.3109  0.5530 -0.3264
 2544TIP3   OH229122   0.477   1.319  12.724  0.0521 -0.4474  0.7093
 2544TIP3    H129123   0.464   1.368  12.643 -1.6030 -1.4678  0.2962
 2544TIP3    H229124   0.565   1.281  12.716  0.4143  0.5073 -0.0010
 2545TIP3   OH229125   6.454   0.396   9.632 -0.0983 -0.1591 -0.2298
 2545TIP3    H129126   6.491   0.330   9.573  0.8554 -0.8324  1.0610
 2545TIP3    H229127   6.407   0.456   9.574 -0.6422 -1.7222 -1.4955
 2546TIP3   OH229128   2.712   4.491   3.232 -0.4122 -0.2358 -0.1041
 2546TIP3    H129129   2.719   4.432   3.157 -1.7264 -0.8139  0.2044
 2546TIP3    H229130   2.743   4.439   3.306 -0.2459 -0.0638 -0.0526
 2547TIP3   OH229131   6.448   4.443  10.182 -0.2337  0.1045  0.5325
 2547TIP3    H129132   6.405   4.416  10.264 -1.5973 -0.2103 -0.2507
 2547TIP3    H229133   6.434   4.369  10.123  1.5051 -0.0350  0.2534
 2548TIP3   OH229134   3.748   0.592  12.081  0.2608  0.1436  0.2660
 2548TIP3    H129135   3.722   0.558  12.167  0.6096 -2.9480 -0.7179
 2548TIP3    H229136   3.826   0.540  12.058 -0.0354  0.6294 -2.0596
 2549TIP3   OH229137   6.846   2.542  14.078  0.5603 -0.3263  0.1515
 2549TIP3    H129138   6.890   2.458  14.091  1.2727  0.0227  0.0443
 2549TIP3    H229139   6.894   2.603  14.134 -1.5847 -0.4959  2.3006
 2550TIP3   OH229140   3.661   3.264  12.374  0.0507 -0.5411 -0.0811
 2550TIP3    H129141   3.571   3.292  12.356  0.3805  1.2321  0.7646
 2550TIP3    H229142   3.690   3.321  12.445  2.1092 -0.5215 -0.8530
 2551TIP3   OH229143   2.790   0.717  14.665  0.1527 -0.3107 -0.0645
 2551TIP3    H129144   2.860   0.753  14.720 -0.1886 -0.5100  0.5091
 2551TIP3    H229145   2.724   0.686  14.727  0.4483 -1.9639 -0.5136
 2552TIP3   OH229146   6.289   5.356   0.049  0.0569  0.2305 -0.5472
 2552TIP3    H129147   6.222   5.321   0.107  0.6910 -0.7926 -0.4132
 2552TIP3    H229148   6.271   5.314  -0.036 -0.3157  1.0323 -0.8803
 2553TIP3   OH229149   7.126   1.568  11.184  0.1133  0.6061 -0.3781
 2553TIP3    H129150   7.180   1.647  11.181 -1.4446  1.6888 -1.8180
 2553TIP3    H229151   7.062   1.585  11.253  0.9048 -0.2332  0.6030
 2554TIP3   OH229152   5.068   6.424  10.072  0.5223 -0.4352 -0.5167
 2554TIP3    H129153   5.054   6.492  10.006 -2.2656 -1.1313 -0.7516
 2554TIP3    H229154   5.051   6.341  10.025  2.1871 -1.2160  0.1837
 2555TIP3   OH229155   1.946   0.433  11.910 -0.0779  0.5233 -0.2471
 2555TIP3    H129156   1.913   0.474  11.830 -0.5559 -1.3689 -1.0659
 2555TIP3    H229157   2.036   0.466  11.918 -0.2360  1.2413 -1.2137
 2556TIP3   OH229158   4.078   3.365  15.698 -0.2592 -0.4991  0.4117
 2556TIP3    H129159   4.105   3.332  15.612 -1.4417  1.4039 -0.7684
 2556TIP3    H229160   4.123   3.450  15.705  1.3021 -1.4246  2.5497
 2557TIP3   OH229161   5.283   3.223  13.720  0.0078 -0.2565  0.0497
 2557TIP3    H129162   5.371   3.258  13.733  0.1776 -1.0810  1.2990
 2557TIP3    H229163   5.288   3.133  13.751 -0.8196 -0.9167 -1.5965
 2558TIP3   OH229164   1.140   1.105  11.833 -0.1644  0.1013  0.4066
 2558TIP3    H129165   1.045   1.092  11.832 -0.1063 -0.8403 -2.3857
 2558TIP3    H229166   1.155   1.174  11.768  1.1389 -0.6426 -0.1031
 2559TIP3   OH229167   0.517   4.958   4.374 -0.4246  0.2717  0.3853
 2559TIP3    H129168   0.480   4.943   4.287 -1.7320 -1.5875  1.1871
 2559TIP3    H229169   0.592   4.899   4.378 -0.1187  0.6581  0.3813
 2560TIP3   OH229170   4.494   5.738   0.109 -0.5046  0.4624  0.3692
 2560TIP3    H129171   4.432   5.804   0.079 -2.2335 -0.9086  0.7690
 2560TIP3    H229172   4.443   5.657   0.112  1.5197 -0.9007 -0.0552
 2561TIP3   OH229173   2.844   1.472  13.555  0.1985  0.6192 -0.5846
 2561TIP3    H129174   2.823   1.380  13.539  3.3201 -0.3774  0.2462
 2561TIP3    H229175   2.930   1.484  13.515  0.5760  2.7385  0.6880
 2562TIP3   OH229176   2.189   2.840  15.335  0.1624 -0.3373  0.0555
 2562TIP3    H129177   2.144   2.770  15.287 -0.2860 -1.0733  1.4799
 2562TIP3    H229178   2.206   2.802  15.422 -2.3249  2.0682  1.7861
 2563TIP3   OH229179   2.098   1.858  10.735 -0.2923  0.4645 -0.3689
 2563TIP3    H129180   2.184   1.822  10.711 -0.8732 -0.7748 -0.6652
 2563TIP3    H229181   2.119   1.933  10.790  1.0036 -0.6252  0.7271
 2564TIP3   OH229182   3.861   0.152  12.452 -0.2765 -0.3285 -0.4599
 2564TIP3    H129183   3.913   0.192  12.522  0.4979 -0.5830 -0.8802
 2564TIP3    H229184   3.903   0.067  12.438 -1.0623 -0.7099 -0.5271
 2565TIP3   OH229185   6.711   1.145  14.069 -0.7165 -0.5501 -0.3271
 2565TIP3    H129186   6.777   1.208  14.041 -1.1711  0.3592  0.5671
 2565TIP3    H229187   6.640   1.156  14.006 -1.6175  1.2869  0.8874
 2566TIP3   OH229188   0.791   6.571  10.344 -0.0661 -0.5963  0.2088
 2566TIP3    H129189   0.836   6.541  10.265  1.8238 -1.7490  1.6298
 2566TIP3    H229190   0.749   6.492  10.377  0.9105 -0.6325  1.4289
 2567TIP3   OH229191   0.921   0.948  14.175  0.0116 -0.0235  0.5418
 2567TIP3    H129192   0.959   0.979  14.257 -0.4685  0.0498  0.7408
 2567TIP3    H229193   0.885   0.862  14.197  0.3608 -0.2403  0.2711
 2568TIP3   OH229194   0.973   5.352   1.788 -0.0223 -0.5908  0.9083
 2568TIP3    H129195   1.042   5.306   1.741 -0.9759 -2.6108  1.3738
 2568TIP3    H229196   0.897   5.293   1.783 -0.9103  0.3131  2.7520
 2569TIP3   OH229197   7.034   6.002  10.399  0.1241  0.2200 -0.2605
 2569TIP3    H129198   7.103   5.956  10.447 -1.3057 -0.1692  1.5513
 2569TIP3    H229199   7.077   6.036  10.321  2.5844  0.8056  1.2378
 2570TIP3   OH229200   2.823   4.432  10.195  0.2430 -0.4213 -0.1919
 2570TIP3    H129201   2.889   4.501  10.185 -2.8704  2.7733 -0.8835
 2570TIP3    H229202   2.815   4.419  10.289 -0.3380  1.6309  0.0949
 2571TIP3   OH229203   5.450   0.651  12.291 -0.1880 -0.6399 -0.2690
 2571TIP3    H129204   5.387   0.654  12.219 -0.4590 -0.6323 -0.0289
 2571TIP3    H229205   5.434   0.730  12.341  1.2768  0.3417 -1.2620
 2572TIP3   OH229206   2.657   0.656  12.225 -0.4644  0.6436 -0.4420
 2572TIP3    H129207   2.729   0.683  12.168  1.5154 -1.9426  0.6602
 2572TIP3    H229208   2.591   0.622  12.165 -0.7665  2.8050 -1.4549
 2573TIP3   OH229209   1.855   5.282   0.763 -0.2433  0.6024  0.1905
 2573TIP3    H129210   1.854   5.378   0.765 -0.6151  0.5982  1.6469
 2573TIP3    H229211   1.947   5.259   0.771 -0.2409  0.8498  0.9676
 2574TIP3   OH229212   3.715   5.191   5.642  0.7063  0.3673  0.3382
 2574TIP3    H129213   3.740   5.252   5.711  0.7239 -0.1945  0.8363
 2574TIP3    H229214   3.632   5.153   5.672 -0.4884  1.7810 -1.0218
 2575TIP3   OH229215   2.377   5.840  10.324 -0.3011 -0.2986 -0.0348
 2575TIP3    H129216   2.305   5.826  10.262 -0.7855  0.6295  0.2954
 2575TIP3    H229217   2.334   5.842  10.410  0.1596 -0.0641  0.1893
 2576TIP3   OH229218   6.692   0.787  13.267 -0.5786 -0.3615  0.0141
 2576TIP3    H129219   6.663   0.698  13.289 -1.6908  0.2838  1.2774
 2576TIP3    H229220   6.787   0.784  13.276 -0.6434 -1.3160  0.4979
 2577TIP3   OH229221   2.051   5.230  15.646  0.6068  0.1989  0.0108
 2577TIP3    H129222   2.068   5.261  15.735  1.3918  1.7257 -0.6304
 2577TIP3    H229223   2.136   5.234  15.602  0.0178  0.6822 -1.1421
 2578TIP3   OH229224   5.697   4.526   0.645  0.0241  0.1955  0.0231
 2578TIP3    H129225   5.783   4.509   0.682 -0.1197  0.1756  0.3509
 2578TIP3    H229226   5.636   4.503   0.715 -0.2093  1.1271  0.1347
 2579TIP3   OH229227   3.334   3.025  11.763 -0.4842 -0.3372  0.3425
 2579TIP3    H129228   3.377   3.102  11.800 -1.8026  0.1479  0.9189
 2579TIP3    H229229   3.399   2.955  11.770  0.7772  0.7338 -0.2880
 2580TIP3   OH229230   5.695   2.397  12.261  0.0485 -0.0034 -0.3570
 2580TIP3    H129231   5.686   2.484  12.222 -2.1741  0.2045  0.4791
 2580TIP3    H229232   5.646   2.402  12.343  0.1725 -1.9523 -0.1162
 2581TIP3   OH229233   5.206   4.239  13.595 -0.3138  0.0793  0.6535
 2581TIP3    H129234   5.232   4.240  13.503 -0.7883 -1.0839  0.4851
 2581TIP3    H229235   5.145   4.312  13.604 -0.8443 -0.2457 -0.1462
 2582TIP3   OH229236   6.751   4.522  14.522  0.0843  0.0489  0.0679
 2582TIP3    H129237   6.784   4.515  14.612  1.0553 -0.9172 -0.3306
 2582TIP3    H229238   6.656   4.519  14.530  0.1802 -0.7852  1.0216
 2583TIP3   OH229239   4.781   5.812  12.312 -0.4830 -0.0364  0.4215
 2583TIP3    H129240   4.701   5.856  12.339 -1.0863  0.7409 -2.3456
 2583TIP3    H229241   4.753   5.723  12.289 -0.6494  0.3282 -0.8442
 2584TIP3   OH229242   3.496   0.554  15.493  0.0742  0.1694  0.0050
 2584TIP3    H129243   3.410   0.594  15.483 -0.0775 -0.0301  0.4632
 2584TIP3    H229244   3.479   0.460  15.499  0.3850  0.0698 -0.5599
 2585TIP3   OH229245   1.002   1.421  11.283 -0.1887  0.2976  0.1856
 2585TIP3    H129246   1.075   1.393  11.228  0.5433  1.1558  0.6911
 2585TIP3    H229247   0.959   1.340  11.310 -0.4984 -0.1536 -1.5358
 2586TIP3   OH229248   3.013   4.728  11.202 -0.0116  0.0896 -0.1889
 2586TIP3    H129249   3.088   4.670  11.191  0.1654  0.7810 -3.8315
 2586TIP3    H229250   2.936   4.673  11.188  0.1156  0.3985 -2.4288
 2587TIP3   OH229251   4.978   3.068  11.118 -0.6284 -0.0538  0.3862
 2587TIP3    H129252   5.072   3.061  11.134 -0.2738  0.6601 -1.1384
 2587TIP3    H229253   4.941   2.989  11.157  0.8179 -1.1804 -0.4017
 2588TIP3   OH229254   0.962   1.184  12.786 -0.3527 -0.2819  0.0507
 2588TIP3    H129255   1.051   1.210  12.764  0.4630 -2.1761  0.8264
 2588TIP3    H229256   0.933   1.250  12.848  0.1586  0.8614 -0.8921
 2589TIP3   OH229257   2.405   2.932  14.512 -0.3944 -0.6195 -0.4544
 2589TIP3    H129258   2.344   2.971  14.574 -0.2666 -0.4102 -0.4608
 2589TIP3    H229259   2.362   2.941  14.426 -0.1259 -0.0004 -0.5292
 2590TIP3   OH229260   1.197   4.436  12.420  0.1988 -0.2673  0.6237
 2590TIP3    H129261   1.133   4.441  12.349 -0.7482 -1.1595  1.3795
 2590TIP3    H229262   1.251   4.360  12.399  0.1119 -0.3477  0.6865
 2591TIP3   OH229263   4.793   4.106   1.084 -0.5559  0.2572  0.0220
 2591TIP3    H129264   4.848   4.054   1.026  0.1960  0.6608  0.3523
 2591TIP3    H229265   4.767   4.045   1.153  0.0607  0.2285  0.2381
 2592TIP3   OH229266   5.238   3.933  12.552  0.1697  0.8521 -0.2195
 2592TIP3    H129267   5.301   3.861  12.553 -0.1573  0.5168  1.6856
 2592TIP3    H229268   5.217   3.947  12.460  3.0258  1.0080 -0.9232
 2593TIP3   OH229269   1.770   1.924   0.919 -0.1594  0.5379 -0.3653
 2593TIP3    H129270   1.780   1.842   0.870 -2.4091  0.7660 -1.3172
 2593TIP3    H229271   1.709   1.977   0.867 -0.6194  1.8546  1.3883
 2594TIP3   OH229272   4.293   3.968   2.013  0.2056 -0.3370  0.1921
 2594TIP3    H129273   4.253   3.987   1.928  3.5327 -1.2133 -1.7290
 2594TIP3    H229274   4.240   4.018   2.075 -1.0204  2.2236 -2.6313
 2595TIP3   OH229275   0.077   3.481  12.856  0.5653  0.3050 -0.6213
 2595TIP3    H129276   0.017   3.530  12.911 -0.4054  0.5413 -1.8445
 2595TIP3    H229277   0.160   3.483  12.903 -0.9763 -2.5880  2.6330
 2596TIP3   OH229278   2.581   7.058  15.616  0.4954 -0.6476  0.2972
 2596TIP3    H129279   2.486   7.048  15.613  0.7058 -2.8404 -1.6348
 2596TIP3    H229280   2.598   7.095  15.703 -2.1047 -0.1840  0.6923
 2597TIP3   OH229281   2.504   6.575   9.962  0.1298  0.0503  0.7495
 2597TIP3    H129282   2.531   6.666   9.973 -2.5255  0.9150  1.0047
 2597TIP3    H229283   2.455   6.555  10.042 -0.9541 -0.9301 -0.1239
 2598TIP3   OH229284   4.775   4.970  11.706 -0.1924  0.2240  0.3786
 2598TIP3    H129285   4.703   4.975  11.769  0.0026  1.4923  0.5212
 2598TIP3    H229286   4.733   4.955  11.622 -0.5745  0.3986  0.5391
 2599TIP3   OH229287   4.974   2.441  13.564 -0.0511 -0.7618  0.2727
 2599TIP3    H129288   5.021   2.508  13.614 -0.9155 -0.2857  0.4641
 2599TIP3    H229289   4.990   2.360  13.613  2.0804 -0.9762 -0.6604
 2600TIP3   OH229290   4.151   1.604   1.701  0.4072 -0.4829  0.0571
 2600TIP3    H129291   4.171   1.511   1.689  2.6006  0.1289 -1.6682
 2600TIP3    H229292   4.068   1.616   1.655  0.2445 -1.5033  0.0426
 2601TIP3   OH229293   1.246   0.681  12.552 -0.5384  0.1464  0.6809
 2601TIP3    H129294   1.175   0.732  12.590 -0.4925  0.3032  0.5540
 2601TIP3    H229295   1.223   0.671  12.460  0.9263  2.5250 -0.0206
 2602TIP3   OH229296   6.682   5.088  12.674 -0.8333  0.4229 -0.0899
 2602TIP3    H129297   6.636   5.007  12.651 -1.6108  0.4962  1.1656
 2602TIP3    H229298   6.656   5.151  12.606 -2.7256  0.5079  0.6667
 2603TIP3   OH229299   3.039   1.969  12.068  0.2180  0.3824 -0.2671
 2603TIP3    H129300   3.133   1.958  12.056  0.0905 -0.5419 -0.4459
 2603TIP3    H229301   3.013   1.899  12.127 -0.6303 -0.4058 -1.5217
 2604TIP3   OH229302   0.574   4.446  11.440  0.3894  0.1629 -0.2637
 2604TIP3    H129303   0.525   4.477  11.517  2.3648 -0.2781  1.2308
 2604TIP3    H229304   0.537   4.496  11.367 -1.4224  0.7306  0.9764
 2605TIP3   OH229305   1.182   5.274   3.866  0.1636  0.1290 -0.4558
 2605TIP3    H129306   1.137   5.327   3.932  1.6135 -2.0358  2.5353
 2605TIP3    H229307   1.215   5.337   3.802 -0.2808  2.5388  1.5359
 2606TIP3   OH229308   1.499   6.675  10.875 -0.2216  0.0767  0.7416
 2606TIP3    H129309   1.566   6.653  10.939  1.8977  2.3450 -0.4962
 2606TIP3    H229310   1.510   6.769  10.860 -2.9674  0.3186 -0.3938
 2607TIP3   OH229311   1.719   0.371   4.614 -0.4757  0.2786 -0.1558
 2607TIP3    H129312   1.683   0.437   4.556  0.8144  0.3592 -0.8972
 2607TIP3    H229313   1.814   0.374   4.599 -0.3666 -1.5991 -0.0794
 2608TIP3   OH229314   0.285   4.246  15.598  0.2320 -0.1759  0.6350
 2608TIP3    H129315   0.332   4.182  15.652 -1.6800 -1.3833  0.9530
 2608TIP3    H229316   0.350   4.276  15.534  1.4769 -1.6353  1.1592
 2609TIP3   OH229317   6.297   0.225   9.790  0.2993 -0.4982  0.2637
 2609TIP3    H129318   6.372   0.264   9.744  0.0773 -0.6064 -0.1974
 2609TIP3    H229319   6.262   0.296   9.843  0.2735 -0.2341 -0.0984
 2610TIP3   OH229320   2.234   2.957   4.417  0.2313  0.3023  0.5501
 2610TIP3    H129321   2.250   2.943   4.510 -0.6528 -0.5062  0.5981
 2610TIP3    H229322   2.320   2.944   4.376  0.3366 -0.9298  1.1006
 2611TIP3   OH229323   4.313   6.612  11.562  0.1753  0.1671  0.7894
 2611TIP3    H129324   4.368   6.690  11.569  1.3276 -0.5213 -0.2686
 2611TIP3    H229325   4.224   6.647  11.557  0.7073  1.4684 -0.3587
 2612TIP3   OH229326   3.380   4.464  11.835 -0.8107 -0.1039  0.4097
 2612TIP3    H129327   3.405   4.452  11.927  0.0812 -1.8018 -0.0105
 2612TIP3    H229328   3.462   4.452  11.787 -1.1220  1.5198 -0.5802
 2613TIP3   OH229329   1.990   6.328  11.782 -0.6045  0.1600 -0.3279
 2613TIP3    H129330   1.927   6.291  11.845 -0.0430 -1.5951 -0.7392
 2613TIP3    H229331   1.958   6.417  11.766 -0.3836  0.9626  2.9456
 2614TIP3   OH229332   2.994   1.713  15.395  0.0342 -0.6302  0.3164
 2614TIP3    H129333   3.046   1.663  15.458 -0.1806 -2.8114 -1.1204
 2614TIP3    H229334   2.956   1.647  15.337 -2.5899  1.0077 -0.0422
 2615TIP3   OH229335   1.177   7.063   9.740 -0.0229 -0.1233 -0.1303
 2615TIP3    H129336   1.106   7.039   9.800 -1.0965  1.6058 -0.6226
 2615TIP3    H229337   1.184   6.990   9.679  2.2917 -2.7950  3.0038
 2616TIP3   OH229338   6.767   0.363  12.242 -0.2669 -0.4479 -0.2322
 2616TIP3    H129339   6.767   0.273  12.276 -1.2674 -0.2213  0.4033
 2616TIP3    H229340   6.675   0.389  12.243  0.0057  0.5698 -0.4616
 2617TIP3   OH229341   1.177   3.574  13.032  0.1669 -0.4987 -0.0145
 2617TIP3    H129342   1.129   3.556  13.113 -0.3244 -2.0659 -0.6121
 2617TIP3    H229343   1.269   3.568  13.057  0.0320  0.0385  0.6313
 2618TIP3   OH229344   0.186   1.627   3.301  0.2104 -0.0971 -0.1969
 2618TIP3    H129345   0.243   1.686   3.252  2.9078 -1.7212  0.7543
 2618TIP3    H229346   0.244   1.558   3.333 -2.1633 -1.4024  1.6880
 2619TIP3   OH229347   4.598   3.485   3.692 -0.5298  0.2649  0.5953
 2619TIP3    H129348   4.678   3.433   3.697 -0.0736  0.8901 -0.0260
 2619TIP3    H229349   4.609   3.554   3.757  0.6940  2.0116 -1.3540
 2620TIP3   OH229350   6.284   3.526  14.233 -0.3293  0.7117  0.4800
 2620TIP3    H129351   6.365   3.509  14.185 -0.1945 -0.0408  0.9501
 2620TIP3    H229352   6.225   3.565  14.169  0.7256  2.2192  0.3615
 2621TIP3   OH229353   3.577   0.596  14.523  0.6281 -0.4488 -0.1335
 2621TIP3    H129354   3.550   0.518  14.474  0.6591 -0.0487 -0.8118
 2621TIP3    H229355   3.623   0.649  14.458 -0.5097  0.7122 -0.0397
 2622TIP3   OH229356   5.268   1.568  10.588  0.3577 -0.1423  0.1686
 2622TIP3    H129357   5.321   1.619  10.527 -0.5123  1.3099  0.5755
 2622TIP3    H229358   5.224   1.504  10.533  0.7897  0.1132 -0.4907
 2623TIP3   OH229359   5.753   4.271   4.697  0.2622  0.2287 -0.2250
 2623TIP3    H129360   5.727   4.189   4.656  1.5552  0.2308 -1.0944
 2623TIP3    H229361   5.737   4.258   4.790  2.9631 -2.0360  0.0184
 2624TIP3   OH229362   6.084   3.781   5.190  0.7913  0.7768  0.1401
 2624TIP3    H129363   5.990   3.795   5.176  0.6426  1.2789  1.4783
 2624TIP3    H229364   6.122   3.787   5.102 -0.2708  1.8321 -0.2787
 2625TIP3   OH229365   0.094   4.101  14.285  0.1985  0.0570 -0.1465
 2625TIP3    H129366   0.025   4.115  14.351 -0.0702  1.8162 -0.7689
 2625TIP3    H229367   0.057   4.035  14.226  0.6418 -1.9469  1.6712
 2626TIP3   OH229368   5.542   1.941   5.253 -0.5984 -0.1133  0.0693
 2626TIP3    H129369   5.623   1.900   5.222 -0.6673  0.8098 -1.4507
 2626TIP3    H229370   5.549   1.939   5.348  0.4478 -1.5206  0.0009
 2627TIP3   OH229371   0.310   7.130   1.643  0.4534  0.1101 -0.2945
 2627TIP3    H129372   0.319   7.191   1.570  1.6080 -0.8522 -0.9971
 2627TIP3    H229373   0.390   7.140   1.693 -0.0812  0.3452  0.5358
 2628TIP3   OH229374   2.642   0.043  14.280 -0.4060 -0.2418  0.3730
 2628TIP3    H129375   2.711   0.041  14.347  0.1075 -0.0259 -0.1468
 2628TIP3    H229376   2.689   0.041  14.197 -0.9133  2.1103 -0.0323
 2629TIP3   OH229377   6.506   1.569   9.882 -0.4825 -0.1963  0.0574
 2629TIP3    H129378   6.424   1.521   9.891 -0.0956 -0.9123 -0.1441
 2629TIP3    H229379   6.555   1.547   9.961  0.2065 -1.1514 -0.6178
 2630TIP3   OH229380   0.590   4.506   3.499 -0.1157  0.6849  0.7459
 2630TIP3    H129381   0.532   4.526   3.572 -2.4371 -0.4692 -0.6642
 2630TIP3    H229382   0.640   4.430   3.527  0.0166  1.0809  1.6074
 2631TIP3   OH229383   2.755   3.096   4.960 -0.1808  0.7571 -0.1670
 2631TIP3    H129384   2.731   3.179   5.001  1.3421  1.3410 -0.4011
 2631TIP3    H229385   2.738   3.110   4.867  1.0444  1.1906 -0.3401
 2632TIP3   OH229386   3.467   2.742  14.238  0.7021  0.5624  0.6112
 2632TIP3    H129387   3.384   2.764  14.195  1.3576 -0.2143 -1.1333
 2632TIP3    H229388   3.533   2.752  14.170  1.6987 -1.4464  1.1953
 2633TIP3   OH229389   2.594   4.172  12.791 -0.2089  0.2131  0.4857
 2633TIP3    H129390   2.579   4.089  12.836  0.7348 -0.3556 -0.2299
 2633TIP3    H229391   2.563   4.158  12.702  1.9271 -0.1114 -0.2650
 2634TIP3   OH229392   5.638   1.025  11.171  0.1969 -0.4493  0.3834
 2634TIP3    H129393   5.634   1.120  11.181 -2.0838 -0.2737 -1.3641
 2634TIP3    H229394   5.558   0.993  11.213  0.2912 -1.4729 -0.1757
 2635TIP3   OH229395   3.411   0.884   1.097 -0.5114  0.3488  0.2543
 2635TIP3    H129396   3.427   0.818   1.164 -1.6120 -0.4083 -0.2066
 2635TIP3    H229397   3.499   0.915   1.072 -0.0945  0.8267  2.1820
 2636TIP3   OH229398   1.923   1.712  10.936 -0.0646  0.9305  0.4286
 2636TIP3    H129399   1.969   1.628  10.933 -0.8680  0.4953  0.2617
 2636TIP3    H229400   1.970   1.767  10.873  1.5435  1.1839  1.7560
 2637TIP3   OH229401   3.028   2.424  12.614  0.1633 -0.2352  0.1134
 2637TIP3    H129402   3.081   2.475  12.676  0.6362 -0.9224  0.2898
 2637TIP3    H229403   2.940   2.427  12.650 -0.1965  1.8981 -0.7925
 2638TIP3   OH229404   2.850   5.957  11.694  0.1635 -0.1585 -0.5938
 2638TIP3    H129405   2.927   5.970  11.639  0.3459 -2.2987 -0.8979
 2638TIP3    H229406   2.794   5.899  11.644 -0.6333 -0.4369  0.5904
 2639TIP3   OH229407   5.004   1.553  10.450  0.6825 -0.7363 -0.1422
 2639TIP3    H129408   4.950   1.526  10.376  0.2171 -0.7797  0.2126
 2639TIP3    H229409   5.042   1.637  10.423 -0.2209 -0.2965 -0.0587
 2640TIP3   OH229410   0.950   1.804   1.434  0.2572  0.1592  0.0837
 2640TIP3    H129411   1.035   1.814   1.393  0.4687 -0.7041  0.2809
 2640TIP3    H229412   0.906   1.887   1.420  1.3832  0.8653  0.5711
 2641TIP3   OH229413   4.956   6.547  11.487  0.1241  0.3019  0.1849
 2641TIP3    H129414   4.962   6.469  11.431  0.4632  0.6713 -0.2945
 2641TIP3    H229415   4.988   6.619  11.432  0.4772  0.6662  0.8635
 2642TIP3   OH229416   2.560   6.742  14.737  0.1826 -0.4467  0.2436
 2642TIP3    H129417   2.566   6.837  14.739 -1.0694 -0.3451 -0.1916
 2642TIP3    H229418   2.627   6.713  14.799 -0.3037  0.7612  1.3959
 2643TIP3   OH229419   6.008   1.477  10.040  0.7076  0.2203 -0.2738
 2643TIP3    H129420   5.926   1.510  10.005 -0.1299  0.5342  1.8222
 2643TIP3    H229421   6.047   1.551  10.086 -0.0298 -0.9722  2.4536
 2644TIP3   OH229422   6.315   4.545  12.604  0.3051 -0.1688  0.4953
 2644TIP3    H129423   6.347   4.632  12.580  0.0460  0.0185  0.8148
 2644TIP3    H229424   6.333   4.538  12.697  2.6416 -1.4654  0.0064
 2645TIP3   OH229425   3.448   3.181  14.324  0.5105 -0.0153 -0.0330
 2645TIP3    H129426   3.438   3.194  14.230  2.8636  1.4285 -0.1852
 2645TIP3    H229427   3.371   3.131  14.350 -0.2878 -0.3291 -2.6798
 2646TIP3   OH229428   5.083   1.980  11.826 -0.3269 -0.1773  0.2626
 2646TIP3    H129429   4.998   1.957  11.863 -0.6622  1.3306  0.5247
 2646TIP3    H229430   5.064   2.006  11.736 -0.6252  2.5205  0.9896
 2647TIP3   OH229431   2.395   6.684   3.193 -0.9610  0.8474  0.2572
 2647TIP3    H129432   2.345   6.742   3.136 -0.9566  0.7972  0.2023
 2647TIP3    H229433   2.389   6.725   3.280 -3.0839 -0.3339  0.7606
 2648TIP3   OH229434   5.300   6.444  14.747 -0.1425 -0.1077 -0.6589
 2648TIP3    H129435   5.380   6.426  14.798  0.1444 -0.6768 -1.2961
 2648TIP3    H229436   5.236   6.471  14.813  0.3059 -0.5461 -0.0209
 2649TIP3   OH229437   6.717   1.589  14.136 -0.0739 -0.2520 -0.4872
 2649TIP3    H129438   6.701   1.641  14.058 -0.9115 -1.5558 -1.2281
 2649TIP3    H229439   6.650   1.617  14.198  0.5848  0.7767 -0.2218
 2650TIP3   OH229440   5.550   2.956   1.507 -0.4205 -0.5925 -0.1269
 2650TIP3    H129441   5.464   2.957   1.550  0.0620  0.7062  0.8687
 2650TIP3    H229442   5.538   3.009   1.428 -0.8087 -1.3757 -0.6125
 2651TIP3   OH229443   6.901   0.100  14.612 -0.2560 -0.1380 -0.9411
 2651TIP3    H129444   6.980   0.114  14.559  1.4482 -0.2306  1.4180
 2651TIP3    H229445   6.866   0.188  14.625 -0.5164 -0.0852 -1.9286
 2652TIP3   OH229446   0.740   6.466   3.214 -0.5117  0.5183 -0.1831
 2652TIP3    H129447   0.780   6.535   3.162 -1.7374  1.4892  0.1089
 2652TIP3    H229448   0.698   6.512   3.287  0.0992 -0.6911  0.9839
 2653TIP3   OH229449   2.737   3.811   1.050 -0.1992 -0.3257  0.4440
 2653TIP3    H129450   2.793   3.888   1.052  0.1849 -0.6157  1.1074
 2653TIP3    H229451   2.705   3.802   1.140  1.0906 -1.9014  0.7893
 2654TIP3   OH229452   3.401   1.090  14.270 -0.8767 -0.6087 -0.0030
 2654TIP3    H129453   3.333   1.158  14.278  0.4980  0.8733 -0.4929
 2654TIP3    H229454   3.436   1.080  14.359  0.6029  1.1718 -0.3388
 2655TIP3   OH229455   2.224   6.337   0.502 -0.9300 -0.3296 -0.0503
 2655TIP3    H129456   2.207   6.243   0.496  0.5212 -0.6127 -0.1420
 2655TIP3    H229457   2.204   6.370   0.414  1.3187 -1.0892 -0.9190
 2656TIP3   OH229458   4.521   6.964  11.938 -0.0831  0.2960  0.1273
 2656TIP3    H129459   4.430   6.976  11.967 -0.1354  1.6737 -0.5021
 2656TIP3    H229460   4.565   7.044  11.967 -0.0354  1.5974 -3.1066
 2657TIP3   OH229461   5.247   6.000  12.411 -0.8038 -0.2080  0.3206
 2657TIP3    H129462   5.156   6.023  12.390 -1.3282 -2.1172  0.2939
 2657TIP3    H229463   5.279   5.956  12.333 -0.5767 -1.4222  1.0667
 2658TIP3   OH229464   3.144   2.787   5.192  0.0714 -0.1096  0.4141
 2658TIP3    H129465   3.205   2.789   5.119  0.7478 -2.1044  0.8569
 2658TIP3    H229466   3.188   2.836   5.262  0.1135  0.4643 -0.0148
 2659TIP3   OH229467   5.666   0.517  12.191 -0.0656 -0.0998 -0.3672
 2659TIP3    H129468   5.578   0.530  12.227  0.4371 -1.0525  1.2631
 2659TIP3    H229469   5.719   0.489  12.265  1.0165 -2.1371 -1.8245
 2660TIP3   OH229470   6.065   4.839  12.135  0.0199  0.1727 -0.0757
 2660TIP3    H129471   6.023   4.924  12.128 -0.2988  0.3373  2.6410
 2660TIP3    H229472   6.013   4.792  12.201  1.4360 -1.3027  0.0540
 2661TIP3   OH229473   7.042   1.575  10.479 -0.0600  0.2535 -0.3596
 2661TIP3    H129474   7.020   1.533  10.562 -1.1655  0.6431 -0.4423
 2661TIP3    H229475   7.089   1.508  10.429  0.1572 -0.1475  0.3729
 2662TIP3   OH229476   1.390   7.140   1.838  0.0273 -0.4564  0.0523
 2662TIP3    H129477   1.464   7.161   1.895 -0.5920 -1.6819  1.3858
 2662TIP3    H229478   1.369   7.049   1.859 -1.7691 -0.1809 -0.3830
 2663TIP3   OH229479   6.027   6.635  11.025 -0.0639 -0.5844 -0.0069
 2663TIP3    H129480   5.942   6.623  10.982 -0.3602  0.9075  0.1229
 2663TIP3    H229481   6.020   6.586  11.107 -0.8443 -0.3700  0.0586
 2664TIP3   OH229482   3.130   3.302  11.543  0.0210 -0.1054 -0.0467
 2664TIP3    H129483   3.089   3.260  11.618  0.2688 -1.2133 -0.5105
 2664TIP3    H229484   3.070   3.372  11.518  0.1002  0.4984  1.3749
 2665TIP3   OH229485   0.935   5.348  10.739  0.1095  0.7059  0.1217
 2665TIP3    H129486   0.861   5.344  10.800 -0.8805 -0.5515 -1.0890
 2665TIP3    H229487   0.905   5.405  10.669 -0.7868 -1.7489 -1.6246
 2666TIP3   OH229488   4.604   4.202  12.962  0.3929 -0.2518  0.6846
 2666TIP3    H129489   4.584   4.278  13.016 -1.2302  0.5130 -0.8809
 2666TIP3    H229490   4.643   4.238  12.882 -1.5744 -0.8550 -0.6418
 2667TIP3   OH229491   2.615   3.213  11.438 -0.5374  0.0520  0.0425
 2667TIP3    H129492   2.594   3.306  11.437  4.5227  1.5210  0.3940
 2667TIP3    H229493   2.648   3.197  11.527  0.0988 -1.6672 -0.4692
 2668TIP3   OH229494   2.211   2.865  11.687 -0.4346 -0.5471 -0.1696
 2668TIP3    H129495   2.140   2.890  11.628  1.2499  1.2553 -1.5748
 2668TIP3    H229496   2.248   2.786  11.648 -0.7869 -0.7020 -0.1935
 2669TIP3   OH229497   2.484   2.374   9.536 -0.2189  0.2670  0.2049
 2669TIP3    H129498   2.472   2.279   9.535 -0.9244  0.3467  0.6024
 2669TIP3    H229499   2.417   2.407   9.476  0.4421  0.4808 -0.4360
 2670TIP3   OH229500   5.140   0.631  11.193  0.1024 -0.2469  0.5426
 2670TIP3    H129501   5.078   0.580  11.244 -0.6548  0.2155  0.0991
 2670TIP3    H229502   5.226   0.600  11.222 -0.2870  0.1253  2.2315
 2671TIP3   OH229503   2.842   2.173   3.355  0.7777 -0.0300  0.1023
 2671TIP3    H129504   2.880   2.127   3.280 -1.3860  1.1310 -1.8376
 2671TIP3    H229505   2.899   2.249   3.369 -0.0232  1.0199 -1.9511
 2672TIP3   OH229506   1.145   5.294   4.257  0.3939 -0.7042 -0.6354
 2672TIP3    H129507   1.114   5.331   4.174 -0.2394 -0.0316 -0.1091
 2672TIP3    H229508   1.070   5.299   4.315  1.3951  0.7821  0.6077
 2673TIP3   OH229509   6.692   0.997   0.715 -0.0380 -0.4064  0.1018
 2673TIP3    H129510   6.754   1.006   0.787  0.7244 -2.0795 -0.3039
 2673TIP3    H229511   6.635   1.074   0.723  1.1901  0.4282  1.3393
 2674TIP3   OH229512   0.957   4.528  11.436  0.4109  0.3606 -0.0680
 2674TIP3    H129513   0.911   4.461  11.486  1.3545  0.9789  1.7141
 2674TIP3    H229514   1.038   4.485  11.407  0.3421  0.3016 -0.1728
 2675TIP3   OH229515   3.606   0.341  14.772  0.5489 -0.0426  0.1810
 2675TIP3    H129516   3.670   0.271  14.791  1.4143  0.4727 -0.7724
 2675TIP3    H229517   3.533   0.296  14.729 -0.2606 -0.8105  2.2200
 2676TIP3   OH229518   2.718   0.644  13.750 -0.0946 -0.1729 -0.1584
 2676TIP3    H129519   2.709   0.738  13.733 -0.4280 -0.1347  0.2272
 2676TIP3    H229520   2.800   0.636  13.798 -1.1746  0.1954  1.8413
 2677TIP3   OH229521   3.512   3.036   3.629  0.4871 -0.1953 -0.1675
 2677TIP3    H129522   3.564   2.963   3.594  0.2461 -1.0175  1.1319
 2677TIP3    H229523   3.525   3.033   3.723  0.0258  1.1238 -0.0345
 2678TIP3   OH229524   5.498   3.941  12.750 -0.0037  0.4779 -0.3929
 2678TIP3    H129525   5.513   3.899  12.665 -2.3296  0.3646 -0.7957
 2678TIP3    H229526   5.558   3.895  12.810  2.2697  1.0828 -2.0489
 2679TIP3   OH229527   5.050   6.359   0.748  0.6637  0.0861  0.0199
 2679TIP3    H129528   4.978   6.309   0.787 -0.5619 -0.2323 -2.4124
 2679TIP3    H229529   5.114   6.293   0.722  0.3016  0.0348 -0.7570
 2680TIP3   OH229530   5.017   4.669  10.420 -0.0846 -0.4970  0.2782
 2680TIP3    H129531   4.991   4.761  10.423 -2.8158 -1.0361 -2.2182
 2680TIP3    H229532   5.082   4.660  10.489 -0.7966  2.9585  1.5888
 2681TIP3   OH229533   6.990   1.282  13.484  0.5414 -0.5893  0.1764
 2681TIP3    H129534   7.024   1.192  13.486 -1.2438 -1.4353 -2.2305
 2681TIP3    H229535   6.953   1.295  13.571  1.2962 -1.9994  0.7479
 2682TIP3   OH229536   6.414   1.635   0.301 -0.4813 -0.5071 -0.3905
 2682TIP3    H129537   6.423   1.551   0.255 -0.4471 -0.6566 -0.1167
 2682TIP3    H229538   6.363   1.613   0.380  1.3190 -0.6923  0.7692
 2683TIP3   OH229539   0.409   2.673  13.111  0.0709 -0.4074  0.4023
 2683TIP3    H129540   0.440   2.763  13.117 -0.9463 -0.0411  0.4082
 2683TIP3    H229541   0.371   2.667  13.023 -0.8376 -0.4955  0.7857
 2684TIP3   OH229542   6.860   7.138   0.172 -0.6539  0.1246 -0.4254
 2684TIP3    H129543   6.811   7.099   0.245  0.6379 -0.2140  0.3085
 2684TIP3    H229544   6.950   7.106   0.185 -0.1677  0.9964 -1.5100
 2685TIP3   OH229545   6.767   0.345  14.574 -0.2275  0.0625  0.1520
 2685TIP3    H129546   6.724   0.421  14.611  1.2341  1.5494 -1.0592
 2685TIP3    H229547   6.762   0.358  14.479  1.2339 -0.6298 -0.0557
 2686TIP3   OH229548   0.510   1.105  14.422 -0.5444 -0.6209 -0.4384
 2686TIP3    H129549   0.550   1.190  14.403  0.1312 -1.0044 -0.7697
 2686TIP3    H229550   0.435   1.100  14.362 -1.0885  0.0926  0.1665
 2687TIP3   OH229551   4.400   1.793  10.556 -0.0727 -0.6725  0.0551
 2687TIP3    H129552   4.476   1.764  10.506 -0.0205  1.9773 -1.5928
 2687TIP3    H229553   4.409   1.889  10.560 -2.2959 -0.4457  1.5557
 2688TIP3   OH229554   3.368   1.922  13.211 -0.6466 -0.2072 -0.1773
 2688TIP3    H129555   3.343   2.011  13.185 -1.8722 -0.5611 -0.3015
 2688TIP3    H229556   3.435   1.934  13.278 -0.8101  0.8153 -0.1833
 2689TIP3   OH229557   0.097   1.407  13.547  0.1605 -0.0773 -0.1071
 2689TIP3    H129558   0.062   1.320  13.530  0.0264  0.1090 -0.8394
 2689TIP3    H229559   0.078   1.423  13.640 -1.3370 -0.1500 -0.3645
 2690TIP3   OH229560   5.925   4.799  12.354  0.0427  0.4182 -0.0878
 2690TIP3    H129561   5.865   4.778  12.425 -0.2435  1.7118  0.0846
 2690TIP3    H229562   5.989   4.859  12.393  1.9104 -1.4804 -0.0846
 2691TIP3   OH229563   0.313   7.002   1.965  0.2868  0.4732  0.0366
 2691TIP3    H129564   0.333   7.009   2.059  1.7423 -1.5939 -0.0412
 2691TIP3    H229565   0.393   7.032   1.922  0.2704 -0.2542 -0.5041
 2692TIP3   OH229566   4.324   6.106   0.563 -0.3762 -0.1473 -0.0946
 2692TIP3    H129567   4.353   6.076   0.477 -0.2358 -0.5281  0.0867
 2692TIP3    H229568   4.259   6.173   0.543 -1.0012 -0.8601 -0.4996
 2693TIP3   OH229569   4.531   2.032  11.317 -0.0143  0.5117 -0.2751
 2693TIP3    H129570   4.523   1.973  11.243  0.9038 -1.0598  0.8311
 2693TIP3    H229571   4.481   1.989  11.387  0.7063  1.0183  0.5668
 2694TIP3   OH229572   6.552   6.300   2.350  0.0844  0.2596  0.2460
 2694TIP3    H129573   6.463   6.334   2.360  0.4267  0.7370  2.4019
 2694TIP3    H229574   6.551   6.216   2.395  1.1551  1.2482  2.3213
 2695TIP3   OH229575   6.295   0.998  11.872  0.1502 -0.3216  0.1854
 2695TIP3    H129576   6.386   1.025  11.859  0.2822 -0.9931 -0.3731
 2695TIP3    H229577   6.246   1.080  11.876  0.4102  0.0526 -2.3947
 2696TIP3   OH229578   1.312   3.992   9.691  0.0815 -0.0291 -0.8791
 2696TIP3    H129579   1.388   4.042   9.661  0.7353  0.3614  1.2234
 2696TIP3    H229580   1.350   3.918   9.739 -0.8034  0.6731  0.9996
 2697TIP3   OH229581   2.769   5.386  14.866  0.1670 -0.1259 -0.3076
 2697TIP3    H129582   2.821   5.425  14.936  0.2097 -0.8422  0.0756
 2697TIP3    H229583   2.834   5.362  14.799 -0.0243  2.0053 -1.3499
 2698TIP3   OH229584   6.556   2.455   4.233  0.2117  0.1103  0.2845
 2698TIP3    H129585   6.621   2.388   4.253 -0.0193  0.3291  1.9071
 2698TIP3    H229586   6.603   2.520   4.180  0.6685 -0.8722 -0.5342
 2699TIP3   OH229587   7.082   6.018  10.778  0.2717 -0.0235 -0.5549
 2699TIP3    H129588   7.085   6.114  10.774  0.3638  0.0260  0.4804
 2699TIP3    H229589   7.173   5.991  10.761  0.7952  0.2004  1.6595
 2700TIP3   OH229590   3.752   6.545  11.951  0.1539  0.1499 -0.5220
 2700TIP3    H129591   3.788   6.571  12.036 -2.1029 -1.3945  1.0159
 2700TIP3    H229592   3.759   6.624  11.897  1.3389  1.2804  1.1691
 2701TIP3   OH229593   1.093   5.005   0.875  0.8849  0.7556 -0.3781
 2701TIP3    H129594   1.141   5.073   0.828 -1.2854  2.1576 -0.7417
 2701TIP3    H229595   1.144   4.990   0.955  2.3029  1.5528 -1.0886
 2702TIP3   OH229596   0.418   5.798  11.312  0.7263 -0.5318 -0.8861
 2702TIP3    H129597   0.492   5.783  11.371 -0.1509  1.6808  0.8959
 2702TIP3    H229598   0.343   5.764  11.360  0.0059  1.2387 -0.6925
 2703TIP3   OH229599   2.916   4.823  15.526 -0.2459  0.5796  0.0825
 2703TIP3    H129600   2.897   4.881  15.452  0.9997  0.7401 -0.1341
 2703TIP3    H229601   2.981   4.870  15.578  1.7534 -1.0760 -0.7732
 2704TIP3   OH229602   2.147   4.529  15.057  0.1919 -0.4163  0.1894
 2704TIP3    H129603   2.140   4.433  15.064  1.6828 -0.6496 -1.0841
 2704TIP3    H229604   2.159   4.545  14.964  0.7439  0.9679  0.4880
 2705TIP3   OH229605   0.304   6.485  12.458  0.4922  0.5120  0.3898
 2705TIP3    H129606   0.371   6.474  12.391  1.4040 -3.3361  1.7026
 2705TIP3    H229607   0.339   6.552  12.517  2.5067 -0.3708  0.2510
 2706TIP3   OH229608   6.252   3.184  12.554 -0.0590 -0.1105 -0.0183
 2706TIP3    H129609   6.291   3.105  12.516 -0.7267 -0.7803  0.6467
 2706TIP3    H229610   6.237   3.161  12.646 -0.7736  0.6009  0.0501
 2707TIP3   OH229611   6.008   0.931  12.099 -0.2218  0.3295  0.6391
 2707TIP3    H129612   5.970   0.972  12.021 -0.4211 -0.0473  0.5336
 2707TIP3    H229613   6.042   0.847  12.068  2.9946  1.6715  0.1665
 2708TIP3   OH229614   3.993   3.689   5.079  0.6848 -0.1979  0.1462
 2708TIP3    H129615   3.901   3.706   5.059 -0.4416 -3.0489  2.1627
 2708TIP3    H229616   4.016   3.754   5.145  0.3296  0.8863 -0.7688
 2709TIP3   OH229617   2.693   4.622   2.809 -0.1591  0.6978 -0.3242
 2709TIP3    H129618   2.724   4.543   2.764  1.2655  0.6524  0.6650
 2709TIP3    H229619   2.608   4.596   2.845  0.6430 -0.7234  0.6907
 2710TIP3   OH229620   2.430   4.280  13.608  0.9736  0.4046 -0.0916
 2710TIP3    H129621   2.447   4.347  13.542 -0.3761  3.3589  2.3576
 2710TIP3    H229622   2.342   4.249  13.589  0.7225  0.9986  0.0811
 2711TIP3   OH229623   5.700   6.015  14.241  0.5101  0.3302  0.2957
 2711TIP3    H129624   5.606   6.005  14.250  0.2882  2.3693  0.4901
 2711TIP3    H229625   5.734   5.925  14.249 -1.3874 -0.4445  0.1312
 2712TIP3   OH229626   1.518   5.317  11.998 -0.8965 -0.4567  0.4206
 2712TIP3    H129627   1.577   5.245  12.020  2.1513  0.9222 -2.2259
 2712TIP3    H229628   1.473   5.338  12.080  1.5002 -2.3924  2.3919
 2713TIP3   OH229629   4.320   2.345   0.678 -0.2221 -0.2109 -0.1108
 2713TIP3    H129630   4.248   2.282   0.679 -0.6561  0.1995 -1.8054
 2713TIP3    H229631   4.279   2.429   0.702  0.0089 -0.2409  0.4108
 2714TIP3   OH229632   4.454   6.510  11.834 -0.0745 -0.1601 -0.0002
 2714TIP3    H129633   4.457   6.599  11.870 -1.3335  0.4747 -1.3316
 2714TIP3    H229634   4.487   6.519  11.744  1.2185 -1.3418  0.3237
 2715TIP3   OH229635   0.949   2.290   9.969 -0.4467  0.1342  0.2180
 2715TIP3    H129636   1.013   2.242   9.917 -1.5409 -1.5728  0.3811
 2715TIP3    H229637   0.918   2.228  10.034 -1.8208  1.1017  0.5410
 2716TIP3   OH229638   1.892   0.788  13.971 -0.3371 -0.4297  0.1131
 2716TIP3    H129639   1.969   0.746  13.932  0.3250  1.2591 -0.5065
 2716TIP3    H229640   1.925   0.828  14.051 -0.2828  1.2387 -0.7082
 2717TIP3   OH229641   5.116   5.294  11.283  0.3911  0.3973 -0.1727
 2717TIP3    H129642   5.021   5.297  11.296  0.2911 -2.2518  0.4112
 2717TIP3    H229643   5.133   5.355  11.212 -1.6409  1.4579  0.1708
 2718TIP3   OH229644   2.639   5.532  15.622 -0.4716 -0.0489 -0.4184
 2718TIP3    H129645   2.695   5.518  15.546 -0.8519  0.5185 -0.8063
 2718TIP3    H229646   2.692   5.502  15.696 -0.6306 -1.9969 -1.0239
 2719TIP3   OH229647   4.869   0.100   3.288  0.1686  0.5304 -0.2865
 2719TIP3    H129648   4.835   0.030   3.345 -1.6801  1.1579 -0.5506
 2719TIP3    H229649   4.838   0.181   3.328  0.2615  1.0756 -1.2818
 2720TIP3   OH229650   6.557   2.534  12.963  0.0210  0.6107 -0.5022
 2720TIP3    H129651   6.643   2.568  12.986  0.1498 -1.1301  2.1317
 2720TIP3    H229652   6.568   2.439  12.961 -2.1249  0.1820  1.9131
 2721TIP3   OH229653   4.348   6.925  15.692 -0.4895  0.4807  0.2802
 2721TIP3    H129654   4.297   6.844  15.687 -0.4727  0.5402 -1.3918
 2721TIP3    H229655   4.431   6.903  15.650 -0.4228  1.3316 -0.0403
 2722TIP3   OH229656   0.635   0.200  11.924  0.0453 -0.0179 -0.2554
 2722TIP3    H129657   0.642   0.238  11.836 -0.1262  1.0628  0.1887
 2722TIP3    H229658   0.590   0.267  11.976  2.2870  0.4005  1.2690
 2723TIP3   OH229659   1.895   3.323  14.264 -0.1253  0.6297  0.1341
 2723TIP3    H129660   1.858   3.336  14.176 -0.1184 -0.4483 -0.0431
 2723TIP3    H229661   1.849   3.246  14.298  0.5711  0.4508  0.6944
 2724TIP3   OH229662   0.205   0.545  10.527 -0.8501  0.4963 -0.9600
 2724TIP3    H129663   0.233   0.604  10.457  0.6234 -0.4704 -1.2070
 2724TIP3    H229664   0.271   0.477  10.530 -0.8361  0.5215  1.4274
 2725TIP3   OH229665   3.853   3.578  11.858 -0.3941  0.2262  0.6078
 2725TIP3    H129666   3.884   3.661  11.896 -1.5904  2.0227 -2.0189
 2725TIP3    H229667   3.917   3.559  11.789  1.1089 -2.3491  2.5521
 2726TIP3   OH229668   5.495   2.509   0.408  0.1462 -0.3441 -0.8663
 2726TIP3    H129669   5.462   2.424   0.381  0.9710 -0.4393 -1.6303
 2726TIP3    H229670   5.568   2.527   0.348  1.6016 -0.2280  0.8441
 2727TIP3   OH229671   5.646   3.065  15.086  0.1449  0.3617  0.4226
 2727TIP3    H129672   5.669   3.059  14.993  0.0147 -0.8268  0.4428
 2727TIP3    H229673   5.677   2.982  15.122  2.7900  1.9359  2.0473
 2728TIP3   OH229674   3.123   2.228   0.013 -0.3483  0.0371 -0.5115
 2728TIP3    H129675   3.059   2.185  -0.043 -0.7657  0.4867 -0.3827
 2728TIP3    H229676   3.078   2.239   0.097  0.6054 -1.5441  0.2575
 2729TIP3   OH229677   4.190   4.442   5.844  0.3172 -0.1102 -0.2230
 2729TIP3    H129678   4.171   4.462   5.935 -0.5213 -0.0371 -0.4087
 2729TIP3    H229679   4.285   4.429   5.842  0.5502  1.3461  0.3743
 2730TIP3   OH229680   6.332   3.610  13.118  0.4607  0.0207 -0.0045
 2730TIP3    H129681   6.312   3.642  13.030 -0.6384 -0.0682  0.1941
 2730TIP3    H229682   6.355   3.518  13.106 -0.9269 -0.3493 -0.0989
 2731TIP3   OH229683   1.684   5.782   2.053  0.0103  0.3201  0.1494
 2731TIP3    H129684   1.674   5.876   2.034  0.8103  0.0649 -1.7254
 2731TIP3    H229685   1.760   5.778   2.112  0.7877  0.7821 -0.7891
 2732TIP3   OH229686   5.789   1.095  10.334 -0.6389 -0.1664 -0.1357
 2732TIP3    H129687   5.822   1.052  10.413 -2.1856 -2.7110 -0.7404
 2732TIP3    H229688   5.836   1.178  10.330  0.3445 -0.4702  2.7919
 2733TIP3   OH229689   1.873   4.823  11.845  0.3415 -0.0455 -0.3067
 2733TIP3    H129690   1.811   4.793  11.911  0.4985  0.1304 -0.0760
 2733TIP3    H229691   1.870   4.918  11.850 -0.9799  0.0272 -1.8088
 2734TIP3   OH229692   7.130   3.439   4.487 -0.6315  0.3228 -0.9937
 2734TIP3    H129693   7.066   3.466   4.553 -2.1319 -0.1031 -2.2321
 2734TIP3    H229694   7.078   3.403   4.415  1.0343 -0.8070 -1.7101
 2735TIP3   OH229695   3.346   1.310   0.169  0.0997 -0.2398 -0.1149
 2735TIP3    H129696   3.312   1.392   0.207  0.3044 -0.3533  0.3251
 2735TIP3    H229697   3.339   1.247   0.241 -0.4369 -0.7147 -0.5740
 2736TIP3   OH229698   7.071   0.875  11.824  0.0874  0.7369  0.3519
 2736TIP3    H129699   7.074   0.939  11.895  3.0052 -0.7275  1.7061
 2736TIP3    H229700   7.150   0.822  11.835 -2.1493 -3.2150 -0.6077
 2737TIP3   OH229701   4.471   3.606  13.033  0.3789  0.2147 -0.5948
 2737TIP3    H129702   4.528   3.660  13.088  1.4108 -0.5997 -0.8281
 2737TIP3    H229703   4.512   3.520  13.033 -1.1088 -0.5134 -0.4367
 2738TIP3   OH229704   1.771   1.510  12.503 -0.3171  0.6786  0.5545
 2738TIP3    H129705   1.714   1.586  12.505 -3.5603 -1.5320 -0.2301
 2738TIP3    H229706   1.749   1.461  12.583 -0.9806 -1.1486 -0.6884
 2739TIP3   OH229707   4.958   0.739  14.119  0.1998  0.4162 -0.8137
 2739TIP3    H129708   5.038   0.760  14.070  1.3926 -2.3968 -0.2624
 2739TIP3    H229709   4.961   0.796  14.195  1.2297  0.9822 -1.2566
 2740TIP3   OH229710   1.401   2.437  13.560  0.2604  0.2104 -0.2993
 2740TIP3    H129711   1.397   2.343  13.576  1.2248  0.2108  0.0003
 2740TIP3    H229712   1.400   2.477  13.648  0.6516  0.4348 -0.3911
 2741TIP3   OH229713   1.922   6.610   1.577  0.3225  0.1247  0.1108
 2741TIP3    H129714   1.975   6.608   1.658  0.6809  0.4932 -0.1107
 2741TIP3    H229715   1.938   6.525   1.536  0.0949 -0.0877  0.4516
 2742TIP3   OH229716   1.438   3.513  11.584 -0.1345 -0.1110 -0.1791
 2742TIP3    H129717   1.478   3.451  11.522 -1.6022 -0.1178 -1.1703
 2742TIP3    H229718   1.495   3.510  11.660  1.3635 -0.6225 -1.2635
 2743TIP3   OH229719   5.903   1.495  11.865  0.4123 -0.1915 -0.4625
 2743TIP3    H129720   5.947   1.410  11.866  1.0978  0.0870 -2.5915
 2743TIP3    H229721   5.892   1.516  11.772 -1.0403  1.4047  0.0115
 2744TIP3   OH229722   0.759   3.044  10.895  0.0419  0.3255  0.0698
 2744TIP3    H129723   0.817   3.075  10.826  0.5296  1.5600  0.9913
 2744TIP3    H229724   0.785   3.094  10.973 -1.7661  0.3748  0.6970
 2745TIP3   OH229725   0.672   2.328  10.134  0.3018 -0.7496 -0.3918
 2745TIP3    H129726   0.710   2.246  10.102  0.5546 -0.1464 -1.7146
 2745TIP3    H229727   0.639   2.371  10.055  1.2907  0.9766  0.0862
 2746TIP3   OH229728   4.036   4.669  10.139  0.0976 -0.6205  0.2778
 2746TIP3    H129729   4.107   4.604  10.134  0.1685 -0.4584 -0.9646
 2746TIP3    H229730   4.034   4.694  10.231  1.2943 -1.0330  0.4329
 2747TIP3   OH229731   5.453   4.388  14.273  0.5835  0.0416  0.0062
 2747TIP3    H129732   5.365   4.426  14.277 -0.4279 -2.2208  0.8714
 2747TIP3    H229733   5.443   4.313  14.214  1.7823 -0.5606  0.5438
 2748TIP3   OH229734   4.880   5.653  11.965 -0.0386 -0.1813 -0.1678
 2748TIP3    H129735   4.814   5.721  11.951 -0.8929 -1.1141 -0.8013
 2748TIP3    H229736   4.833   5.583  12.009 -0.1822 -1.9231 -2.8574
 2749TIP3   OH229737   2.933   0.883  12.988  0.1990  0.3485  0.6465
 2749TIP3    H129738   2.850   0.917  12.955  0.1342 -0.6140 -0.2466
 2749TIP3    H229739   2.912   0.851  13.076 -0.7594 -1.2065 -0.1061
 2750TIP3   OH229740   1.791   0.604  13.672  0.6419  0.2072  0.0884
 2750TIP3    H129741   1.816   0.599  13.580  0.7163  1.3236  0.0304
 2750TIP3    H229742   1.752   0.519  13.691 -2.8099  1.1135 -1.9948
 2751TIP3   OH229743   6.290   3.215  12.822 -0.2230  0.3085 -0.1746
 2751TIP3    H129744   6.217   3.236  12.881  0.3635  0.7188  0.4238
 2751TIP3    H229745   6.333   3.299  12.807 -0.2674  0.1757 -1.0680
 2752TIP3   OH229746   5.701   0.656  10.779 -0.2479 -0.8268  0.2438
 2752TIP3    H129747   5.643   0.729  10.754  0.2022  0.1325  1.8300
 2752TIP3    H229748   5.766   0.696  10.837  0.3734 -2.3994  0.6886
 2753TIP3   OH229749   2.117   4.822   4.880  0.2729 -0.1669 -0.4941
 2753TIP3    H129750   2.056   4.896   4.884 -0.7637 -1.0014 -0.5339
 2753TIP3    H229751   2.189   4.853   4.825 -0.0593  0.8679 -0.3729
 2754TIP3   OH229752   2.179   7.076  12.514  0.7642  0.2870  0.1274
 2754TIP3    H129753   2.180   7.170  12.533  0.8321  0.3653 -0.2733
 2754TIP3    H229754   2.173   7.035  12.601  2.2453  0.6170  0.4203
 2755TIP3   OH229755   0.323   4.277  13.629  0.1083 -0.5081  0.1538
 2755TIP3    H129756   0.280   4.203  13.587 -1.8371  0.5822  0.0699
 2755TIP3    H229757   0.305   4.351  13.570  0.2930  0.3966  1.2059
 2756TIP3   OH229758   1.067   1.565  15.750  0.2707 -0.9964 -0.0070
 2756TIP3    H129759   1.097   1.655  15.734  1.3802 -1.2797  0.3685
 2756TIP3    H229760   1.074   1.554  15.845 -1.4680 -0.9468  0.1450
 2757TIP3   OH229761   3.641   5.737  14.799  0.6341  0.1947 -0.2124
 2757TIP3    H129762   3.703   5.803  14.831  0.2170 -0.1251  1.3722
 2757TIP3    H229763   3.664   5.658  14.848 -1.6019  0.3119  1.1677
 2758TIP3   OH229764   0.460   2.684  11.387  0.0124 -0.2267 -0.1989
 2758TIP3    H129765   0.508   2.616  11.341  2.5113 -0.4140  2.3691
 2758TIP3    H229766   0.391   2.637  11.435  0.2952 -0.6475 -0.2036
 2759TIP3   OH229767   1.233   2.262  12.977 -0.0389  0.1476 -0.2311
 2759TIP3    H129768   1.209   2.354  12.969  0.2452  0.4021  1.5036
 2759TIP3    H229769   1.232   2.229  12.887 -0.7480  1.6786 -0.8164
 2760TIP3   OH229770   1.226   1.294  11.160 -0.0497 -0.1525  0.2073
 2760TIP3    H129771   1.207   1.211  11.116 -3.2214 -2.2628  4.6762
 2760TIP3    H229772   1.310   1.281  11.203 -0.2466 -0.9003  0.3789
 2761TIP3   OH229773   2.257   0.159  10.858  0.4272 -0.0637  0.0710
 2761TIP3    H129774   2.338   0.125  10.820 -0.2473 -0.6837 -0.8593
 2761TIP3    H229775   2.222   0.088  10.911 -0.3293 -0.4020 -0.8495
 2762TIP3   OH229776   4.113   0.970  15.051 -0.1187  0.1214  0.0880
 2762TIP3    H129777   4.164   1.046  15.080  1.4972 -1.0362  0.3663
 2762TIP3    H229778   4.177   0.910  15.014 -1.2754 -1.4104  0.4674
 2763TIP3   OH229779   0.999   3.619  14.978 -0.5011 -0.2439 -0.1576
 2763TIP3    H129780   0.996   3.602  15.072 -0.2647 -0.0492 -0.1147
 2763TIP3    H229781   0.965   3.708  14.969 -1.1563 -0.5023 -0.3231
 2764TIP3   OH229782   2.449   3.038  12.716  0.2599 -0.2742 -0.2552
 2764TIP3    H129783   2.458   3.128  12.686 -0.2152 -0.5788 -1.3585
 2764TIP3    H229784   2.521   2.991  12.673 -0.2217 -0.6498 -0.6669
 2765TIP3   OH229785   3.393   3.368  11.621  0.2262 -0.3729  0.0678
 2765TIP3    H129786   3.361   3.453  11.592 -0.2756 -0.5730  0.0082
 2765TIP3    H229787   3.323   3.307  11.597  1.5325 -1.1590 -1.9727
 2766TIP3   OH229788   3.592   0.639  15.212  0.0370 -0.4521  0.0392
 2766TIP3    H129789   3.582   0.642  15.308 -1.4774 -0.7864 -0.0720
 2766TIP3    H229790   3.684   0.618  15.198  0.7995  1.6776  1.3798
 2767TIP3   OH229791   1.804   4.787  14.474  0.0431  0.1208 -0.0948
 2767TIP3    H129792   1.735   4.783  14.409  0.5851  0.9016 -0.7437
 2767TIP3    H229793   1.861   4.713  14.454  2.0081  2.1205 -2.6673
 2768TIP3   OH229794   0.425   1.299  11.428 -0.4212  0.7512  0.1531
 2768TIP3    H129795   0.472   1.311  11.510  2.7224  0.4819 -1.4418
 2768TIP3    H229796   0.471   1.227  11.384 -0.8090  2.0527 -2.5928
 2769TIP3   OH229797   2.303   5.289  10.401 -1.0662  0.3418 -0.2206
 2769TIP3    H129798   2.264   5.353  10.342 -1.3388 -0.0520 -0.4680
 2769TIP3    H229799   2.265   5.310  10.487 -1.2016  0.4649 -0.3107
 2770TIP3   OH229800   1.512   2.825   2.074  0.0929 -0.3073  0.6805
 2770TIP3    H129801   1.436   2.790   2.121 -2.0501  0.5381 -1.8778
 2770TIP3    H229802   1.564   2.869   2.141 -0.6880 -2.4320  2.8227
 2771TIP3   OH229803   6.037   2.800  10.451 -0.0074  0.4557 -0.1101
 2771TIP3    H129804   6.131   2.815  10.457  0.1164 -0.8647  2.3677
 2771TIP3    H229805   6.029   2.716  10.404  0.0649  0.3559  0.0576
 2772TIP3   OH229806   1.592   7.088  15.125 -0.2250  0.8606  0.1026
 2772TIP3    H129807   1.651   7.090  15.200  0.3559  1.2254 -0.3468
 2772TIP3    H229808   1.516   7.040  15.155  0.2703  0.4491  0.7280
 2773TIP3   OH229809   3.247   6.529  14.589  0.9402 -0.5095 -0.6983
 2773TIP3    H129810   3.221   6.476  14.514 -1.9593 -2.0703  1.2302
 2773TIP3    H229811   3.333   6.495  14.615  1.1361 -1.1955 -2.1831
 2774TIP3   OH229812   7.123   5.433  13.170  0.1681 -0.5702 -0.4378
 2774TIP3    H129813   7.104   5.512  13.220  0.9554 -0.1480 -0.7801
 2774TIP3    H229814   7.069   5.365  13.210 -0.6694  0.1792 -0.2634
 2775TIP3   OH229815   1.726   0.657  12.220  0.8074  0.1906  0.1561
 2775TIP3    H129816   1.796   0.666  12.285 -1.0053  0.5916  2.1659
 2775TIP3    H229817   1.688   0.744  12.213  1.2942  0.2703 -1.8979
 2776TIP3   OH229818   5.095   1.801  12.204  0.2435  0.3708 -0.2754
 2776TIP3    H129819   5.023   1.750  12.168  0.9575 -1.1046  0.3064
 2776TIP3    H229820   5.148   1.738  12.252  0.7345  1.7891  1.1779
 2777TIP3   OH229821   1.868   5.857  13.927 -0.1694 -0.4665 -0.1693
 2777TIP3    H129822   1.779   5.888  13.910  0.3067 -0.7680 -4.2793
 2777TIP3    H229823   1.858   5.764  13.948 -0.8454 -0.8059 -1.8259
 2778TIP3   OH229824   3.518   5.851   0.240 -0.8589  0.2982 -0.7236
 2778TIP3    H129825   3.463   5.790   0.289 -1.6329  1.3622 -0.2029
 2778TIP3    H229826   3.485   5.847   0.150  1.0124 -2.1703 -1.3921
 2779TIP3   OH229827   3.015   1.700  14.033 -0.0780 -0.0068 -0.4160
 2779TIP3    H129828   3.106   1.731  14.031 -0.2187  0.3476 -1.7304
 2779TIP3    H229829   3.023   1.605  14.035  0.3238  0.0232  1.2082
 2780TIP3   OH229830   1.948   2.055  11.889  0.5563 -0.5077  0.6358
 2780TIP3    H129831   1.886   1.994  11.929  1.4295 -1.1150  1.0896
 2780TIP3    H229832   1.991   2.098  11.963 -1.1240  1.8776  0.3831
 2781TIP3   OH229833   4.470   3.877   0.879 -0.4964 -0.1405  0.4743
 2781TIP3    H129834   4.425   3.900   0.798 -2.4023 -0.3300  1.4306
 2781TIP3    H229835   4.562   3.870   0.854 -0.5138  3.1598 -0.9634
 2782TIP3   OH229836   4.058   3.942   9.906 -0.1799  0.1700 -0.5823
 2782TIP3    H129837   4.092   3.880   9.840 -0.9535 -0.6858 -0.2052
 2782TIP3    H229838   4.050   3.889   9.985 -0.5861  0.8447 -0.1718
 2783TIP3   OH229839   4.665   3.686  14.358  0.1272  0.1272  0.1141
 2783TIP3    H129840   4.579   3.645  14.368 -0.3777  0.8971 -0.9154
 2783TIP3    H229841   4.645   3.775  14.329  1.3162 -0.3389 -2.3225
 2784TIP3   OH229842   4.375   1.288  11.883 -0.3235 -1.2545 -0.2548
 2784TIP3    H129843   4.326   1.209  11.908  1.7166 -2.9084 -1.1795
 2784TIP3    H229844   4.422   1.262  11.804  1.1787  0.5852 -0.0245
 2785TIP3   OH229845   2.373   2.670  10.812  0.4889  0.5641  0.2693
 2785TIP3    H129846   2.467   2.680  10.797  0.3718  1.7852  0.2334
 2785TIP3    H229847   2.337   2.653  10.725  0.8649 -1.8419  0.5248
 2786TIP3   OH229848   5.244   3.418  13.110 -0.2749 -0.4041 -0.0015
 2786TIP3    H129849   5.254   3.475  13.187  1.0068 -1.0145  0.3055
 2786TIP3    H229850   5.179   3.353  13.136 -0.8710  0.2139  0.0667
 2787TIP3   OH229851   1.075   5.785  10.755 -0.5184 -0.7483  0.4037
 2787TIP3    H129852   1.109   5.708  10.710  0.1597  0.3862 -1.1241
 2787TIP3    H229853   1.130   5.792  10.834  0.8185 -0.6910 -0.4882
 2788TIP3   OH229854   5.765   4.014  10.342 -0.4607 -0.1241 -0.6599
 2788TIP3    H129855   5.721   4.016  10.257  0.5993  0.3517 -1.2186
 2788TIP3    H229856   5.808   3.928  10.344 -0.2647 -0.0263 -0.7152
 2789TIP3   OH229857   5.583   4.338   3.751  0.1324  0.1514  0.2561
 2789TIP3    H129858   5.522   4.321   3.823  0.1577  0.0234  0.2479
 2789TIP3    H229859   5.605   4.431   3.760  2.7967 -0.5700  2.4759
 2790TIP3   OH229860   4.558   6.209   9.820  0.1868 -0.2072 -0.4275
 2790TIP3    H129861   4.607   6.291   9.808  0.0895 -0.3749 -2.2229
 2790TIP3    H229862   4.519   6.192   9.735  0.0544 -2.0480 -0.0287
 2791TIP3   OH229863   2.620   0.745  15.685 -0.5166  0.8056 -0.0813
 2791TIP3    H129864   2.660   0.810  15.627  0.6593  0.2990  0.1301
 2791TIP3    H229865   2.685   0.674  15.689 -1.8036 -0.4273 -0.3832
 2792TIP3   OH229866   3.870   1.793  13.433 -0.2910 -0.4239  0.4727
 2792TIP3    H129867   3.861   1.699  13.416  0.9443 -0.5383  0.3293
 2792TIP3    H229868   3.964   1.810  13.421 -0.6805  1.0690 -0.7310
 2793TIP3   OH229869   3.979   4.024  10.750  0.3593  0.4143 -0.4857
 2793TIP3    H129870   3.905   4.035  10.809  0.1904  1.1666 -0.8313
 2793TIP3    H229871   4.009   3.934  10.765 -0.5065  0.1676 -0.2103
 2794TIP3   OH229872   0.692   3.317   4.315 -0.4684 -0.3011  0.2067
 2794TIP3    H129873   0.658   3.341   4.401  1.3083  1.3999  0.5185
 2794TIP3    H229874   0.634   3.360   4.253 -1.1241 -0.6301  0.5857
 2795TIP3   OH229875   6.249   1.515  10.648 -0.0645  0.5649 -0.5737
 2795TIP3    H129876   6.223   1.592  10.698  0.3621  0.3448 -0.0080
 2795TIP3    H229877   6.325   1.544  10.597  2.4076 -0.3889  2.3143
 2796TIP3   OH229878   0.084   5.341  11.741 -0.0423 -0.5332 -0.6553
 2796TIP3    H129879   0.116   5.375  11.825 -1.3729 -1.3237  0.1975
 2796TIP3    H229880   0.030   5.412  11.706 -1.1501 -0.9503  0.1520
 2797TIP3   OH229881   1.478   3.201  11.407 -0.1278  0.1669  0.1410
 2797TIP3    H129882   1.566   3.176  11.436 -0.6348 -1.5663  0.3451
 2797TIP3    H229883   1.474   3.170  11.316 -0.7456 -0.4100  0.3565
 2798TIP3   OH229884   0.123   3.185   4.393 -1.0186 -1.0053  0.1706
 2798TIP3    H129885   0.167   3.138   4.463  0.2604  1.1129  0.8601
 2798TIP3    H229886   0.095   3.267   4.432 -4.6420 -1.6937 -0.5514
 2799TIP3   OH229887   4.019   4.946   0.402 -0.4912  0.7306  0.1793
 2799TIP3    H129888   4.084   4.922   0.468 -1.9323 -1.6230  0.8568
 2799TIP3    H229889   3.955   4.999   0.450  0.9295  3.2863 -0.5485
 2800TIP3   OH229890   2.708   6.231   9.803 -0.3336 -0.2216  0.2104
 2800TIP3    H129891   2.739   6.146   9.771 -1.6860 -0.3738 -0.8256
 2800TIP3    H229892   2.618   6.213   9.832 -0.3445  0.6896  0.7497
 2801TIP3   OH229893   6.854   4.065  12.898  0.2681  0.2136  0.2689
 2801TIP3    H129894   6.796   4.140  12.907 -0.8080 -0.2488 -2.0534
 2801TIP3    H229895   6.898   4.077  12.814  0.6892 -1.3288  0.2229
 2802TIP3   OH229896   1.072   1.073  13.580  0.4028  0.3194 -0.3020
 2802TIP3    H129897   1.045   1.163  13.595  0.3872 -0.1587  3.5908
 2802TIP3    H229898   1.167   1.077  13.571  0.3292  0.7474 -1.0065
 2803TIP3   OH229899   4.125   4.356  12.159 -0.4624 -0.0301  0.2439
 2803TIP3    H129900   4.200   4.299  12.172  0.1582  0.7775  0.3193
 2803TIP3    H229901   4.155   4.442  12.188 -0.9622  0.6005 -1.0127
 2804TIP3   OH229902   1.086   5.066  10.009  0.2056  0.8297 -0.3074
 2804TIP3    H129903   1.178   5.091  10.016  0.3935  0.0591  0.1026
 2804TIP3    H229904   1.086   4.989   9.952 -0.0488  0.1707  0.5553
 2805TIP3   OH229905   1.760   1.914  11.278  0.5626  0.0974  0.1908
 2805TIP3    H129906   1.757   1.823  11.247 -0.3638  0.3980 -0.6626
 2805TIP3    H229907   1.849   1.943  11.259  0.4454 -0.1921 -0.8429
 2806TIP3   OH229908   2.050   3.302  13.379 -0.5340 -0.5515 -0.4496
 2806TIP3    H129909   1.962   3.326  13.405  0.7614  3.4632  1.0301
 2806TIP3    H229910   2.048   3.303  13.283 -1.6575  1.8586 -0.4630
 2807TIP3   OH229911   5.522   6.025  10.574 -0.1501 -0.2661  0.0620
 2807TIP3    H129912   5.507   6.107  10.620  0.9676  0.5043 -0.8991
 2807TIP3    H229913   5.469   6.031  10.494 -0.1839 -0.5438  0.0602
 2808TIP3   OH229914   0.188   1.763  13.395 -0.0092 -0.0444 -0.3616
 2808TIP3    H129915   0.144   1.765  13.310  0.0033 -1.3116 -0.4071
 2808TIP3    H229916   0.260   1.701  13.384  0.0207 -0.1823  0.5604
 2809TIP3   OH229917   5.350   5.938   9.754 -0.6336 -0.1224  0.4100
 2809TIP3    H129918   5.368   5.845   9.740  1.7052  0.1370  1.1883
 2809TIP3    H229919   5.279   5.940   9.819 -0.0912 -1.3894  1.0724
 2810TIP3   OH229920   0.687   2.039  14.931 -0.4298 -0.0899  0.4245
 2810TIP3    H129921   0.603   2.079  14.911 -1.0170 -0.8758  1.2086
 2810TIP3    H229922   0.688   1.958  14.881  0.7353  0.8278 -1.1282
 2811TIP3   OH229923   1.249   3.702  12.393  0.1378 -0.0036 -0.4551
 2811TIP3    H129924   1.269   3.795  12.397  0.3342 -0.0858  0.6733
 2811TIP3    H229925   1.320   3.665  12.339  0.2193  0.4475 -0.6623
 2812TIP3   OH229926   5.174   0.166  12.316  0.1755 -0.4176  0.2355
 2812TIP3    H129927   5.096   0.171  12.261 -0.1889 -0.6668  0.7233
 2812TIP3    H229928   5.207   0.077  12.303  0.4100 -0.2944 -0.0129
 2813TIP3   OH229929   2.703   1.804  10.824 -0.1641 -0.6111  0.0121
 2813TIP3    H129930   2.784   1.774  10.866 -0.1585 -1.0520 -0.3144
 2813TIP3    H229931   2.694   1.749  10.747  0.6137  1.1486 -1.4058
 2814TIP3   OH229932   5.055   0.672  14.424 -0.0497 -0.0704  0.6280
 2814TIP3    H129933   5.103   0.625  14.356 -1.1866  0.4391 -0.5563
 2814TIP3    H229934   5.034   0.756  14.385  0.0097  0.5831  1.9297
 2815TIP3   OH229935   4.275   1.835  15.272  0.3577 -0.5197  0.5740
 2815TIP3    H129936   4.348   1.881  15.313  1.2336 -1.1450 -0.2411
 2815TIP3    H229937   4.214   1.817  15.344  1.4346 -0.8175  1.4334
 2816TIP3   OH229938   6.289   3.727  13.662  0.4029  0.5343  0.3642
 2816TIP3    H129939   6.228   3.775  13.718  0.2419  1.0906 -0.2853
 2816TIP3    H229940   6.233   3.680  13.600  0.6079  0.4313  0.2552
 2817TIP3   OH229941   2.441   6.240   9.814  0.2806 -0.0229 -0.1968
 2817TIP3    H129942   2.374   6.173   9.796  0.5179 -0.3453  0.1081
 2817TIP3    H229943   2.403   6.321   9.780 -1.2235  0.2448  1.8801
 2818TIP3   OH229944   4.025   3.997   0.747  0.4719  0.3437  0.5025
 2818TIP3    H129945   4.044   3.969   0.837 -3.1267  1.0122  1.6294
 2818TIP3    H229946   4.033   3.918   0.694 -1.4980 -1.1182  2.2177
 2819TIP3   OH229947   1.582   6.191  13.546  0.8403 -0.0657 -0.4897
 2819TIP3    H129948   1.541   6.105  13.534  1.8157 -0.4973 -0.8432
 2819TIP3    H229949   1.603   6.195  13.639  1.4271 -0.5112 -0.5989
 2820TIP3   OH229950   3.580   4.360  10.764  0.1711 -0.7652  0.1759
 2820TIP3    H129951   3.571   4.272  10.802 -1.2192  0.2787  2.5107
 2820TIP3    H229952   3.674   4.377  10.763  0.4373 -2.1269  0.0233
 2821TIP3   OH229953   6.904   1.897  14.207 -0.2105 -0.1799  0.0592
 2821TIP3    H129954   6.834   1.959  14.225 -1.6125 -1.4461 -0.7435
 2821TIP3    H229955   6.861   1.824  14.162  1.3791 -1.6865  0.8328
 2822TIP3   OH229956   6.110   5.801  12.733 -0.5100 -0.0233 -0.5115
 2822TIP3    H129957   6.153   5.747  12.667 -0.7077 -0.5988 -0.1765
 2822TIP3    H229958   6.042   5.848  12.684  1.1659  1.7699 -1.2804
 2823TIP3   OH229959   4.978   6.662  10.940  0.0209  0.3584 -0.3755
 2823TIP3    H129960   4.897   6.701  10.973  0.7618  1.0394  0.7031
 2823TIP3    H229961   5.043   6.733  10.945  0.8904 -0.4128 -0.4014
 2824TIP3   OH229962   1.939   2.400  10.165 -0.2461  0.5173  0.3455
 2824TIP3    H129963   1.893   2.320  10.190 -0.4064  0.5749  0.2383
 2824TIP3    H229964   1.883   2.440  10.099  0.8280 -0.3272 -1.1270
 2825TIP3   OH229965   3.178   5.557  14.136  0.1052  0.0958 -1.1355
 2825TIP3    H129966   3.242   5.520  14.076  0.1273  1.3294 -1.9109
 2825TIP3    H229967   3.118   5.485  14.155  0.1782 -0.3568 -2.5398
 2826TIP3   OH229968   1.489   1.197  12.307  0.0801 -0.5558  0.0008
 2826TIP3    H129969   1.543   1.201  12.227 -0.4344  1.8617 -0.3208
 2826TIP3    H229970   1.402   1.174  12.276  0.0928 -0.5810 -0.0154
 2827TIP3   OH229971   6.160   0.628  12.490  0.4616 -0.0893 -0.5691
 2827TIP3    H129972   6.071   0.635  12.457 -0.5090 -3.6011  0.8451
 2827TIP3    H229973   6.179   0.714  12.527 -2.0053  0.9972 -1.6054
 2828TIP3   OH229974   4.041   2.157   9.820 -0.5410 -0.1497 -0.1637
 2828TIP3    H129975   3.951   2.137   9.793 -0.2527  1.0206 -2.1814
 2828TIP3    H229976   4.032   2.229   9.881 -1.1384 -2.1530  2.2672
 2829TIP3   OH229977   0.838   5.770  10.497  0.7992 -0.3899  0.4101
 2829TIP3    H129978   0.751   5.753  10.461 -0.4445  1.2004  2.4461
 2829TIP3    H229979   0.889   5.800  10.422 -1.9311  3.7664 -0.1337
 2830TIP3   OH229980   5.301   4.488   9.467  0.0565  0.0385 -0.2934
 2830TIP3    H129981   5.396   4.480   9.466 -0.0127 -1.1189  0.2569
 2830TIP3    H229982   5.284   4.581   9.451  1.3463  0.7101  1.9128
 2831TIP3   OH229983   3.175   0.796  10.936 -0.3987  0.1346 -0.0496
 2831TIP3    H129984   3.188   0.873  10.881  1.3072 -0.4134 -0.4752
 2831TIP3    H229985   3.102   0.820  10.994  0.4010  2.2713  0.1805
 2832TIP3   OH229986   2.280   2.604  10.520 -0.3677 -0.1784  0.1531
 2832TIP3    H129987   2.349   2.540  10.538  0.1644 -0.0248 -1.2421
 2832TIP3    H229988   2.207   2.552  10.486 -0.1915 -0.1302 -0.3072
 2833TIP3   OH229989   2.739   6.542   0.767  0.0121  0.0198  0.0715
 2833TIP3    H129990   2.688   6.599   0.710 -0.0688  0.8148  0.9267
 2833TIP3    H229991   2.697   6.549   0.852  0.8159 -0.2833  0.5016
 2834TIP3   OH229992   6.131   2.904  13.519 -0.5212 -0.1489 -0.3195
 2834TIP3    H129993   6.055   2.876  13.469 -1.7049 -0.8759  1.7577
 2834TIP3    H229994   6.142   2.836  13.586  2.1502 -0.2089 -0.7135
 2835TIP3   OH229995   0.065   2.890  12.414  0.0304  0.2252 -0.2526
 2835TIP3    H129996  -0.008   2.841  12.453 -0.7872  0.2521 -1.6948
 2835TIP3    H229997   0.143   2.849  12.451 -0.6951  0.1689  1.3025
 2836TIP3   OH229998   2.702   5.379  11.673  0.5377  0.0756  0.8059
 2836TIP3    H129999   2.732   5.382  11.582  0.4403 -0.7805  0.7424
 2836TIP3    H230000   2.781   5.394  11.725  1.0353 -1.7668  0.6340
 2837TIP3   OH230001   3.696   6.841  14.203 -0.4916  0.5001  0.1045
 2837TIP3    H130002   3.730   6.929  14.186  0.0559  0.4065  0.6782
 2837TIP3    H230003   3.759   6.782  14.161  0.3910  0.3054  1.6116
 2838TIP3   OH230004   6.228   3.303  15.739  0.1946  0.1561 -0.0240
 2838TIP3    H130005   6.185   3.283  15.656  1.1830  0.9559 -0.7579
 2838TIP3    H230006   6.304   3.356  15.714  0.3925  0.5819  1.4118
 2839TIP3   OH230007   0.695   3.431  12.293 -0.0049  0.2293  0.1324
 2839TIP3    H130008   0.744   3.384  12.225 -0.5735  0.5037 -0.4838
 2839TIP3    H230009   0.603   3.423  12.266 -0.1156  1.8361 -0.1042
 2840TIP3   OH230010   3.862   2.933  13.420  0.5363  0.4665 -0.0290
 2840TIP3    H130011   3.778   2.893  13.401  1.3876 -2.4100  1.6577
 2840TIP3    H230012   3.847   2.984  13.500  0.0145  1.5404 -0.7909
 2841TIP3   OH230013   1.921   5.714  11.391 -0.4684 -0.0046 -0.2057
 2841TIP3    H130014   1.979   5.705  11.467 -0.1620  0.7314 -0.3457
 2841TIP3    H230015   1.846   5.659  11.412 -0.5743  0.4997  0.8156
 2842TIP3   OH230016   5.876   0.123  10.793 -0.1460  0.0219  0.0747
 2842TIP3    H130017   5.852   0.215  10.807  0.8313  0.3086 -0.0736
 2842TIP3    H230018   5.971   0.121  10.803 -0.0997 -0.8816 -0.4401
 2843TIP3   OH230019   4.973   5.839   1.412  0.1597  0.4470 -0.2353
 2843TIP3    H130020   4.891   5.885   1.427  0.1115 -0.2402  1.9672
 2843TIP3    H230021   5.041   5.905   1.426  0.0113  0.6038 -0.2583
 2844TIP3   OH230022   6.834   4.231  13.286  0.0542  0.0885 -0.4736
 2844TIP3    H130023   6.916   4.197  13.323 -1.2917 -1.8578  0.9259
 2844TIP3    H230024   6.850   4.324  13.273  1.7776  0.1784  1.7536
 2845TIP3   OH230025   5.283   2.943   1.282  0.1929  0.2719 -0.5550
 2845TIP3    H130026   5.353   2.879   1.271  1.1441  1.2846 -0.5857
 2845TIP3    H230027   5.328   3.027   1.291 -1.0576  1.1820 -2.1277
 2846TIP3   OH230028   7.070   3.346   0.552 -0.3402 -0.3957  0.1189
 2846TIP3    H130029   7.125   3.311   0.622 -1.2745  0.6595  1.4308
 2846TIP3    H230030   7.120   3.418   0.515 -1.6933  2.2762  3.0128
 2847TIP3   OH230031   3.916   6.680  15.680 -0.4162  0.5364 -0.0772
 2847TIP3    H130032   3.857   6.755  15.680 -1.2516 -0.1080 -0.0624
 2847TIP3    H230033   3.884   6.625  15.752 -0.2895 -0.1937 -0.5681
 2848TIP3   OH230034   3.498   6.790   4.270  0.4006  0.0757 -0.1730
 2848TIP3    H130035   3.573   6.748   4.229  0.6434  0.1669  0.1740
 2848TIP3    H230036   3.437   6.719   4.289 -0.4168  0.1843 -2.1008
 2849TIP3   OH230037   1.621   6.322  12.523  0.4530  0.4248 -0.1800
 2849TIP3    H130038   1.715   6.311  12.542  0.9463  1.7911 -1.5834
 2849TIP3    H230039   1.586   6.234  12.527  1.7457 -0.0929  0.6333
 2850TIP3   OH230040   1.002   6.235  11.494  0.0867 -0.4319 -0.3618
 2850TIP3    H130041   1.017   6.306  11.431  1.2606  0.9935  1.4038
 2850TIP3    H230042   0.954   6.169  11.445 -1.1198  1.5920 -2.1065
 2851TIP3   OH230043   5.690   5.556   9.575 -0.3231 -0.1418 -0.0892
 2851TIP3    H130044   5.665   5.505   9.652 -1.7408 -1.7705 -1.5403
 2851TIP3    H230045   5.754   5.502   9.530  0.3314  0.7016 -0.1935
 2852TIP3   OH230046   6.961   5.753  13.838 -0.0686  0.0654 -0.6185
 2852TIP3    H130047   6.887   5.724  13.892 -0.0336  0.1667 -0.5166
 2852TIP3    H230048   6.971   5.684  13.772  0.8490 -0.8111  0.4011
 2853TIP3   OH230049   5.908   1.580  11.574 -0.0030 -0.2344  0.4006
 2853TIP3    H130050   5.835   1.596  11.514 -0.4319 -0.0892  0.9595
 2853TIP3    H230051   5.914   1.659  11.627  2.0536  0.7679 -1.1421
 2854TIP3   OH230052   0.169   5.046  13.260 -0.2571  0.2552  0.7217
 2854TIP3    H130053   0.096   5.020  13.316 -1.4040  0.6394 -0.5337
 2854TIP3    H230054   0.168   5.142  13.264 -0.4533  0.2912 -0.0514
 2855TIP3   OH230055   5.967   4.537   2.795 -0.5170  0.4468  0.5443
 2855TIP3    H130056   5.919   4.533   2.713 -1.2853  0.3714  0.9829
 2855TIP3    H230057   6.028   4.610   2.784 -1.2964  1.0657  0.2680
 2856TIP3   OH230058   6.398   0.797  10.066 -0.8261 -0.3926 -0.7164
 2856TIP3    H130059   6.370   0.730  10.128  0.8337 -1.1206 -0.6928
 2856TIP3    H230060   6.417   0.874  10.120 -1.8950 -0.1584 -0.6476
 2857TIP3   OH230061   1.284   6.214  11.290 -0.3648 -0.6936  0.4468
 2857TIP3    H130062   1.342   6.280  11.327  0.0860 -1.6147  1.4562
 2857TIP3    H230063   1.227   6.262  11.230  0.4927  0.4591  0.5199
 2858TIP3   OH230064   1.247   3.164  14.827  0.0311 -0.2856  0.3578
 2858TIP3    H130065   1.152   3.167  14.818  0.0269 -0.6028  0.3025
 2858TIP3    H230066   1.272   3.256  14.837 -0.1233 -0.0194 -1.3329
 2859TIP3   OH230067   0.515   0.190  10.110  0.2204  0.0424  0.4406
 2859TIP3    H130068   0.450   0.151  10.169  0.2836 -0.2963  0.2890
 2859TIP3    H230069   0.571   0.243  10.167 -0.3784  0.5945  0.5312
 2860TIP3   OH230070   4.028   2.881  12.752  0.3423  0.0989 -0.2333
 2860TIP3    H130071   3.943   2.924  12.737  0.0892 -0.8372 -1.6913
 2860TIP3    H230072   4.090   2.934  12.703  0.1912 -0.5883 -1.1909
 2861TIP3   OH230073   6.855   1.813  10.162 -0.3341  0.0602  0.7166
 2861TIP3    H130074   6.842   1.725  10.196  0.7318 -1.3717 -2.2226
 2861TIP3    H230075   6.940   1.810  10.118 -1.2464  1.8511 -1.4087
 2862TIP3   OH230076   5.917   6.720  13.850  0.2335  0.1403 -0.0214
 2862TIP3    H130077   5.998   6.735  13.801 -0.2023  1.2850 -0.4255
 2862TIP3    H230078   5.876   6.645  13.806  1.4274 -0.9818  0.6843
 2863TIP3   OH230079   4.991   6.476  12.937 -0.3887  0.0503 -0.3479
 2863TIP3    H130080   5.014   6.548  12.996  0.0549  0.3491 -0.8669
 2863TIP3    H230081   4.924   6.513  12.880 -1.6749 -0.6000  0.7012
 2864TIP3   OH230082   3.282   3.882  13.165 -0.1885  0.2660 -0.1229
 2864TIP3    H130083   3.364   3.930  13.178 -1.1491  1.7353  0.7980
 2864TIP3    H230084   3.246   3.871  13.253 -0.6651 -0.9784 -0.4498
 2865TIP3   OH230085   6.924   6.051  15.377  0.6826  0.6487 -0.0156
 2865TIP3    H130086   6.938   5.988  15.307  2.0552  3.5448 -2.5860
 2865TIP3    H230087   6.992   6.032  15.441  0.2640 -1.2079 -0.0770
 2866TIP3   OH230088   3.214   5.113  14.339  0.0927 -0.0554 -0.3498
 2866TIP3    H130089   3.137   5.132  14.285 -0.8040 -0.9028  0.5836
 2866TIP3    H230090   3.179   5.067  14.415  1.2656  1.4692  1.1841
 2867TIP3   OH230091   5.186   1.870  14.011 -0.2374  0.0761  0.2860
 2867TIP3    H130092   5.104   1.830  14.040 -1.5577  0.8419 -2.0382
 2867TIP3    H230093   5.251   1.800  14.016 -1.0955 -0.6580  1.8409
 2868TIP3   OH230094   6.069   3.315   4.373 -0.3081 -0.4479  0.1409
 2868TIP3    H130095   6.083   3.277   4.286 -0.3631  1.5094 -0.7689
 2868TIP3    H230096   6.157   3.324   4.409 -0.3743 -3.7006  1.4904
 2869TIP3   OH230097   1.334   3.395  11.896  0.1933  0.1816  0.2045
 2869TIP3    H130098   1.322   3.472  11.841 -0.6958 -0.2397 -0.2254
 2869TIP3    H230099   1.282   3.327  11.853  0.7495 -0.5888  0.7163
 2870TIP3   OH230100   6.648   1.823  11.131 -0.2400 -0.2980  0.3405
 2870TIP3    H130101   6.734   1.853  11.102 -0.0444  1.6575  2.6198
 2870TIP3    H230102   6.654   1.727  11.128  1.1350 -0.2062 -1.8222
 2871TIP3   OH230103   2.977   2.469  14.207 -0.4003  0.3345  0.0241
 2871TIP3    H130104   2.971   2.426  14.122  2.1969 -3.7647  1.6017
 2871TIP3    H230105   2.910   2.426  14.260  0.8403 -0.3320  1.1055
 2872TIP3   OH230106   5.217   1.229  15.054 -0.3615  0.9829  1.2310
 2872TIP3    H130107   5.178   1.144  15.074  0.8234  0.0789 -0.0306
 2872TIP3    H230108   5.255   1.259  15.136 -0.8493  0.3239  1.7044
 2873TIP3   OH230109   2.095   0.335  14.491  0.8518  0.5013  0.0463
 2873TIP3    H130110   2.017   0.378  14.456  1.2484  0.3459 -1.0778
 2873TIP3    H230111   2.117   0.385  14.569 -1.8949 -1.0254  1.9732
 2874TIP3   OH230112   3.365   3.538  13.910 -0.3233 -0.5439  0.2565
 2874TIP3    H130113   3.422   3.513  13.838 -0.5686 -2.6284  0.7321
 2874TIP3    H230114   3.277   3.542  13.872 -0.4694 -1.7565  0.4321
 2875TIP3   OH230115   2.899   2.858  15.333  0.5572  0.3882  0.5514
 2875TIP3    H130116   2.951   2.882  15.410 -0.4286  1.8113  0.7912
 2875TIP3    H230117   2.808   2.868  15.361  0.1837  1.0309 -0.8236
 2876TIP3   OH230118   3.438   4.295  11.393 -0.2021 -0.0311 -0.2282
 2876TIP3    H130119   3.512   4.256  11.346  0.7282  2.5229 -1.0900
 2876TIP3    H230120   3.361   4.251  11.358  0.5845  0.6171 -3.0639
 2877TIP3   OH230121   0.027   2.466   1.644  0.7116  0.9345  0.5101
 2877TIP3    H130122   0.002   2.404   1.713  2.8374 -2.7395 -1.6804
 2877TIP3    H230123  -0.056   2.498   1.609 -0.4414  1.0541  3.1508
 2878TIP3   OH230124   0.603   3.690   3.044  0.1482 -0.2633  0.1668
 2878TIP3    H130125   0.613   3.784   3.028  0.6661 -0.5379 -1.3823
 2878TIP3    H230126   0.514   3.670   3.014  0.3063 -0.3825 -0.2358
 2879TIP3   OH230127   4.846   3.797   1.239  0.0015 -0.0341 -0.3212
 2879TIP3    H130128   4.757   3.767   1.223  0.2312 -0.2028 -1.3493
 2879TIP3    H230129   4.837   3.865   1.305 -0.7666 -0.8039  0.4051
 2880TIP3   OH230130   4.157   2.012  15.121  0.0459  0.1641 -0.1937
 2880TIP3    H130131   4.181   1.921  15.141 -0.2305  0.3685  1.1707
 2880TIP3    H230132   4.160   2.057  15.205  0.5224  1.5196 -0.9076
 2881TIP3   OH230133   1.130   2.396  10.897  0.0484 -0.0741 -0.1203
 2881TIP3    H130134   1.219   2.417  10.869  0.0359 -0.3196 -0.3433
 2881TIP3    H230135   1.131   2.412  10.992  0.6251 -1.0694  0.0515
 2882TIP3   OH230136   2.255   6.102  10.531  0.3093  0.8372 -0.0900
 2882TIP3    H130137   2.307   6.022  10.537  1.0894  1.4078  1.3671
 2882TIP3    H230138   2.195   6.097  10.606  1.6239  2.4149  1.1592
 2883TIP3   OH230139   5.998   3.981  15.055 -0.0119 -0.0939  0.1229
 2883TIP3    H130140   6.007   4.036  14.977 -0.0168 -1.0819 -0.6094
 2883TIP3    H230141   5.915   3.935  15.043 -0.7214  0.7989  1.4315
 2884TIP3   OH230142   0.978   2.719   1.365  0.1168  0.3069  0.0983
 2884TIP3    H130143   0.981   2.662   1.288  0.0698 -1.6051  1.4492
 2884TIP3    H230144   1.048   2.783   1.350  0.7462 -0.6212 -1.0755
 2885TIP3   OH230145   6.645   3.099  12.502 -0.3258  0.1246  0.3104
 2885TIP3    H130146   6.592   3.058  12.570  2.0155 -0.8536  1.6629
 2885TIP3    H230147   6.727   3.121  12.546  1.7935 -1.6663 -2.4275
 2886TIP3   OH230148   3.985   6.281   0.599  0.0213  0.6571 -0.3340
 2886TIP3    H130149   3.923   6.215   0.568 -2.2190  1.8305  1.3615
 2886TIP3    H230150   4.018   6.322   0.519 -0.6260 -0.6482 -1.3114
 2887TIP3   OH230151   5.026   2.108  13.987  0.2751  0.2848 -0.5614
 2887TIP3    H130152   5.063   2.020  13.993  0.7711  0.5366  0.1465
 2887TIP3    H230153   4.948   2.097  13.932  1.5151 -0.2080 -2.3141
 2888TIP3   OH230154   6.289   6.112   1.853 -0.3564 -0.1199  0.3369
 2888TIP3    H130155   6.228   6.112   1.780  0.3797  0.1951 -0.2888
 2888TIP3    H230156   6.254   6.176   1.915 -0.5810  0.1674 -0.0860
 2889TIP3   OH230157   4.915   2.576   1.683  0.0496  0.0665  0.0405
 2889TIP3    H130158   4.947   2.486   1.685  0.3879  0.1872  0.1080
 2889TIP3    H230159   4.843   2.577   1.746 -0.0464 -0.1905 -0.0639
 2890TIP3   OH230160   6.852   3.937  10.355 -0.3510 -0.3912  0.3244
 2890TIP3    H130161   6.828   3.857  10.309 -2.6793 -0.0408  0.8211
 2890TIP3    H230162   6.878   3.908  10.443  3.0345 -0.9438 -0.6888
 2891TIP3   OH230163   6.755   6.287   9.878 -0.5238 -0.0421 -0.6134
 2891TIP3    H130164   6.836   6.253   9.918 -0.4544 -0.4209 -1.0647
 2891TIP3    H230165   6.784   6.362   9.827 -0.7195  0.9057  0.6189
 2892TIP3   OH230166   5.501   6.356   0.138 -0.4475 -0.2363  0.0192
 2892TIP3    H130167   5.546   6.416   0.079  0.9959 -1.0347  0.2590
 2892TIP3    H230168   5.472   6.284   0.083 -2.1959  0.6168 -0.2712
 2893TIP3   OH230169   0.065   1.619  10.793  0.2932  0.2077  0.6681
 2893TIP3    H130170   0.064   1.691  10.856 -0.1628 -0.4995  1.4942
 2893TIP3    H230171   0.143   1.633  10.741  0.9745  0.5167  1.7472
 2894TIP3   OH230172   2.048   1.727  12.491  0.3589 -0.6196 -0.2408
 2894TIP3    H130173   2.050   1.758  12.582 -0.0326 -0.5699 -0.2480
 2894TIP3    H230174   2.028   1.634  12.499  3.4298 -1.3718 -0.1109
 2895TIP3   OH230175   3.354   0.044   0.520  0.3490 -0.4466  0.2554
 2895TIP3    H130176   3.369   0.029   0.426  0.2177 -2.3187  0.4838
 2895TIP3    H230177   3.344  -0.044   0.556 -3.4991  0.3130  1.4224
 2896TIP3   OH230178   4.800   6.403   1.059 -0.1216  0.7049  0.1386
 2896TIP3    H130179   4.750   6.484   1.070 -0.8075  0.4631 -1.0156
 2896TIP3    H230180   4.872   6.410   1.122 -1.0430  1.5149  1.1409
 2897TIP3   OH230181   3.369   4.087  14.324 -0.1663  0.7913  0.4955
 2897TIP3    H130182   3.312   4.138  14.266  2.1946  1.0182 -1.7982
 2897TIP3    H230183   3.449   4.075  14.274  1.3432 -0.6412  3.0683
 2898TIP3   OH230184   4.705   6.507  10.727 -0.0997 -0.5426 -0.1404
 2898TIP3    H130185   4.710   6.535  10.819 -0.4631  2.3766 -0.8977
 2898TIP3    H230186   4.766   6.434  10.721  0.4147 -0.4006  2.2933
 2899TIP3   OH230187   3.576   3.377  15.658  0.4955  0.3793 -0.5775
 2899TIP3    H130188   3.601   3.373  15.565  2.0728  1.5062 -0.2284
 2899TIP3    H230189   3.581   3.469  15.681  3.3014 -0.1656  1.4279
 2900TIP3   OH230190   3.231   6.244  12.077 -0.2765 -0.4545  0.3693
 2900TIP3    H130191   3.184   6.169  12.041 -0.2703 -1.7841  2.8637
 2900TIP3    H230192   3.320   6.235  12.043 -0.9425  0.1403 -1.6581
 2901TIP3   OH230193   2.796   4.285   0.311 -0.8543 -0.6759  0.0404
 2901TIP3    H130194   2.744   4.363   0.288  0.5934  0.1619 -0.5101
 2901TIP3    H230195   2.731   4.215   0.318 -2.1885  0.5445  0.4409
 2902TIP3   OH230196   0.250   4.701  10.307  0.1396  0.1347 -0.2401
 2902TIP3    H130197   0.200   4.732  10.232 -1.5219  0.3698  0.9194
 2902TIP3    H230198   0.308   4.634  10.271 -1.2565 -0.3987 -1.5934
 2903TIP3   OH230199   4.544   3.867  10.285 -0.4014  0.0049  0.0646
 2903TIP3    H130200   4.570   3.919  10.362  1.5058  1.1842 -1.2826
 2903TIP3    H230201   4.505   3.931  10.226  2.7760  0.2573 -1.9950
 2904TIP3   OH230202   1.421   5.645   3.460 -0.2881  0.0474 -0.2249
 2904TIP3    H130203   1.341   5.593   3.468  0.9657 -1.7692  1.5756
 2904TIP3    H230204   1.462   5.639   3.547  1.2165  1.9092 -0.7510
 2905TIP3   OH230205   6.652   0.183   5.024 -0.1094 -0.3517  0.0662
 2905TIP3    H130206   6.688   0.115   5.083  0.7434 -0.2917 -0.3632
 2905TIP3    H230207   6.615   0.134   4.951 -2.7520 -0.5316  1.4114
 2906TIP3   OH230208   2.622   2.661   9.580  0.0629  0.6114  0.1661
 2906TIP3    H130209   2.614   2.565   9.579  0.0956  0.5966 -1.2399
 2906TIP3    H230210   2.554   2.690   9.641 -0.7187 -0.2674 -0.2506
 2907TIP3   OH230211   1.234   0.237   1.069  0.2558 -0.0937  0.5716
 2907TIP3    H130212   1.245   0.234   0.974 -0.0009  0.2593  0.5286
 2907TIP3    H230213   1.139   0.233   1.082  0.2520  0.6277  0.7786
 2908TIP3   OH230214   4.077   3.151  12.636  0.9050 -0.2323 -0.6558
 2908TIP3    H130215   4.019   3.158  12.560 -0.7511  2.0575  0.6582
 2908TIP3    H230216   4.165   3.155  12.599  0.1678  0.5037 -2.4977
 2909TIP3   OH230217   6.938   1.629  13.712 -0.0169  0.3928 -0.0080
 2909TIP3    H130218   6.956   1.536  13.726 -0.2162 -0.0333 -2.2150
 2909TIP3    H230219   7.005   1.657  13.649 -0.0832  1.7144  0.4770
 2910TIP3   OH230220   1.823   1.155  13.844  0.1526 -0.2184 -1.0043
 2910TIP3    H130221   1.833   1.104  13.764  0.0247  0.4271 -1.4335
 2910TIP3    H230222   1.909   1.153  13.885  0.0774 -1.0127 -0.8731
 2911TIP3   OH230223   2.455   6.048  14.091 -0.0497 -0.2623 -0.4637
 2911TIP3    H130224   2.526   6.019  14.148  0.5769 -0.1286 -1.1593
 2911TIP3    H230225   2.498   6.071  14.009 -1.1102 -1.9204 -1.5479
 2912TIP3   OH230226   2.580   4.175   0.088 -0.6721  0.2585 -0.6345
 2912TIP3    H130227   2.648   4.200   0.026  0.4248  0.7581  0.7172
 2912TIP3    H230228   2.603   4.085   0.114 -1.1022  0.0657 -0.9109
 2913TIP3   OH230229   1.846   0.617  14.857  0.2210 -0.4453  0.3405
 2913TIP3    H130230   1.872   0.648  14.944 -0.1672 -2.7308  1.3394
 2913TIP3    H230231   1.754   0.641  14.849 -0.0628 -1.2610  1.0699
 2914TIP3   OH230232   5.694   4.197  11.853 -0.4640 -0.2337 -0.1800
 2914TIP3    H130233   5.631   4.268  11.840 -0.5889 -0.1135  0.9247
 2914TIP3    H230234   5.668   4.129  11.791 -1.9776 -0.3693  0.5623
 2915TIP3   OH230235   0.333   1.121  14.213  0.5988 -0.0932  0.1428
 2915TIP3    H130236   0.362   1.146  14.125  0.0678 -0.1429 -0.0483
 2915TIP3    H230237   0.324   1.025  14.210  0.9855 -0.1388  0.3751
 2916TIP3   OH230238   0.385   1.826  11.308 -0.2876  0.0039 -0.2666
 2916TIP3    H130239   0.385   1.910  11.354 -0.4366 -0.1817  0.0832
 2916TIP3    H230240   0.419   1.764  11.373  0.8836 -0.0192 -0.8797
 2917TIP3   OH230241   6.226   5.887  10.474 -0.2766 -0.3672  0.3914
 2917TIP3    H130242   6.226   5.863  10.566 -0.2636  0.7182  0.6830
 2917TIP3    H230243   6.237   5.982  10.473 -0.7505 -0.3033 -0.7103
 2918TIP3   OH230244   6.963   7.044  12.336 -1.1492  0.7014 -0.2114
 2918TIP3    H130245   6.966   7.139  12.326  2.2294  0.8396  0.9273
 2918TIP3    H230246   7.014   7.027  12.415  1.1990 -2.2082 -2.1498
 2919TIP3   OH230247   0.655   2.611   1.953  0.0305 -1.0180 -0.2381
 2919TIP3    H130248   0.659   2.684   1.891  0.3565  0.4153  1.3980
 2919TIP3    H230249   0.745   2.600   1.983 -0.1621 -1.5250  0.1648
 2920TIP3   OH230250   1.535   4.903  14.934  0.3539  1.1088  0.4590
 2920TIP3    H130251   1.576   4.988  14.922 -1.3954  1.8404 -0.8007
 2920TIP3    H230252   1.563   4.852  14.857  1.8514  0.3119  1.4913
 2921TIP3   OH230253   1.484   0.943  12.802 -0.3060  0.5281 -0.3564
 2921TIP3    H130254   1.415   0.983  12.856  0.8052 -0.3833  1.8655
 2921TIP3    H230255   1.438   0.880  12.747 -1.3417  0.3769  0.6443
 2922TIP3   OH230256   6.668   0.146  10.079  0.7827 -0.4373 -0.6513
 2922TIP3    H130257   6.660   0.104   9.994 -2.1155  1.1280 -1.2851
 2922TIP3    H230258   6.663   0.074  10.142 -0.9174 -1.3572 -1.7482
 2923TIP3   OH230259   2.745   0.442  10.982  0.2685  0.2434 -0.0996
 2923TIP3    H130260   2.822   0.475  11.028 -0.9568 -0.7598  2.8963
 2923TIP3    H230261   2.692   0.520  10.967  0.9629  0.6737 -0.3742
 2924TIP3   OH230262   1.052   3.919  12.722 -0.8922  0.8723 -0.5083
 2924TIP3    H130263   1.143   3.948  12.730  0.3428 -2.3470 -1.3036
 2924TIP3    H230264   1.045   3.846  12.782 -2.4070 -0.0497 -1.7445
 2925TIP3   OH230265   2.653   2.245  14.142  0.1004  0.5839 -0.0572
 2925TIP3    H130266   2.733   2.291  14.117 -0.1109  1.0918  0.1951
 2925TIP3    H230267   2.588   2.274  14.078  0.9172 -2.5488 -2.5874
 2926TIP3   OH230268   5.937   0.509  13.480 -0.2262  0.0410 -0.2511
 2926TIP3    H130269   5.876   0.498  13.553 -0.8722 -0.6912 -0.8775
 2926TIP3    H230270   6.005   0.568  13.513 -0.5657 -0.1965  0.8982
 2927TIP3   OH230271   5.907   0.229   1.822  0.2918 -0.5059  0.0048
 2927TIP3    H130272   5.912   0.192   1.734 -1.8971 -1.5318  0.2351
 2927TIP3    H230273   5.840   0.298   1.815  0.4177 -0.2948  0.7776
 2928TIP3   OH230274   0.849   5.157  15.213  0.0051  0.1627 -0.0957
 2928TIP3    H130275   0.874   5.069  15.242  1.9666  0.3513 -1.0694
 2928TIP3    H230276   0.912   5.215  15.256 -0.7864  1.0253 -0.0778
 2929TIP3   OH230277   1.285   1.990  15.327 -0.3798  0.4006  0.3022
 2929TIP3    H130278   1.293   1.946  15.411  0.0134  1.2586  0.7260
 2929TIP3    H230279   1.375   2.012  15.302 -0.4261 -0.4637 -0.6835
 2930TIP3   OH230280   4.138   4.303   0.861  0.3122 -0.1198 -0.3698
 2930TIP3    H130281   4.170   4.386   0.897  1.1373 -0.4012 -0.4337
 2930TIP3    H230282   4.213   4.244   0.866  0.3012 -0.3249 -2.0447
 2931TIP3   OH230283   6.301   1.792  10.351 -0.1660 -0.1045 -0.2560
 2931TIP3    H130284   6.317   1.882  10.377 -0.6990  0.2787 -1.2159
 2931TIP3    H230285   6.290   1.745  10.434  0.1695  0.6919  0.2523
 2932TIP3   OH230286   1.591   0.905  12.232  0.9667 -0.1456 -0.0044
 2932TIP3    H130287   1.623   0.956  12.306 -1.8712  0.9944  0.5686
 2932TIP3    H230288   1.586   0.968  12.160  0.1378 -0.3073 -0.0940
 2933TIP3   OH230289   3.030   1.932   2.022  0.0670  0.7587  0.3073
 2933TIP3    H130290   2.957   1.919   2.082  0.2945  2.3412  0.9860
 2933TIP3    H230291   3.090   1.861   2.042 -0.8559 -0.0225  0.3857
 2934TIP3   OH230292   3.765   2.056  10.004 -0.0385 -0.3396  0.0531
 2934TIP3    H130293   3.681   2.102  10.008 -0.3003 -0.8896  1.6722
 2934TIP3    H230294   3.816   2.093  10.076  0.1709 -1.7567  0.6585
 2935TIP3   OH230295   6.376   7.151  10.022 -0.7458 -0.0339  0.7890
 2935TIP3    H130296   6.451   7.170   9.966 -0.1760  1.2383  1.9493
 2935TIP3    H230297   6.312   7.111   9.962 -0.0380  0.9638 -0.7040
 2936TIP3   OH230298   6.578   5.878  14.757  0.2565  0.5624 -0.5878
 2936TIP3    H130299   6.658   5.926  14.735 -0.2226  0.4061 -3.0589
 2936TIP3    H230300   6.597   5.787  14.734  0.1960  0.0326  1.3158
 2937TIP3   OH230301   4.550   0.577  12.782  0.1326  0.8733 -0.1110
 2937TIP3    H130302   4.638   0.613  12.796  0.1983 -0.0993  2.5751
 2937TIP3    H230303   4.492   0.634  12.832 -0.4213  0.1289  0.1158
 2938TIP3   OH230304   1.882   1.506  13.126 -0.8654  0.1445  0.1364
 2938TIP3    H130305   1.811   1.509  13.191  0.6767  0.0078  1.8985
 2938TIP3    H230306   1.868   1.584  13.072 -1.4407  1.0001  1.4583
 2939TIP3   OH230307   3.493   0.391   2.435 -0.1285  0.3694  0.0894
 2939TIP3    H130308   3.539   0.468   2.469  0.9188 -0.3140  0.2438
 2939TIP3    H230309   3.506   0.396   2.340  0.9782 -0.2495  0.1925
 2940TIP3   OH230310   7.081   4.303  12.191  0.3129  0.1154 -0.0400
 2940TIP3    H130311   7.009   4.348  12.235  0.3457  0.9988 -0.8440
 2940TIP3    H230312   7.082   4.216  12.230 -1.5292 -0.0992 -0.3552
 2941TIP3   OH230313   3.135   5.953   4.643  0.2383 -0.4546  0.0307
 2941TIP3    H130314   3.206   6.005   4.679  0.4699 -0.7564  0.0079
 2941TIP3    H230315   3.064   6.016   4.631 -0.1855 -0.5204  1.8951
 2942TIP3   OH230316   4.284   5.761  11.863 -0.4446 -0.9126 -0.0585
 2942TIP3    H130317   4.336   5.681  11.872 -1.1545 -1.3764 -0.0386
 2942TIP3    H230318   4.300   5.790  11.773 -0.7504 -1.4697 -0.2922
 2943TIP3   OH230319   0.945   2.080  14.571 -0.0254  0.3567 -0.2067
 2943TIP3    H130320   0.968   2.162  14.528  2.8778 -1.0911 -1.7391
 2943TIP3    H230321   0.956   2.013  14.503  0.3407 -1.5721  1.6311
 2944TIP3   OH230322   2.009   0.341  13.163 -0.0984  0.0506 -0.2467
 2944TIP3    H130323   1.977   0.428  13.138 -0.3207  0.6099  1.7763
 2944TIP3    H230324   1.934   0.300  13.206  0.3887 -0.6474 -0.0481
 2945TIP3   OH230325   4.418   7.064  14.643  0.5029  0.5160  0.1438
 2945TIP3    H130326   4.461   7.078  14.559 -0.5522  0.5585 -0.4104
 2945TIP3    H230327   4.380   6.977  14.637  3.0305 -0.8319  1.7922
 2946TIP3   OH230328   1.512   3.045   3.528 -0.5725  0.1502 -0.5068
 2946TIP3    H130329   1.608   3.041   3.527 -0.5915 -0.3665 -0.5229
 2946TIP3    H230330   1.492   3.132   3.495 -0.0506  1.0504  1.4064
 2947TIP3   OH230331   0.221   4.357  14.820 -0.0273 -0.5016  0.0613
 2947TIP3    H130332   0.291   4.295  14.844  0.0798  0.4167  2.2514
 2947TIP3    H230333   0.259   4.443  14.836 -0.7828  0.1175 -1.3163
 2948TIP3   OH230334   6.674   0.631  12.754 -0.2762  0.3302  0.2268
 2948TIP3    H130335   6.718   0.674  12.827  0.0494  0.3782  0.0036
 2948TIP3    H230336   6.734   0.563  12.726 -0.0674  0.7920 -0.4702
 2949TIP3   OH230337   6.015   6.236  15.334  0.0792  0.2915 -0.2583
 2949TIP3    H130338   6.016   6.142  15.318  2.3329  0.3924 -1.0446
 2949TIP3    H230339   6.076   6.249  15.406 -2.2791  0.9330  1.7631
 2950TIP3   OH230340   5.464   2.221   0.312  0.2959  0.1879  0.4495
 2950TIP3    H130341   5.512   2.145   0.345 -1.4561 -0.9471  0.4794
 2950TIP3    H230342   5.519   2.255   0.241  1.3511 -0.7896  0.7720
 2951TIP3   OH230343   3.300   6.616  14.866 -0.2837 -0.0257 -0.0716
 2951TIP3    H130344   3.377   6.658  14.828  0.2351 -1.1562 -0.3041
 2951TIP3    H230345   3.237   6.613  14.795 -0.3922  0.4841 -0.0067
 2952TIP3   OH230346   0.439   1.889  12.577  0.1340  0.3955  0.1740
 2952TIP3    H130347   0.391   1.960  12.618  0.4701  0.8797 -0.2534
 2952TIP3    H230348   0.514   1.932  12.535 -0.6322  0.0416 -1.6397
 2953TIP3   OH230349   5.108   4.400   9.755 -0.2139 -0.5025 -0.1612
 2953TIP3    H130350   5.128   4.351   9.674  0.6942  0.3363 -0.4659
 2953TIP3    H230351   5.175   4.468   9.758  0.0246 -0.7800  1.5383
 2954TIP3   OH230352   0.181   4.870  14.878 -0.0135 -0.1130  0.1002
 2954TIP3    H130353   0.188   4.934  14.949  1.2851  0.6009 -0.6386
 2954TIP3    H230354   0.099   4.891  14.834 -0.6313 -0.3079  1.1362
 2955TIP3   OH230355   4.312   2.147  11.858 -0.1070  0.2601 -0.8059
 2955TIP3    H130356   4.355   2.080  11.911 -1.6260 -0.1939 -0.0714
 2955TIP3    H230357   4.325   2.228  11.906 -0.8504 -0.0317 -0.0835
 2956TIP3   OH230358   3.138   3.947  15.068 -0.2753 -0.0595  0.1338
 2956TIP3    H130359   3.210   4.008  15.056 -1.3720  1.3492  0.3649
 2956TIP3    H230360   3.111   3.924  14.979 -0.1870  0.2106  0.0349
 2957TIP3   OH230361   0.444   2.190  14.833 -0.1727  0.1760 -0.0582
 2957TIP3    H130362   0.428   2.160  14.744 -0.9645  1.4998 -0.4019
 2957TIP3    H230363   0.446   2.286  14.826 -1.3577  0.3572  1.4921
 2958TIP3   OH230364   0.917   1.835  13.122  0.2844  0.0755 -0.1487
 2958TIP3    H130365   0.852   1.768  13.138  0.3256  0.1307  0.2764
 2958TIP3    H230366   0.942   1.824  13.030 -0.0846 -0.1514 -0.2224
 2959TIP3   OH230367   7.061   2.349  13.385  0.6356 -0.1269 -0.1410
 2959TIP3    H130368   7.006   2.424  13.406 -1.4707 -1.0458 -1.9186
 2959TIP3    H230369   7.121   2.381  13.317 -0.8592 -0.1661 -1.5646
 2960TIP3   OH230370   0.909   4.640  13.090 -0.0065 -0.1657  0.0866
 2960TIP3    H130371   0.992   4.607  13.055 -0.7868  0.0880 -2.1960
 2960TIP3    H230372   0.860   4.669  13.012 -2.7615 -1.4666  1.1919
 2961TIP3   OH230373   4.257   4.342  14.991  0.5809  0.4474  0.5724
 2961TIP3    H130374   4.165   4.314  14.995  0.3356  1.3392  2.5672
 2961TIP3    H230375   4.253   4.437  14.979  1.2473  0.4299  0.1913
 2962TIP3   OH230376   6.056   2.332   4.415 -0.2189 -0.1501 -0.0794
 2962TIP3    H130377   6.132   2.389   4.405 -1.1198  1.2713  0.9340
 2962TIP3    H230378   6.065   2.295   4.503 -0.9501  0.4275  0.2479
 2963TIP3   OH230379   1.181   4.717  13.435  0.3744  0.0463  0.3171
 2963TIP3    H130380   1.274   4.741  13.430  0.0875  1.0918 -0.4920
 2963TIP3    H230381   1.154   4.711  13.343 -0.7854  1.5780  0.5216
 2964TIP3   OH230382   6.281   5.965  15.262  0.1564  0.3885  0.6000
 2964TIP3    H130383   6.199   5.965  15.311 -0.8934  0.1747 -1.0753
 2964TIP3    H230384   6.263   6.020  15.186  1.6004  0.4004  0.2423
 2965TIP3   OH230385   2.140   6.492  13.638  0.0812  0.5131  0.2089
 2965TIP3    H130386   2.047   6.492  13.660  0.0082  2.0100  0.0001
 2965TIP3    H230387   2.180   6.555  13.698  1.0704 -0.4668  0.6309
 2966TIP3   OH230388   2.747   2.424  10.328 -0.2307 -0.3424  0.0639
 2966TIP3    H130389   2.664   2.454  10.291 -0.4227 -0.1579  0.6330
 2966TIP3    H230390   2.813   2.474  10.281 -0.4544 -0.3141 -0.2242
 2967TIP3   OH230391   0.669   6.401   1.526 -0.2384  0.0434  0.2988
 2967TIP3    H130392   0.579   6.418   1.555 -0.3241  0.2386 -0.0705
 2967TIP3    H230393   0.659   6.375   1.434 -0.2485 -3.1566  1.0766
 2968TIP3   OH230394   6.630   2.011  11.342  0.2462  0.2796  0.3428
 2968TIP3    H130395   6.616   1.969  11.257  0.3674  0.0096  0.4529
 2968TIP3    H230396   6.579   2.091  11.338 -1.7828 -0.9047  0.9153
 2969TIP3   OH230397   3.957   4.528   2.686 -0.4334 -0.8762 -0.5353
 2969TIP3    H130398   3.919   4.528   2.774  2.8252 -1.5099  1.0430
 2969TIP3    H230399   3.897   4.476   2.633 -3.0133  0.3388  0.9986
 2970TIP3   OH230400   4.461   2.280  12.589 -0.3424 -0.1597  0.1674
 2970TIP3    H130401   4.422   2.364  12.564 -1.9517 -0.6417  0.9298
 2970TIP3    H230402   4.451   2.276  12.684  1.8673 -0.2061  0.4481
 2971TIP3   OH230403   4.591   3.235  14.901 -0.5314  0.1241  0.0592
 2971TIP3    H130404   4.676   3.264  14.933 -0.8836 -0.2038  1.3130
 2971TIP3    H230405   4.584   3.275  14.814  0.6481  0.6208  0.1738
 2972TIP3   OH230406   4.455   2.690  11.602  0.5762  0.2618  0.1713
 2972TIP3    H130407   4.511   2.692  11.525 -0.4080 -0.8809 -0.6062
 2972TIP3    H230408   4.514   2.668  11.674  1.0991 -1.2438 -0.6797
 2973TIP3   OH230409   0.685   2.109  14.478  0.6192  0.0611  0.3395
 2973TIP3    H130410   0.768   2.099  14.524 -0.0361  1.1809  1.8987
 2973TIP3    H230411   0.645   2.186  14.519 -0.0447  1.1492 -2.1597
 2974TIP3   OH230412   2.255   2.947  11.185 -0.1361  0.4654 -0.5054
 2974TIP3    H130413   2.336   2.897  11.179  0.2412  0.9361  0.5066
 2974TIP3    H230414   2.204   2.919  11.109  1.1662  0.5181 -1.4350
 2975TIP3   OH230415   4.114   6.767  13.716 -0.6011  0.2498 -0.1945
 2975TIP3    H130416   4.127   6.825  13.641  0.2104  0.6392  0.2337
 2975TIP3    H230417   4.157   6.685  13.691  0.4196  0.6593  0.1671
 2976TIP3   OH230418   1.937   4.469  11.426  0.1791 -0.1128 -0.1051
 2976TIP3    H130419   1.846   4.482  11.399  0.0935  1.7491  0.8954
 2976TIP3    H230420   1.988   4.503  11.353  0.1230 -1.5687 -0.8620
 2977TIP3   OH230421   2.504   5.402   1.446 -0.4592  0.5768  0.5697
 2977TIP3    H130422   2.566   5.465   1.411  0.6321 -0.0376  1.3212
 2977TIP3    H230423   2.418   5.433   1.418  0.1337  1.8578  0.1381
 2978TIP3   OH230424   6.341   6.773  14.695  0.1056  0.5862  0.3611
 2978TIP3    H130425   6.258   6.726  14.707  1.0595 -1.1341  0.6170
 2978TIP3    H230426   6.341   6.800  14.603 -1.3556  1.9274  0.7138
 2979TIP3   OH230427   4.276   2.567  11.432  0.0005  0.0640  0.0707
 2979TIP3    H130428   4.355   2.546  11.382 -0.6949 -1.6213 -0.3839
 2979TIP3    H230429   4.308   2.614  11.509  1.2754  0.8917 -0.9383
 2980TIP3   OH230430   6.666   4.290  15.522 -0.4514  0.3127  0.0366
 2980TIP3    H130431   6.611   4.212  15.520  1.3871 -1.1320  1.8579
 2980TIP3    H230432   6.614   4.354  15.570 -0.7757 -0.8683  1.3383
 2981TIP3   OH230433   1.852   4.166  14.865  0.6509  0.3850 -0.6932
 2981TIP3    H130434   1.818   4.096  14.809 -0.1859  0.8559 -0.7814
 2981TIP3    H230435   1.862   4.125  14.951 -2.2842  0.7579 -0.0790
 2982TIP3   OH230436   4.457   5.300  14.341 -0.0513  0.1328  0.1894
 2982TIP3    H130437   4.482   5.294  14.433  0.8008  0.2623 -0.0220
 2982TIP3    H230438   4.501   5.379  14.309 -1.3304  0.7743 -0.0321
 2983TIP3   OH230439   7.095   2.401  14.490  0.5464  0.4086 -0.0218
 2983TIP3    H130440   7.043   2.326  14.462  2.6225 -1.1400  0.0650
 2983TIP3    H230441   7.131   2.437  14.408  1.2267  0.0215  0.1070
 2984TIP3   OH230442   2.612   4.341  14.445 -0.0209 -0.2408 -0.4309
 2984TIP3    H130443   2.524   4.303  14.447 -0.2085  0.2121  0.4524
 2984TIP3    H230444   2.603   4.425  14.490  0.7011  0.1746 -1.0408
 2985TIP3   OH230445   5.553   6.228   0.396  0.3259  0.3121 -0.1327
 2985TIP3    H130446   5.640   6.196   0.371 -0.2592 -0.2925 -1.4795
 2985TIP3    H230447   5.521   6.274   0.318 -0.6534  0.3390  0.2737
 2986TIP3   OH230448   2.350   4.727  14.742 -0.6637  0.0830 -0.2778
 2986TIP3    H130449   2.327   4.790  14.674 -0.2915  1.5817  0.9153
 2986TIP3    H230450   2.274   4.670  14.749 -1.6233  1.2986 -0.4300
 2987TIP3   OH230451   1.898   0.993  12.057 -0.4853 -0.1133  0.2984
 2987TIP3    H130452   1.862   1.032  12.136 -1.0807  1.3808 -0.6528
 2987TIP3    H230453   1.956   1.060  12.021  1.0197 -1.3714  0.2654
 2988TIP3   OH230454   6.420   0.210  13.843  0.7392 -0.1518  0.7167
 2988TIP3    H130455   6.403   0.221  13.749 -0.7859  0.0008  1.0007
 2988TIP3    H230456   6.405   0.117  13.860 -0.0410  0.0260  1.0142
 2989TIP3   OH230457   0.236   4.236  11.369  0.5606 -0.2811  0.0056
 2989TIP3    H130458   0.329   4.217  11.358  0.0664 -1.7671 -2.2570
 2989TIP3    H230459   0.194   4.151  11.371 -0.9443  0.3817 -1.3135
 2990TIP3   OH230460   2.722   2.437   0.615  0.0214  0.0125  0.7311
 2990TIP3    H130461   2.638   2.463   0.654  0.0357  0.3448  0.5472
 2990TIP3    H230462   2.737   2.502   0.546  0.8661  0.4977  1.3485
 2991TIP3   OH230463   5.545   5.611   1.841  0.1741  0.2291 -1.0304
 2991TIP3    H130464   5.472   5.577   1.789 -1.4418  1.0697  0.5409
 2991TIP3    H230465   5.566   5.696   1.801  0.1194  0.0910 -1.3514
 2992TIP3   OH230466   0.075   2.980   9.774 -0.4226  0.2302 -0.2221
 2992TIP3    H130467   0.058   3.068   9.742 -2.8202 -0.3824 -0.8340
 2992TIP3    H230468   0.014   2.969   9.848  1.0509 -0.3438  0.9584
 2993TIP3   OH230469   5.375   4.908  10.384 -0.0575  0.1752 -0.2688
 2993TIP3    H130470   5.312   4.937  10.449  1.6786  2.7585  0.3790
 2993TIP3    H230471   5.321   4.876  10.311 -2.0508  0.0347  1.1960
 2994TIP3   OH230472   5.031   2.931  14.275  0.0946  0.2645  0.0876
 2994TIP3    H130473   5.049   2.873  14.201  0.2323 -0.1136  0.4090
 2994TIP3    H230474   5.118   2.959  14.305  0.0234  0.7577 -0.1579
 2995TIP3   OH230475   2.256   0.115  10.343  0.2657 -0.1212  0.4775
 2995TIP3    H130476   2.173   0.156  10.318  0.3237  0.0869  0.6236
 2995TIP3    H230477   2.318   0.188  10.349  0.2402 -0.1594  1.2890
 2996TIP3   OH230478   1.262   4.638  14.849  0.3158  0.0219 -0.0152
 2996TIP3    H130479   1.204   4.569  14.882  1.2754 -0.5878  0.4281
 2996TIP3    H230480   1.277   4.615  14.758  0.1502 -0.0187 -0.0322
 2997TIP3   OH230481   4.752   2.213  12.282  0.3259 -0.7869  0.2352
 2997TIP3    H130482   4.828   2.155  12.290  0.1371 -1.0154  0.3765
 2997TIP3    H230483   4.685   2.158  12.242 -0.1458 -0.9364  1.2152
 2998TIP3   OH230484   3.970   7.114  15.509  0.5829 -0.0791 -0.1798
 2998TIP3    H130485   3.917   7.040  15.480 -0.1577  0.7499 -0.9852
 2998TIP3    H230486   3.962   7.113  15.605  1.8296 -1.9362 -0.0476
 2999TIP3   OH230487   1.442   1.357   9.896  0.1886 -0.0856 -0.4083
 2999TIP3    H130488   1.513   1.404   9.852  0.5724  0.1824  0.4696
 2999TIP3    H230489   1.486   1.304   9.963 -0.4546  0.4102  0.4364
 3000TIP3   OH230490   3.359   6.933   0.630  0.7582 -0.9364  0.4068
 3000TIP3    H130491   3.374   6.911   0.722 -1.8959 -1.0005  0.9186
 3000TIP3    H230492   3.283   6.879   0.606  1.0343 -0.4639 -1.6556
 3001TIP3   OH230493   6.970   2.690  14.320  0.0924  0.2185 -0.2593
 3001TIP3    H130494   6.931   2.730  14.398  0.3450  0.6105 -0.3278
 3001TIP3    H230495   6.972   2.761  14.256  1.2793  0.3261 -0.1263
 3002TIP3   OH230496   2.177   4.825  11.454 -0.2842 -0.0634 -0.2203
 3002TIP3    H130497   2.230   4.861  11.525 -2.4151  1.1129  0.8641
 3002TIP3    H230498   2.105   4.780  11.498 -2.1680  1.4710 -1.5454
 3003TIP3   OH230499   4.237   3.382   2.048  0.6095 -0.1275  0.4989
 3003TIP3    H130500   4.175   3.399   2.120 -0.2002  0.3266 -0.2872
 3003TIP3    H230501   4.320   3.365   2.092 -0.0704 -0.7713  1.5860
 3004TIP3   OH230502   5.265   6.592  11.254  0.1475 -0.6588  0.1760
 3004TIP3    H130503   5.204   6.662  11.275  0.4042 -0.4519  0.2375
 3004TIP3    H230504   5.351   6.628  11.276  0.1274 -1.7165  2.2234
 3005TIP3   OH230505   5.285   3.689  12.777  0.5634  0.2452  0.3978
 3005TIP3    H130506   5.202   3.667  12.735  0.1127 -1.7218  2.1824
 3005TIP3    H230507   5.343   3.713  12.704 -0.6455 -1.4499 -1.2057
 3006TIP3   OH230508   6.590   1.881  14.531  0.1269 -0.2903 -0.1916
 3006TIP3    H130509   6.603   1.787  14.543 -0.1179  0.0034  3.2640
 3006TIP3    H230510   6.497   1.889  14.507 -0.5664 -0.8441  2.0957
 3007TIP3   OH230511   0.772   6.996  13.906  0.0588 -0.3397  0.3419
 3007TIP3    H130512   0.697   6.947  13.940 -0.5202  0.6720  0.5693
 3007TIP3    H230513   0.785   6.961  13.818 -1.1411 -0.0598  0.0241
 3008TIP3   OH230514   2.565   2.684  11.345  0.1164  0.3137  0.2216
 3008TIP3    H130515   2.535   2.678  11.254 -1.2788 -0.5809  0.7052
 3008TIP3    H230516   2.574   2.778  11.361  0.3030  0.4823 -0.8083
 3009TIP3   OH230517   2.013   4.199  11.421 -0.2763 -0.1825 -0.1022
 3009TIP3    H130518   1.985   4.288  11.442  0.9912  0.3751 -0.6381
 3009TIP3    H230519   1.950   4.170  11.354 -0.8249  0.2228  0.2247
 3010TIP3   OH230520   3.970   2.408  10.541  0.4899  0.0762 -0.5054
 3010TIP3    H130521   4.049   2.444  10.582 -0.1143  0.2688  0.5354
 3010TIP3    H230522   3.911   2.483  10.533 -0.8294 -0.6238  1.7863
 3011TIP3   OH230523   4.455   1.193  13.313 -0.6997 -0.2536 -0.0141
 3011TIP3    H130524   4.457   1.098  13.301 -0.6245 -0.2209 -0.2535
 3011TIP3    H230525   4.520   1.226  13.253 -0.2237 -0.1029  0.5758
 3012TIP3   OH230526   6.714   4.390  10.120 -0.2376  0.8985 -0.2119
 3012TIP3    H130527   6.641   4.429  10.168  0.3100  1.2526  0.3602
 3012TIP3    H230528   6.743   4.459  10.061  1.4550  1.8525  1.5916
 3013TIP3   OH230529   3.766   1.494  11.659 -0.3463  0.3410  0.1292
 3013TIP3    H130530   3.723   1.410  11.677 -0.7054  0.9944  2.6953
 3013TIP3    H230531   3.765   1.540  11.743  3.5269  1.2640 -0.1195
 3014TIP3   OH230532   5.599   6.388  12.219  0.0204  0.0891 -0.1853
 3014TIP3    H130533   5.608   6.476  12.255  0.5396 -0.0201 -0.0378
 3014TIP3    H230534   5.682   6.372  12.174 -0.5857  0.1932 -1.3766
 3015TIP3   OH230535   1.110   1.834   9.471  0.1458 -0.3652 -0.4704
 3015TIP3    H130536   1.057   1.799   9.544  0.9347 -1.4546 -0.3904
 3015TIP3    H230537   1.095   1.928   9.474  0.8218 -0.2542  1.6704
 3016TIP3   OH230538   3.450   4.895  14.998 -0.3282  0.0232 -0.3861
 3016TIP3    H130539   3.532   4.847  15.009 -0.5753 -0.2066  0.5112
 3016TIP3    H230540   3.440   4.944  15.079 -1.3835 -0.4279 -0.2261
 3017TIP3   OH230541   0.429   0.270   9.210  0.4035 -0.1822  0.1115
 3017TIP3    H130542   0.505   0.321   9.238  0.0977  0.2731  0.1112
 3017TIP3    H230543   0.459   0.179   9.216  0.4223 -0.1126  1.7929
 3018TIP3   OH230544   1.651   0.852  10.438 -0.1423  0.6874  0.0773
 3018TIP3    H130545   1.727   0.821  10.487 -0.7354  1.5729  1.6317
 3018TIP3    H230546   1.633   0.783  10.374  0.4235 -0.7191  1.3876
 3019TIP3   OH230547   4.439   6.648   0.269  0.2249  0.5329 -0.0149
 3019TIP3    H130548   4.521   6.601   0.282  0.2136  0.9225  1.5952
 3019TIP3    H230549   4.374   6.598   0.318 -0.9865 -0.9224 -2.8696
 3020TIP3   OH230550   7.036   4.793   9.865  0.2365 -0.0027 -0.1540
 3020TIP3    H130551   7.061   4.799   9.773  2.1739  0.2704  0.3392
 3020TIP3    H230552   7.004   4.703   9.875 -0.4171  0.1047 -1.1699
 3021TIP3   OH230553   2.814   5.467   1.525  0.8862  0.7747  0.8554
 3021TIP3    H130554   2.784   5.539   1.582  0.6213  2.4457 -1.2514
 3021TIP3    H230555   2.888   5.503   1.478 -0.0380  0.1499 -1.1901
 3022TIP3   OH230556   0.714   5.955  15.191 -0.1636 -0.0106 -0.3886
 3022TIP3    H130557   0.774   6.028  15.177  1.3895 -1.5852 -2.4280
 3022TIP3    H230558   0.749   5.910  15.268 -1.2896  1.4225  1.0577
 3023TIP3   OH230559   5.969   1.362  12.953 -0.2549  0.2728  0.1884
 3023TIP3    H130560   5.946   1.292  13.013 -0.3142  0.8628  0.8654
 3023TIP3    H230561   5.886   1.406  12.934 -0.2614 -0.0061 -0.4533
 3024TIP3   OH230562   0.030   1.172  13.673  0.2310  0.1651  0.1360
 3024TIP3    H130563  -0.003   1.247  13.723  0.6369  0.0644  0.5638
 3024TIP3    H230564   0.125   1.181  13.678  0.2787  0.1673 -0.6496
 3025TIP3   OH230565   2.218   0.604   1.663 -0.2344 -0.1021  0.3960
 3025TIP3    H130566   2.285   0.567   1.721  0.6185 -0.4487 -0.7633
 3025TIP3    H230567   2.229   0.699   1.671 -0.3465 -0.1389  1.0435
 3026TIP3   OH230568   6.174   1.818  12.827 -0.0619 -0.2787  0.0415
 3026TIP3    H130569   6.093   1.868  12.835  0.3743  0.8934 -2.0319
 3026TIP3    H230570   6.238   1.881  12.793  1.5024 -1.3831  0.7998
 3027TIP3   OH230571   4.388   3.641  11.945  0.5298 -0.7229 -0.4170
 3027TIP3    H130572   4.332   3.562  11.945  0.8198 -0.9838 -2.4057
 3027TIP3    H230573   4.326   3.714  11.950 -0.0817 -1.0056 -2.7071
 3028TIP3   OH230574   2.266   2.927  12.544 -0.1879 -0.3656 -0.2251
 3028TIP3    H130575   2.320   2.980  12.603  0.9218  0.4710 -1.8831
 3028TIP3    H230576   2.326   2.859  12.512 -0.7192 -0.6941 -0.5391
 3029TIP3   OH230577   0.823   6.459  12.078 -0.0413  0.4515  0.6623
 3029TIP3    H130578   0.792   6.465  11.987  0.5689  0.4701  0.4523
 3029TIP3    H230579   0.854   6.547  12.098  2.2193 -0.1273  0.0059
 3030TIP3   OH230580   4.143   1.108   4.537 -0.8675 -0.1594 -0.0189
 3030TIP3    H130581   4.126   1.176   4.602  2.4731 -0.5839  1.4890
 3030TIP3    H230582   4.187   1.038   4.585  2.4670 -0.1842 -2.7407
 3031TIP3   OH230583   5.447   6.868  11.945 -0.2653  0.3282  0.2846
 3031TIP3    H130584   5.357   6.885  11.972  0.2329  2.6407  0.7077
 3031TIP3    H230585   5.500   6.894  12.020  0.9079  2.8884 -1.2846
 3032TIP3   OH230586   4.453   0.872  13.941  0.0349  0.3452 -0.0609
 3032TIP3    H130587   4.491   0.844  14.024  1.7352  1.4307 -0.4262
 3032TIP3    H230588   4.358   0.861  13.952  0.3482 -1.3094  1.3259
 3033TIP3   OH230589   6.981   5.562  12.068 -0.4164 -0.9291 -0.2832
 3033TIP3    H130590   6.975   5.500  12.140  1.0295 -1.1723 -0.3418
 3033TIP3    H230591   6.955   5.646  12.107 -1.4976 -1.3856  0.0202
 3034TIP3   OH230592   0.434   1.391  13.339  0.0045 -0.3614  0.2236
 3034TIP3    H130593   0.461   1.401  13.430  2.5800  2.8228 -0.6890
 3034TIP3    H230594   0.514   1.370  13.292 -0.8274  0.2278 -1.5686
 3035TIP3   OH230595   5.431   4.824   3.058  0.6024  0.6308  0.2304
 3035TIP3    H130596   5.482   4.854   3.133 -0.1648  1.5642  0.3879
 3035TIP3    H230597   5.407   4.734   3.080 -0.2035  1.1207  1.4342
 3036TIP3   OH230598   0.100   4.100  15.194 -0.2917  0.1941  0.0229
 3036TIP3    H130599   0.095   4.113  15.289  0.6420 -0.0809  0.1177
 3036TIP3    H230600   0.152   4.021  15.183 -0.4838  0.1630 -0.7244
 3037TIP3   OH230601   0.761   1.576  10.336 -0.5317 -0.0395 -0.3063
 3037TIP3    H130602   0.831   1.519  10.306  0.3692  1.4728 -1.1950
 3037TIP3    H230603   0.694   1.516  10.371  0.5425 -1.5797 -0.7987
 3038TIP3   OH230604   5.606   7.104   2.611 -0.2908 -0.1940 -0.1042
 3038TIP3    H130605   5.586   7.063   2.696 -0.6924 -1.7525 -0.9082
 3038TIP3    H230606   5.565   7.190   2.616 -0.3843 -0.2951  1.2596
 3039TIP3   OH230607   5.640   5.357   3.269 -0.1826 -0.3339 -0.2836
 3039TIP3    H130608   5.551   5.332   3.294 -0.7392  2.0066  0.3270
 3039TIP3    H230609   5.676   5.398   3.348  0.9030  0.0830 -0.9741
 3040TIP3   OH230610   0.456   2.800  15.704 -0.7087  0.3805 -0.2649
 3040TIP3    H130611   0.379   2.790  15.647 -0.4835  2.3966 -0.9801
 3040TIP3    H230612   0.502   2.716  15.696 -2.4937 -0.6736 -0.2606
 3041TIP3   OH230613   1.652   4.411  13.682  0.1028  0.4197  0.1479
 3041TIP3    H130614   1.582   4.461  13.638  0.5639  1.7842  0.8907
 3041TIP3    H230615   1.732   4.456  13.656  0.8242 -1.5104 -1.2083
 3042TIP3   OH230616   1.469   6.989  11.183  0.1127  0.0178  0.9347
 3042TIP3    H130617   1.374   7.000  11.173  0.3054  1.0740  0.0444
 3042TIP3    H230618   1.507   7.068  11.143  1.3156  0.5826  3.0156
 3043TIP3   OH230619   3.618   2.443   5.857 -0.0820 -0.3208  0.2235
 3043TIP3    H130620   3.704   2.456   5.897  0.5273 -2.7682 -0.1637
 3043TIP3    H230621   3.560   2.426   5.931  0.8580 -3.8593  0.3353
 3044TIP3   OH230622   0.351   4.604  13.491 -0.4076  0.7619  0.3417
 3044TIP3    H130623   0.350   4.695  13.463  0.2870  1.0907  1.3467
 3044TIP3    H230624   0.443   4.579  13.489 -0.5075  0.3348  0.8590
 3045TIP3   OH230625   4.219   6.965  10.531  0.3793 -0.6546  0.2927
 3045TIP3    H130626   4.297   6.992  10.581  0.9521 -2.3925  0.4175
 3045TIP3    H230627   4.215   7.026  10.458  0.4405  0.9780  1.5924
 3046TIP3   OH230628   2.930   2.897   2.395  0.2818 -0.2464  0.0564
 3046TIP3    H130629   2.837   2.878   2.408 -0.0064  2.1110  2.0012
 3046TIP3    H230630   2.942   2.893   2.300 -1.8434 -0.4039 -0.2494
 3047TIP3   OH230631   6.603   1.233  12.194  0.0738  0.0239  0.6276
 3047TIP3    H130632   6.514   1.206  12.171 -0.2339  1.4725 -0.0371
 3047TIP3    H230633   6.590   1.308  12.253  0.8713 -0.6157  1.6384
 3048TIP3   OH230634   2.067   4.854   9.633 -0.3031 -0.1304  0.1946
 3048TIP3    H130635   2.094   4.945   9.622  1.3001 -0.3278  1.9994
 3048TIP3    H230636   1.983   4.859   9.678  0.5814  0.5185  1.8856
 3049TIP3   OH230637   7.083   1.999   1.755 -0.3536 -0.7602 -0.1436
 3049TIP3    H130638   7.081   1.903   1.755 -0.1516 -0.7728 -0.8373
 3049TIP3    H230639   7.171   2.022   1.785  0.5694 -0.8623 -2.5535
 3050TIP3   OH230640   5.020   0.942   0.241 -0.0338  0.0056  0.2522
 3050TIP3    H130641   5.034   0.920   0.333  0.4918 -0.1028  0.1537
 3050TIP3    H230642   4.937   0.989   0.239 -0.8586 -1.3652  0.5701
 3051TIP3   OH230643   1.450   4.457  10.088  0.4544 -0.7397 -0.3874
 3051TIP3    H130644   1.470   4.393  10.156 -3.1563 -0.3331  1.2852
 3051TIP3    H230645   1.385   4.414  10.032  0.2898  0.3805 -1.1055
 3052TIP3   OH230646   3.173   2.778  12.340 -0.0469  0.1199 -0.6158
 3052TIP3    H130647   3.247   2.823  12.380 -0.0893 -0.9761  0.8021
 3052TIP3    H230648   3.206   2.750  12.254  1.1760 -0.2829 -0.0469
 3053TIP3   OH230649   2.902   0.461  11.772 -0.3505 -0.0398  0.0835
 3053TIP3    H130650   2.956   0.539  11.760 -0.9477  0.3551 -0.0744
 3053TIP3    H230651   2.845   0.460  11.696 -0.2109 -0.7472 -0.0161
 3054TIP3   OH230652   1.792   4.625   9.829  0.0519 -0.0033  0.4653
 3054TIP3    H130653   1.871   4.582   9.796 -0.1117  0.3242 -0.3775
 3054TIP3    H230654   1.799   4.716   9.799 -1.0825 -0.1867 -0.4571
 3055TIP3   OH230655   0.800   6.473   1.879  0.3664  0.3453  0.4249
 3055TIP3    H130656   0.737   6.517   1.822  1.8357  1.4152 -0.4441
 3055TIP3    H230657   0.787   6.513   1.965 -1.2592 -0.6491  0.6828
 3056TIP3   OH230658   3.602   4.974   1.224 -0.4741  1.0755 -0.2213
 3056TIP3    H130659   3.624   5.065   1.207 -0.2845  1.2670  0.9349
 3056TIP3    H230660   3.600   4.933   1.138 -0.6176  2.1792 -0.7618
 3057TIP3   OH230661   5.229   5.892  14.188 -0.2286 -0.4431 -0.1872
 3057TIP3    H130662   5.155   5.844  14.151  0.7060 -2.4267  0.3189
 3057TIP3    H230663   5.194   5.934  14.266 -1.2364  0.2721 -0.9977
 3058TIP3   OH230664   3.353   1.031  10.150 -0.0423  0.0317 -0.6985
 3058TIP3    H130665   3.278   1.037  10.090  0.4461  2.0654 -1.1847
 3058TIP3    H230666   3.429   1.051  10.095  0.5289  0.9679  0.3869
 3059TIP3   OH230667   2.016   6.886  15.154 -0.0994  0.6292  0.2610
 3059TIP3    H130668   1.984   6.976  15.163 -1.8385 -0.0206  1.0633
 3059TIP3    H230669   1.969   6.837  15.222  0.9831 -0.8493 -0.0089
 3060TIP3   OH230670   4.286   1.407  12.261 -0.0292 -0.2621  0.0158
 3060TIP3    H130671   4.274   1.427  12.354 -2.1909 -0.2040 -0.2236
 3060TIP3    H230672   4.226   1.334  12.244  0.9437 -0.8347 -1.1868
 3061TIP3   OH230673   3.906   5.320  12.602  0.4073  0.4795 -0.3602
 3061TIP3    H130674   3.853   5.393  12.633 -1.3383 -0.4607 -0.9765
 3061TIP3    H230675   3.923   5.267  12.680 -1.0177 -0.0732 -0.4025
 3062TIP3   OH230676   1.138   6.383  12.763  0.1882 -0.8335  0.3442
 3062TIP3    H130677   1.088   6.464  12.751 -0.1221 -1.0729  0.0132
 3062TIP3    H230678   1.108   6.325  12.694  1.7253 -0.6017 -0.5648
 3063TIP3   OH230679   5.616   5.267  12.404  0.4190 -0.8801 -0.0167
 3063TIP3    H130680   5.583   5.352  12.432 -0.8623 -1.4198  0.2083
 3063TIP3    H230681   5.564   5.204  12.454  1.7794 -1.7939  0.2888
 3064TIP3   OH230682   0.276   5.426   1.974  0.0539  0.5420 -0.1708
 3064TIP3    H130683   0.217   5.367   2.021  0.7096 -0.4009 -0.5042
 3064TIP3    H230684   0.336   5.368   1.928  0.6284  1.4781 -0.6275
 3065TIP3   OH230685   0.865   5.104   4.202 -0.1729  0.8502 -0.1585
 3065TIP3    H130686   0.839   5.012   4.192  0.5888  0.5957  0.1062
 3065TIP3    H230687   0.869   5.137   4.112 -1.2355  0.8582 -0.2148
 3066TIP3   OH230688   4.667   6.363  13.571 -0.0189 -0.0810  0.8452
 3066TIP3    H130689   4.726   6.426  13.614 -1.1252  1.6405 -0.0482
 3066TIP3    H230690   4.626   6.413  13.501  0.6171 -2.4053 -1.3199
 3067TIP3   OH230691   1.586   1.137  12.548  0.7780  0.2561  0.5172
 3067TIP3    H130692   1.552   1.048  12.553 -0.5311  0.8206  2.7819
 3067TIP3    H230693   1.568   1.164  12.457 -0.0681 -1.2823  0.1889
 3068TIP3   OH230694   2.875   5.264  11.280 -0.6838 -0.2261  0.0140
 3068TIP3    H130695   2.845   5.178  11.308  0.3412 -0.8156 -0.6498
 3068TIP3    H230696   2.967   5.267  11.305  0.2142 -0.6610 -2.8677
 3069TIP3   OH230697   5.091   4.059   4.734  0.6536 -0.3810 -0.5047
 3069TIP3    H130698   5.184   4.050   4.715  1.3596  1.7227  1.4958
 3069TIP3    H230699   5.086   4.068   4.830 -1.5542 -0.0696 -0.5840
 3070TIP3   OH230700   6.511   4.998   5.028  0.1541 -0.0326 -0.1480
 3070TIP3    H130701   6.551   4.913   5.045  3.2187  1.1057 -0.9859
 3070TIP3    H230702   6.508   5.004   4.932  0.6418  1.0626 -0.1047
 3071TIP3   OH230703   1.552   0.506  12.825  0.3746  0.2859 -0.3607
 3071TIP3    H130704   1.579   0.526  12.735 -0.5140  1.3934 -0.4149
 3071TIP3    H230705   1.615   0.442  12.856 -0.2478 -1.3987 -2.3506
 3072TIP3   OH230706   5.418   4.845   1.363 -0.4196  0.2776 -0.1203
 3072TIP3    H130707   5.392   4.753   1.353  1.0991 -0.1592 -0.4497
 3072TIP3    H230708   5.431   4.876   1.273  0.9851  0.1885  0.0223
 3073TIP3   OH230709   6.701   4.823  15.288  0.0027  0.5453  0.4964
 3073TIP3    H130710   6.757   4.762  15.336  0.7756 -0.8804 -2.0512
 3073TIP3    H230711   6.613   4.805  15.320  0.5492  0.1819  1.8789
 3074TIP3   OH230712   5.367   2.080  13.162  0.0007 -0.2257  0.4468
 3074TIP3    H130713   5.339   2.074  13.253 -1.9288  3.1752  0.2454
 3074TIP3    H230714   5.341   2.168  13.134  3.7153  0.2326 -2.3853
 3075TIP3   OH230715   6.895   5.744  10.472  0.1425 -0.6261 -0.0203
 3075TIP3    H130716   6.924   5.833  10.451 -0.3693 -0.8876 -2.0712
 3075TIP3    H230717   6.964   5.687  10.439 -1.2217 -1.1104 -2.3389
 3076TIP3   OH230718   3.645   2.504  13.976  0.3350 -0.3938 -0.2566
 3076TIP3    H130719   3.598   2.474  14.054  0.3248  0.7230  0.1739
 3076TIP3    H230720   3.665   2.596  13.993  0.0250 -0.0358 -1.7229
 3077TIP3   OH230721   4.788   0.047  12.491  0.1283 -0.4990  0.6473
 3077TIP3    H130722   4.795   0.110  12.562  1.2937 -1.3941  1.3654
 3077TIP3    H230723   4.794   0.100  12.411 -1.5592  0.5577  1.1673
 3078TIP3   OH230724   6.024   3.506  14.094 -0.1528 -0.1891 -0.3783
 3078TIP3    H130725   5.948   3.463  14.133  0.5063 -2.4022 -1.3474
 3078TIP3    H230726   6.100   3.460  14.131  0.6530  0.9086 -0.6206
 3079TIP3   OH230727   5.090   3.926  15.160 -0.0367 -0.0557 -0.1031
 3079TIP3    H130728   5.043   3.856  15.206 -0.9826  1.1295  0.7915
 3079TIP3    H230729   5.182   3.900  15.164 -0.2635 -0.7431  1.1161
 3080TIP3   OH230730   5.193   5.487  13.854  0.7513 -0.0489 -0.3178
 3080TIP3    H130731   5.172   5.573  13.818  0.9477 -0.2666 -0.9643
 3080TIP3    H230732   5.108   5.443  13.862  0.6481  0.2128  0.0447
 3081TIP3   OH230733   6.706   2.685  13.656  0.0460 -0.0574 -0.2491
 3081TIP3    H130734   6.740   2.702  13.569 -0.3464  1.9688 -0.0464
 3081TIP3    H230735   6.777   2.641  13.702  1.1421  0.9998 -0.8928
 3082TIP3   OH230736   1.285   5.984   9.845 -0.6954  0.1329  0.8281
 3082TIP3    H130737   1.248   6.061   9.887 -0.3217  1.5446 -1.2761
 3082TIP3    H230738   1.223   5.963   9.775  0.9580  0.8022 -0.9261
 3083TIP3   OH230739   3.346   2.143  13.027  0.6440 -0.2553  0.5966
 3083TIP3    H130740   3.298   2.169  12.948  2.3976  2.2560  0.2067
 3083TIP3    H230741   3.417   2.088  12.995  1.8476  1.4339  0.2145
 3084TIP3   OH230742   1.259   0.944   2.493  0.2886  0.4202  0.4882
 3084TIP3    H130743   1.323   0.904   2.551 -0.7476 -1.6003  0.3317
 3084TIP3    H230744   1.307   0.961   2.412  0.7340 -0.7715  0.4806
 3085TIP3   OH230745   0.412   4.313  15.143 -0.1359 -0.2647 -0.5062
 3085TIP3    H130746   0.399   4.311  15.238 -1.0075  1.6638 -0.5571
 3085TIP3    H230747   0.459   4.395  15.127  0.2890 -0.7228 -1.7370
 3086TIP3   OH230748   6.022   1.271  13.650  0.1668  0.2125 -0.0436
 3086TIP3    H130749   5.998   1.363  13.639 -1.8152 -0.0327  1.7780
 3086TIP3    H230750   5.939   1.223  13.646  0.6848 -1.1010  2.6477
 3087TIP3   OH230751   3.158   4.445   5.337 -0.1340 -0.7517  0.3156
 3087TIP3    H130752   3.092   4.480   5.278  0.4052 -0.8495 -0.3675
 3087TIP3    H230753   3.110   4.421   5.416 -0.5759  1.1325  0.6622
 3088TIP3   OH230754   6.394   1.123  10.872  0.1003  0.3121  0.4723
 3088TIP3    H130755   6.464   1.057  10.872 -0.3853 -0.2071  0.6380
 3088TIP3    H230756   6.349   1.110  10.956 -0.3959  0.4244  0.2251
 3089TIP3   OH230757   6.946   2.677  14.634 -0.2277  0.1297 -0.0775
 3089TIP3    H130758   6.986   2.596  14.604  0.2150  0.8165 -1.4147
 3089TIP3    H230759   7.019   2.737  14.646 -0.6672  0.7735 -0.5652
 3090TIP3   OH230760   0.827   5.556  13.551 -0.2535  0.7891 -0.2512
 3090TIP3    H130761   0.895   5.507  13.504  0.4478  2.6322 -1.2745
 3090TIP3    H230762   0.793   5.494  13.615  2.0363 -0.3710 -0.0389
 3091TIP3   OH230763   3.610   1.042  11.898 -0.1189 -0.1626  0.1438
 3091TIP3    H130764   3.538   1.015  11.954 -0.3284  1.5382  0.7440
 3091TIP3    H230765   3.683   0.985  11.924  0.0028  1.0310  2.6854
 3092TIP3   OH230766   4.625   5.480  14.661  0.7484  0.0920  0.3155
 3092TIP3    H130767   4.560   5.538  14.620 -0.5282 -0.2704  1.7200
 3092TIP3    H230768   4.678   5.448  14.589  0.7191  2.0653 -0.6407
 3093TIP3   OH230769   0.080   0.141  10.132  0.0708 -0.5447  0.0129
 3093TIP3    H130770   0.092   0.048  10.155  0.2441 -0.8307 -1.1750
 3093TIP3    H230771   0.035   0.178  10.208  3.2594 -0.7178  2.1470
 3094TIP3   OH230772   5.926   4.371  12.024 -0.0201 -0.1076 -0.0476
 3094TIP3    H130773   5.948   4.440  12.087  0.4774  0.7915 -1.1740
 3094TIP3    H230774   5.849   4.328  12.062 -0.0012  0.7040  0.9552
 3095TIP3   OH230775   0.669   3.642  13.735  0.6419 -0.9680 -0.3003
 3095TIP3    H130776   0.707   3.577  13.676 -0.4236 -0.3731 -1.6926
 3095TIP3    H230777   0.621   3.702  13.678 -0.8894 -0.6636  1.2111
 3096TIP3   OH230778   4.836   4.857  11.098 -0.6322  0.8413  0.4267
 3096TIP3    H130779   4.797   4.770  11.091 -0.4508  0.8828 -1.7455
 3096TIP3    H230780   4.905   4.847  11.164 -1.1726 -0.4162  0.8402
 3097TIP3   OH230781   3.376   2.523   4.055 -0.1397 -0.1206  0.1631
 3097TIP3    H130782   3.458   2.573   4.054  0.3238 -0.8672 -1.2313
 3097TIP3    H230783   3.395   2.444   4.005 -1.3611 -0.9123  0.8910
 3098TIP3   OH230784   6.617   4.135  10.188 -0.2240 -0.4581 -0.3763
 3098TIP3    H130785   6.576   4.083  10.257  1.2616  0.0402  0.9411
 3098TIP3    H230786   6.555   4.205  10.171 -0.5035 -0.4341  0.6665
 3099TIP3   OH230787   2.850   3.573  12.607  0.1127 -0.6409 -0.1741
 3099TIP3    H130788   2.809   3.488  12.622  1.9066 -1.6563 -0.7143
 3099TIP3    H230789   2.873   3.572  12.514  0.9450  0.0730  0.0163
 3100TIP3   OH230790   0.546   6.484   1.272 -1.0844 -0.3740  0.4449
 3100TIP3    H130791   0.454   6.474   1.295 -0.7480  0.1563  2.2463
 3100TIP3    H230792   0.546   6.531   1.189 -2.4345 -1.2672 -0.0780
 3101TIP3   OH230793   1.999   1.374  12.894  0.7919 -0.9114  0.3059
 3101TIP3    H130794   1.988   1.443  12.828 -2.8149 -1.4559  0.1239
 3101TIP3    H230795   1.952   1.406  12.970  0.8065 -2.3000  0.9325
 3102TIP3   OH230796   6.735   2.922   0.680  0.3141  0.3470 -0.1314
 3102TIP3    H130797   6.701   2.891   0.764  0.8830 -0.2653 -0.1181
 3102TIP3    H230798   6.721   2.849   0.620  1.7443 -0.0050 -0.0799
 3103TIP3   OH230799   3.280   1.467  10.971 -0.2367 -0.2057  0.2320
 3103TIP3    H130800   3.322   1.382  10.984  0.8136  0.2827  0.1284
 3103TIP3    H230801   3.196   1.446  10.930  0.3055 -1.1458 -0.4400
 3104TIP3   OH230802   5.416   1.849  10.391 -0.3138 -0.8746  0.3050
 3104TIP3    H130803   5.461   1.862  10.308  0.3334  1.1824  0.9303
 3104TIP3    H230804   5.478   1.800  10.445 -0.3539 -1.3510 -0.0676
 3105TIP3   OH230805   5.997   1.848  14.911  0.1186 -0.2179 -1.0860
 3105TIP3    H130806   6.035   1.931  14.939 -0.8689  0.3958 -1.5405
 3105TIP3    H230807   6.012   1.845  14.817  1.4198 -1.2381 -0.8788
 3106TIP3   OH230808   1.216   2.275  11.172  0.1611  0.2645 -0.3600
 3106TIP3    H130809   1.192   2.367  11.184  2.5313  0.8569  0.2892
 3106TIP3    H230810   1.246   2.247  11.258  0.5299 -0.7886 -0.8226
 3107TIP3   OH230811   0.329   3.089  11.784 -0.0252 -0.1914  0.0623
 3107TIP3    H130812   0.408   3.076  11.837  0.9618  0.3621 -1.2230
 3107TIP3    H230813   0.359   3.086  11.694 -1.4622  0.1763 -0.4662
 3108TIP3   OH230814   0.635   4.821  10.842 -0.2389 -0.3152 -0.4244
 3108TIP3    H130815   0.696   4.832  10.769  0.4153 -0.5745  0.0729
 3108TIP3    H230816   0.580   4.747  10.817  0.8076 -1.2313 -0.1230
 3109TIP3   OH230817   5.271   6.895  12.608  0.1959 -0.0120  0.4926
 3109TIP3    H130818   5.196   6.910  12.551  0.0550 -0.9995  0.3981
 3109TIP3    H230819   5.289   6.980  12.648  0.4689  0.7798 -1.2182
 3110TIP3   OH230820   1.538   4.511   3.129  0.2840  0.1199 -0.0676
 3110TIP3    H130821   1.487   4.435   3.157 -1.5845  0.8260 -1.3560
 3110TIP3    H230822   1.587   4.481   3.052 -2.7886  0.8584 -2.5125
 3111TIP3   OH230823   6.693   6.060   3.875 -0.4030 -0.0160  0.0411
 3111TIP3    H130824   6.689   6.136   3.933  0.2067 -0.7720  1.1169
 3111TIP3    H230825   6.629   6.078   3.807  0.1891  1.7404 -0.0767
 3112TIP3   OH230826   4.314   4.126  11.231  0.2958  0.1391  0.0941
 3112TIP3    H130827   4.259   4.195  11.193  1.2451  0.6486 -0.3980
 3112TIP3    H230828   4.384   4.173  11.276 -0.7847 -0.4485  2.5578
 3113TIP3   OH230829   0.278   0.218  14.596  0.4823 -0.4578 -0.2680
 3113TIP3    H130830   0.268   0.130  14.635  1.6796 -0.4418  0.1235
 3113TIP3    H230831   0.338   0.204  14.523  1.5544  0.1989  0.4647
 3114TIP3   OH230832   2.602   5.020  14.803  0.4189 -0.2739  0.4176
 3114TIP3    H130833   2.556   4.952  14.852 -2.5134  0.2085 -1.4351
 3114TIP3    H230834   2.599   5.097  14.859 -0.9324 -0.3205  0.4409
 3115TIP3   OH230835   3.757   4.718  15.268 -0.1011 -0.1873 -0.3577
 3115TIP3    H130836   3.845   4.723  15.304  0.5839  0.5565 -2.0611
 3115TIP3    H230837   3.702   4.763  15.332  1.0743  1.0766 -0.2046
 3116TIP3   OH230838   3.014   2.778  13.890 -0.1116 -0.5441 -0.3881
 3116TIP3    H130839   2.982   2.788  13.980  1.6273  0.5935  0.1602
 3116TIP3    H230840   3.058   2.693  13.890  0.7916 -0.0901  0.1635
 3117TIP3   OH230841   2.191   4.169  10.514 -0.2139  0.0040 -0.5537
 3117TIP3    H130842   2.134   4.230  10.467  0.2992 -0.0128 -1.2028
 3117TIP3    H230843   2.271   4.166  10.462 -0.1245 -0.9949 -0.3672
 3118TIP3   OH230844   0.603   0.834  13.689 -0.7802  0.3031  0.3660
 3118TIP3    H130845   0.656   0.758  13.713 -1.1906  0.1015  0.6505
 3118TIP3    H230846   0.551   0.805  13.614 -0.6958  0.4127  0.2631
 3119TIP3   OH230847   1.697   2.215  11.877  0.0443  0.2928 -0.0860
 3119TIP3    H130848   1.786   2.180  11.887 -0.7608 -1.7275  0.5396
 3119TIP3    H230849   1.706   2.284  11.811  1.7228 -1.2403 -1.5917
 3120TIP3   OH230850   1.226   1.640  13.274 -0.0350 -0.7294 -0.4875
 3120TIP3    H130851   1.147   1.678  13.312  1.1306  3.9532 -2.1050
 3120TIP3    H230852   1.295   1.661  13.337  0.6239 -0.4563 -1.2874
 3121TIP3   OH230853   5.761   7.016  10.652  0.1832  0.5363 -0.6811
 3121TIP3    H130854   5.674   7.052  10.632 -0.0179  0.2368 -0.3508
 3121TIP3    H230855   5.819   7.060  10.590 -0.5588 -1.0028 -2.5922
 3122TIP3   OH230856   4.400   6.475  12.849 -0.4232 -0.0144 -0.0926
 3122TIP3    H130857   4.490   6.447  12.834 -0.9393 -1.6636 -0.2890
 3122TIP3    H230858   4.360   6.474  12.762 -0.8621 -0.1462  0.1090
 3123TIP3   OH230859   4.967   0.672  10.191 -0.1933 -0.3218  0.1949
 3123TIP3    H130860   4.992   0.597  10.245  1.6240  0.3627  0.3533
 3123TIP3    H230861   5.047   0.723  10.180 -0.9468  0.6152 -1.5015
 3124TIP3   OH230862   5.711   2.124  14.517  0.0732 -0.2773  0.2319
 3124TIP3    H130863   5.678   2.163  14.435  1.0431  2.5130  1.0410
 3124TIP3    H230864   5.806   2.128  14.509  0.2650 -2.9639  0.2626
 3125TIP3   OH230865   0.701   4.216   4.250  0.4742 -0.0568  0.2556
 3125TIP3    H130866   0.748   4.159   4.188 -1.6470 -0.2376 -1.2951
 3125TIP3    H230867   0.684   4.295   4.200 -0.7454  0.0442  0.8121
 3126TIP3   OH230868   5.933   3.891  14.400  1.1429 -0.6941  0.6585
 3126TIP3    H130869   5.943   3.942  14.319 -0.9477 -0.3527  0.5785
 3126TIP3    H230870   6.020   3.853  14.414  1.2978 -1.8067 -2.4563
 3127TIP3   OH230871   2.606   6.295  14.855 -0.3976 -0.1001  0.2782
 3127TIP3    H130872   2.702   6.301  14.850 -0.3527 -0.0420  1.0887
 3127TIP3    H230873   2.576   6.320  14.767  0.3457 -0.5547 -0.1141
 3128TIP3   OH230874   2.428   4.537  13.027  0.2682  0.2913 -0.2358
 3128TIP3    H130875   2.501   4.597  13.020  2.3222 -1.8594  1.2404
 3128TIP3    H230876   2.422   4.496  12.940  0.6661  0.6459 -0.4315
 3129TIP3   OH230877   3.606   5.150  11.041  0.1661  0.0294  0.2301
 3129TIP3    H130878   3.565   5.140  11.127  0.1772 -0.2216  0.2054
 3129TIP3    H230879   3.599   5.244  11.023  0.4098  0.1303  0.6287
 3130TIP3   OH230880   0.959   2.346  15.228 -0.3046 -0.3180  0.1892
 3130TIP3    H130881   0.934   2.381  15.142  0.6577 -0.7575 -0.2895
 3130TIP3    H230882   1.029   2.283  15.208 -1.8030 -2.3570  1.0311
 3131TIP3   OH230883   4.422   6.368  12.369  0.0508  0.3724 -0.0831
 3131TIP3    H130884   4.389   6.296  12.316 -2.4327  1.2212  0.1869
 3131TIP3    H230885   4.349   6.430  12.373  1.8908  2.6470  0.1811
 3132TIP3   OH230886   4.715   1.372  13.248  0.1050  0.2125  0.6659
 3132TIP3    H130887   4.790   1.421  13.213  2.6430 -3.1595  0.8010
 3132TIP3    H230888   4.671   1.338  13.170 -1.8876  2.7370  0.5548
 3133TIP3   OH230889   2.574   1.937   2.425  0.2876  0.1382  0.4724
 3133TIP3    H130890   2.620   1.996   2.366  1.0532 -1.5215 -0.6907
 3133TIP3    H230891   2.639   1.916   2.493  0.3098 -0.0096  0.4068
 3134TIP3   OH230892   4.667   1.226   0.654  0.2969 -0.4332  0.2931
 3134TIP3    H130893   4.716   1.235   0.736  0.3735  3.6384  0.0368
 3134TIP3    H230894   4.720   1.275   0.590 -1.3575 -0.7271 -1.3794
 3135TIP3   OH230895   4.460   2.744  11.217  0.0366  0.0458 -0.6321
 3135TIP3    H130896   4.496   2.828  11.189  2.2313  0.2042  2.1860
 3135TIP3    H230897   4.516   2.678  11.175  1.2123  0.1875  0.6415
 3136TIP3   OH230898   3.736   6.915  10.134  0.3084  0.0040  0.0024
 3136TIP3    H130899   3.761   6.851  10.067 -0.2740 -3.1263  2.5308
 3136TIP3    H230900   3.785   6.888  10.212 -0.6367  2.1652  1.4235
 3137TIP3   OH230901   5.917   2.849   3.914  0.4934  0.1031 -0.3344
 3137TIP3    H130902   5.951   2.808   3.834 -1.1278 -0.9479 -0.5235
 3137TIP3    H230903   5.914   2.778   3.978  0.5136  0.6349  0.2686
 3138TIP3   OH230904   4.583   2.013  13.320 -0.0414 -0.5022  0.2916
 3138TIP3    H130905   4.519   2.009  13.391 -0.2718  2.0856  0.3151
 3138TIP3    H230906   4.658   2.059  13.358 -0.1590  0.9002 -1.0819
 3139TIP3   OH230907   4.348   0.882  12.204  0.5103 -0.4402 -0.2206
 3139TIP3    H130908   4.337   0.848  12.115  1.6374 -1.7631  0.1167
 3139TIP3    H230909   4.336   0.806  12.261  2.2683 -0.1738  0.6003
 3140TIP3   OH230910   3.518   4.758   3.540  0.6775 -0.1587  0.2576
 3140TIP3    H130911   3.564   4.819   3.482  0.3847  0.6545  0.8590
 3140TIP3    H230912   3.430   4.750   3.502 -0.1999  1.9822  1.6479
 3141TIP3   OH230913   2.565   5.257  10.218 -0.0556 -0.1858  0.5001
 3141TIP3    H130914   2.489   5.240  10.162 -0.2174  1.7126  0.0789
 3141TIP3    H230915   2.633   5.197  10.185 -1.1376 -1.4073  0.4274
 3142TIP3   OH230916   2.715   5.873  14.999  0.4538 -0.2075  0.3598
 3142TIP3    H130917   2.662   5.949  15.024  0.7865  0.6865 -1.4804
 3142TIP3    H230918   2.657   5.799  15.012 -0.4657  0.5271  0.5761
 3143TIP3   OH230919   4.422   5.267   3.323 -0.1658 -0.0184  0.8315
 3143TIP3    H130920   4.348   5.323   3.304  0.4030  0.3222 -0.4515
 3143TIP3    H230921   4.498   5.325   3.321  0.8738 -1.1743 -3.6892
 3144TIP3   OH230922   4.411   3.588  12.356 -0.2950 -0.1157  0.1362
 3144TIP3    H130923   4.366   3.655  12.304 -1.1739 -0.8514 -0.0590
 3144TIP3    H230924   4.355   3.574  12.432 -1.0992 -1.9384 -0.7201
 3145TIP3   OH230925   0.961   5.893   2.771 -0.2517 -0.5609  0.1087
 3145TIP3    H130926   0.939   5.942   2.692  2.7458  1.9619  0.6545
 3145TIP3    H230927   0.906   5.931   2.839  0.1833  0.2855  0.0064
 3146TIP3   OH230928   5.070   1.220   0.157  0.3734 -0.0815 -0.1637
 3146TIP3    H130929   4.979   1.213   0.187  0.4295  0.7800  0.2676
 3146TIP3    H230930   5.106   1.132   0.164 -1.0709 -0.9488 -2.5192
 3147TIP3   OH230931   7.052   6.897   9.818 -0.6000  0.7376 -0.3302
 3147TIP3    H130932   7.100   6.922   9.738 -0.1822 -1.1157 -0.7164
 3147TIP3    H230933   7.047   6.801   9.813 -1.3745  0.6591  1.4304
 3148TIP3   OH230934   3.555   4.171   3.368 -0.5767 -0.0330  0.1583
 3148TIP3    H130935   3.536   4.079   3.353  0.9166 -0.4168  0.5345
 3148TIP3    H230936   3.499   4.218   3.306 -3.2301 -1.0417  1.6215
 3149TIP3   OH230937   3.013   6.355  11.190  0.2448 -0.2462 -0.0077
 3149TIP3    H130938   3.037   6.263  11.184  1.6987  0.1145 -0.2023
 3149TIP3    H230939   3.070   6.398  11.126  1.3441  1.0844  1.7758
 3150TIP3   OH230940   6.888   4.226  14.667 -0.2808  0.0244 -0.3796
 3150TIP3    H130941   6.851   4.306  14.703 -0.4589 -0.2573  0.0736
 3150TIP3    H230942   6.819   4.191  14.610 -1.0746 -0.9406  1.1114
 3151TIP3   OH230943   0.089   3.078  11.883  0.4593  0.0070 -0.3697
 3151TIP3    H130944   0.173   3.102  11.845 -0.4266  1.2773 -1.6602
 3151TIP3    H230945   0.036   3.050  11.808  0.5657 -3.6432  0.7450
 3152TIP3   OH230946   1.600   2.626  10.137  0.2621  0.5000 -0.2722
 3152TIP3    H130947   1.659   2.578  10.079 -0.0103  1.1587 -1.1192
 3152TIP3    H230948   1.521   2.639  10.085 -0.9150 -0.9087  1.0429
 3153TIP3   OH230949   6.421   5.861  10.909 -0.3947 -0.4193  0.4223
 3153TIP3    H130950   6.507   5.875  10.946  0.0917  0.1757 -0.8728
 3153TIP3    H230951   6.417   5.918  10.832 -2.3104  0.3172  0.9962
 3154TIP3   OH230952   2.225   1.868  15.116 -0.2708  0.3256 -0.0564
 3154TIP3    H130953   2.243   1.936  15.051 -0.4776  1.3696  0.9481
 3154TIP3    H230954   2.310   1.846  15.152 -0.1899 -0.0419 -0.4639
 3155TIP3   OH230955   6.030   3.428   2.247  0.2143 -0.1546  0.3547
 3155TIP3    H130956   6.101   3.387   2.198  1.1319  0.0327  1.4843
 3155TIP3    H230957   6.054   3.416   2.338 -2.4795 -2.3626  0.8919
 3156TIP3   OH230958   6.227   5.315  11.936  0.4022 -0.0162  0.3455
 3156TIP3    H130959   6.223   5.389  11.997  0.1892 -0.2732  0.6457
 3156TIP3    H230960   6.138   5.307  11.902  0.3507 -0.3275  0.5482
 3157TIP3   OH230961   0.216   6.874  12.855 -0.4535 -0.1975  0.1187
 3157TIP3    H130962   0.294   6.848  12.904  0.6748  3.2508  0.4209
 3157TIP3    H230963   0.143   6.850  12.911  0.4336 -1.8809  0.6326
 3158TIP3   OH230964   4.220   6.525  13.641 -0.3722  0.6179 -0.6831
 3158TIP3    H130965   4.137   6.477  13.646  0.1470 -0.2201  0.3280
 3158TIP3    H230966   4.248   6.515  13.550 -0.1267 -1.3158 -0.4313
 3159TIP3   OH230967   4.950   3.339  14.493  0.4756  0.1090  0.3898
 3159TIP3    H130968   4.937   3.432  14.473  0.1738 -0.2393 -1.1560
 3159TIP3    H230969   5.004   3.307  14.421  0.2662 -0.9989  0.7164
 3160TIP3   OH230970   5.288   3.467   2.296 -0.0957  0.3233  0.1337
 3160TIP3    H130971   5.362   3.519   2.266  0.7143 -1.1806 -0.6065
 3160TIP3    H230972   5.214   3.496   2.242  0.3363  0.6917 -0.2676
 3161TIP3   OH230973   3.070   5.216  15.294 -0.2575  0.6353 -0.0249
 3161TIP3    H130974   3.126   5.277  15.246  0.6017  0.5999  0.9096
 3161TIP3    H230975   3.030   5.269  15.363 -0.4147  0.3985  0.0673
 3162TIP3   OH230976   3.546   1.717  11.516  0.1583 -0.3182 -0.6452
 3162TIP3    H130977   3.623   1.661  11.505  1.0561  0.4670  1.1735
 3162TIP3    H230978   3.537   1.728  11.611 -0.6388  1.7130 -0.8989
 3163TIP3   OH230979   0.476   3.583  15.196  0.6507  0.3936 -0.1739
 3163TIP3    H130980   0.519   3.505  15.231 -0.1921 -0.3625 -0.7874
 3163TIP3    H230981   0.530   3.609  15.121  0.6230  0.0526 -0.3160
 3164TIP3   OH230982   4.260   6.284  14.708 -0.2591  0.1801 -0.3621
 3164TIP3    H130983   4.326   6.217  14.687 -0.8291 -0.4604 -0.1440
 3164TIP3    H230984   4.242   6.326  14.624  0.6273  0.5527 -0.3779
 3165TIP3   OH230985   1.098   1.242  10.110  0.3150 -0.1084 -0.5642
 3165TIP3    H130986   1.085   1.199  10.026  0.8368 -0.5139 -0.4391
 3165TIP3    H230987   1.166   1.192  10.153 -1.5249 -1.3569  1.0912
 3166TIP3   OH230988   3.650   3.214  11.636  0.5126  0.2580  0.2334
 3166TIP3    H130989   3.672   3.125  11.608  0.4042  0.5545 -0.8239
 3166TIP3    H230990   3.554   3.216  11.637  0.5132  0.2262  0.7303
 3167TIP3   OH230991   4.289   5.318  11.746  0.6444 -0.1287 -0.0629
 3167TIP3    H130992   4.246   5.377  11.807  1.0741 -0.3780  0.4945
 3167TIP3    H230993   4.360   5.279  11.797  1.3892  0.1052 -0.8912
 3168TIP3   OH230994   2.938   7.130  10.922 -0.2350 -0.2473 -0.1239
 3168TIP3    H130995   2.918   7.218  10.890  0.5060 -0.3051 -0.7938
 3168TIP3    H230996   3.004   7.144  10.990 -0.7140 -0.2284  0.3365
 3169TIP3   OH230997   5.702   5.945  12.878  0.8093  0.0530 -0.0024
 3169TIP3    H130998   5.742   5.893  12.808  2.6352  0.7231  0.4785
 3169TIP3    H230999   5.658   6.017  12.833  2.8550  1.0772 -0.4996
 3170TIP3   OH231000   6.388   0.638   3.625  0.3025  0.0669 -0.2263
 3170TIP3    H131001   6.304   0.592   3.615  0.2226  0.2347 -0.3386
 3170TIP3    H231002   6.442   0.578   3.676 -0.7378  1.0554  2.1680
 3171TIP3   OH231003   0.797   4.959   2.128  0.1086 -0.4690  0.0468
 3171TIP3    H131004   0.758   4.874   2.108  1.6825 -1.1368 -0.3187
 3171TIP3    H231005   0.853   4.943   2.204 -1.6831  0.8764  1.7512
 3172TIP3   OH231006   4.213   2.631  14.815  0.0574 -0.2726 -0.3471
 3172TIP3    H131007   4.199   2.538  14.832 -0.9948  0.1950  1.6382
 3172TIP3    H231008   4.143   2.654  14.753 -0.2062 -0.6385 -0.1916
 3173TIP3   OH231009   0.272   3.498  13.069 -0.0729 -0.0551  0.1171
 3173TIP3    H131010   0.221   3.429  13.111  1.1442 -1.0022  0.1077
 3173TIP3    H231011   0.363   3.475  13.087  0.3895  2.3332  1.3621
 3174TIP3   OH231012   3.452   6.857  14.469  0.2590  0.7066 -0.2012
 3174TIP3    H131013   3.432   6.817  14.385 -2.2323  3.0669 -0.8550
 3174TIP3    H231014   3.537   6.821  14.493  0.9398 -0.2541 -3.5910
 3175TIP3   OH231015   3.046   3.966  10.561 -0.0983 -0.5502 -0.1271
 3175TIP3    H131016   3.080   4.002  10.478 -1.2628  1.9325  0.3688
 3175TIP3    H231017   2.958   3.936  10.539 -0.9133  1.2943  0.3847
 3176TIP3   OH231018   4.188   0.592  11.066 -0.7624  0.4858  0.4437
 3176TIP3    H131019   4.229   0.532  11.127 -0.3444  0.4858  0.1694
 3176TIP3    H231020   4.107   0.619  11.109 -0.3703  0.6549  1.0887
 3177TIP3   OH231021   4.685   1.103  10.951 -0.0527  0.1417  0.6946
 3177TIP3    H131022   4.651   1.015  10.937 -0.4358  0.3904  0.0381
 3177TIP3    H231023   4.751   1.114  10.882 -0.4003  0.5724  0.4314
 3178TIP3   OH231024   1.015   2.702  11.944  0.8895 -0.2712  0.4121
 3178TIP3    H131025   1.024   2.758  11.867 -3.4556 -2.6932 -2.2724
 3178TIP3    H231026   0.987   2.761  12.014  0.0946  1.4553 -1.2535
 3179TIP3   OH231027   5.572   1.050   5.044 -0.2177  0.4569 -0.3760
 3179TIP3    H131028   5.533   0.984   5.100  2.3795 -0.8802  0.0424
 3179TIP3    H231029   5.601   1.119   5.104  0.1545  0.3003 -0.3685
 3180TIP3   OH231030   0.907   0.550   2.063  0.2364  0.1870  0.4882
 3180TIP3    H131031   0.939   0.579   2.148 -0.3109 -1.7038  1.4071
 3180TIP3    H231032   0.936   0.459   2.055 -0.2613  0.1203 -1.0629
 3181TIP3   OH231033   5.694   0.078  11.606  0.1825 -0.2609 -0.0508
 3181TIP3    H131034   5.661   0.054  11.519  1.7697 -1.7239 -0.2987
 3181TIP3    H231035   5.666   0.005  11.662  1.3311 -0.5942  0.1107
 3182TIP3   OH231036   3.186   1.882  14.909  0.4501  0.6010  0.2543
 3182TIP3    H131037   3.145   1.950  14.856  1.1880  0.6953 -0.2100
 3182TIP3    H231038   3.263   1.856  14.858  1.4067  0.9820  1.4789
 3183TIP3   OH231039   6.430   4.811  14.153 -1.0006 -0.4461 -0.2957
 3183TIP3    H131040   6.423   4.796  14.247 -0.5877 -0.7254 -0.3060
 3183TIP3    H231041   6.434   4.723  14.115  1.5290 -0.3690 -0.3540
 3184TIP3   OH231042   1.298   6.925  13.402 -0.0481 -0.3532 -0.1166
 3184TIP3    H131043   1.325   6.945  13.491 -3.9040  2.9135  0.5669
 3184TIP3    H231044   1.228   6.860  13.411  0.0453 -0.5681 -0.8301
 3185TIP3   OH231045   3.165   1.896  11.689 -0.1527  0.6301 -0.0465
 3185TIP3    H131046   3.235   1.947  11.729 -0.2671 -0.2653  1.3425
 3185TIP3    H231047   3.148   1.941  11.606  1.9321  0.9588 -0.3520
 3186TIP3   OH231048   6.160   2.277  12.059 -0.1970 -0.4353 -0.1415
 3186TIP3    H131049   6.149   2.282  12.154  0.0776  0.8659 -0.1578
 3186TIP3    H231050   6.223   2.345  12.038 -1.1429  0.1145 -1.3856
 3187TIP3   OH231051   3.344   6.281   0.043  0.3836  0.8428  0.1618
 3187TIP3    H131052   3.435   6.309   0.054  0.9499 -1.3142  1.5725
 3187TIP3    H231053   3.349   6.204  -0.012 -0.5092  0.2680  0.8558
 3188TIP3   OH231054   5.254   4.348  14.483 -0.9669  0.9558 -0.1204
 3188TIP3    H131055   5.204   4.429  14.474 -0.5252  1.3860  1.1149
 3188TIP3    H231056   5.319   4.368  14.551 -0.7036 -0.3632  0.0278
 3189TIP3   OH231057   4.147   5.986  12.364  0.0426  0.0292  0.1776
 3189TIP3    H131058   4.158   5.920  12.433 -0.5496  0.4175  0.6540
 3189TIP3    H231059   4.053   5.985  12.345  0.0001  0.8280  0.2963
 3190TIP3   OH231060   3.910   6.510   3.256 -0.1057  0.2543  0.2092
 3190TIP3    H131061   3.840   6.517   3.321  1.0360 -0.2669  1.5565
 3190TIP3    H231062   3.925   6.416   3.247  1.9157  0.3554  1.6992
 3191TIP3   OH231063   4.082   0.404  13.022  0.5176  0.3988  0.0696
 3191TIP3    H131064   4.164   0.408  12.972 -0.1529 -1.8842 -1.3564
 3191TIP3    H231065   4.014   0.387  12.957 -0.5737 -1.4057  1.5704
 3192TIP3   OH231066   3.674   4.989  11.893  0.1643  0.1546 -0.0622
 3192TIP3    H131067   3.585   4.985  11.858 -0.5842  0.7948  1.6381
 3192TIP3    H231068   3.730   4.963  11.820 -1.4049 -0.1968 -1.1952
 3193TIP3   OH231069   6.808   4.906  14.742 -0.1300 -0.0824 -0.4396
 3193TIP3    H131070   6.733   4.958  14.770  1.1154  1.6985 -0.2379
 3193TIP3    H231071   6.816   4.837  14.808 -0.4012  0.9119  0.6624
 3194TIP3   OH231072   3.668   3.973  10.105  0.1680  0.1029 -0.6811
 3194TIP3    H131073   3.748   3.967  10.157  0.1219 -1.7533 -0.7743
 3194TIP3    H231074   3.675   4.057  10.060  2.3464 -0.2868 -1.1535
 3195TIP3   OH231075   3.340   5.142   9.841 -0.0957  0.2162  0.8265
 3195TIP3    H131076   3.269   5.147   9.777 -0.6843  2.7351  1.5457
 3195TIP3    H231077   3.305   5.089   9.912 -0.5026 -0.2069  0.3145
 3196TIP3   OH231078   5.357   2.838  11.486 -0.3465 -0.2397 -0.2347
 3196TIP3    H131079   5.377   2.812  11.575 -1.5397  0.3143  0.2111
 3196TIP3    H231080   5.427   2.898  11.462 -0.7506  0.6989  0.8410
 3197TIP3   OH231081   2.848   0.123  10.483 -0.0384  0.4800  0.4842
 3197TIP3    H131082   2.917   0.058  10.497 -1.3776 -1.4087 -1.1310
 3197TIP3    H231083   2.880   0.177  10.410 -0.0891 -0.1697 -0.0297
 3198TIP3   OH231084   5.137   0.312   9.949  0.2059  0.7603  0.0076
 3198TIP3    H131085   5.207   0.260   9.911 -1.6001 -1.6435 -0.2734
 3198TIP3    H231086   5.141   0.396   9.904  2.4913  0.4891 -0.3935
 3199TIP3   OH231087   7.107   6.797   3.807 -0.3193  0.4043  0.4104
 3199TIP3    H131088   7.160   6.877   3.800 -1.0231  0.8957  0.6412
 3199TIP3    H231089   7.171   6.726   3.807  0.3576  1.0050  0.9742
 3200TIP3   OH231090   3.485   6.535  15.589  0.7943  0.0365  0.6051
 3200TIP3    H131091   3.497   6.609  15.530  1.0798 -0.0689  0.5257
 3200TIP3    H231092   3.488   6.572  15.677 -0.4176  0.3075  0.5506
 3201TIP3   OH231093   0.383   3.816  11.813  0.0548 -0.3686 -0.7161
 3201TIP3    H131094   0.443   3.882  11.778 -0.8192  0.0702 -1.4393
 3201TIP3    H231095   0.328   3.864  11.875  0.3523 -0.7364 -0.1608
 3202TIP3   OH231096   5.768   4.600  15.063  0.0594  0.0433  0.3081
 3202TIP3    H131097   5.699   4.588  15.128  0.7260 -1.2170  0.8270
 3202TIP3    H231098   5.831   4.658  15.105  0.0493 -0.0302  0.4233
 3203TIP3   OH231099   2.840   1.777   4.656 -0.2156  0.1469  0.1884
 3203TIP3    H131100   2.794   1.698   4.627 -2.6671  0.6177  2.4407
 3203TIP3    H231101   2.775   1.847   4.646  1.0770  1.4380  0.5664
 3204TIP3   OH231102   0.925   3.413   1.211 -0.4495  0.5744 -0.2508
 3204TIP3    H131103   0.974   3.495   1.207 -1.6611  1.3768  0.5408
 3204TIP3    H231104   0.884   3.414   1.298 -0.1755 -1.0669 -0.0710
 3205TIP3   OH231105   0.282   4.724  11.618 -0.1151 -0.5665 -0.6747
 3205TIP3    H131106   0.192   4.739  11.647  0.2245  1.3997 -0.5244
 3205TIP3    H231107   0.280   4.740  11.524 -0.5104 -3.6526 -1.3196
 3206TIP3   OH231108   0.735   5.467  10.312  0.1197 -0.4741  0.0559
 3206TIP3    H131109   0.789   5.492  10.237 -1.1009 -0.5443 -0.8774
 3206TIP3    H231110   0.733   5.371  10.310 -2.6761 -0.4866 -1.9467
 3207TIP3   OH231111   7.086   1.514  12.421 -0.4016 -0.3042  0.5682
 3207TIP3    H131112   7.025   1.452  12.381 -0.2324  0.3817 -0.8283
 3207TIP3    H231113   7.169   1.466  12.423 -0.4197 -0.3639  0.1094
 3208TIP3   OH231114   6.426   2.132  12.150 -0.8001 -0.0778 -0.0210
 3208TIP3    H131115   6.390   2.182  12.223 -1.1194 -0.4600  0.0927
 3208TIP3    H231116   6.430   2.194  12.077 -0.8980  0.1912  0.2009
 3209TIP3   OH231117   1.965   6.326   3.410  0.4654  0.2160 -0.0217
 3209TIP3    H131118   1.917   6.252   3.374  1.6377 -0.4700 -0.2322
 3209TIP3    H231119   1.997   6.374   3.334  0.4373  0.4567  0.1157
 3210TIP3   OH231120   2.222   1.330  10.498 -0.2350  0.1391 -0.1674
 3210TIP3    H131121   2.225   1.316  10.592 -0.8453  1.0844  0.0058
 3210TIP3    H231122   2.232   1.425  10.487 -1.1260  0.1604 -0.9907
 3211TIP3   OH231123   4.499   5.268  13.175  0.5941  0.4848 -0.2181
 3211TIP3    H131124   4.562   5.340  13.167  0.6060  0.6181  0.9452
 3211TIP3    H231125   4.504   5.242  13.267 -1.9931  1.3739  0.2473
 3212TIP3   OH231126   6.642   2.938   5.240  0.0848 -0.6414  0.4634
 3212TIP3    H131127   6.596   2.868   5.286 -0.7159 -1.0419 -0.8903
 3212TIP3    H231128   6.707   2.892   5.186 -2.4210 -0.7742 -2.8050
 3213TIP3   OH231129   4.044   3.440   0.439 -0.0240 -0.1714  0.2114
 3213TIP3    H131130   3.950   3.444   0.458  0.0476  0.4688  0.4536
 3213TIP3    H231131   4.052   3.479   0.351 -0.0926 -1.0952 -0.2123
 3214TIP3   OH231132   2.867   7.046  10.652 -0.2215 -0.4410 -0.0725
 3214TIP3    H131133   2.854   7.061  10.746 -0.8119  1.0863 -0.3588
 3214TIP3    H231134   2.793   7.091  10.610  0.2785 -0.7024 -1.2906
 3215TIP3   OH231135   2.971   0.536  12.615 -0.0263  0.0083 -0.0073
 3215TIP3    H131136   2.954   0.502  12.527  0.0154  0.4471 -0.1883
 3215TIP3    H231137   2.896   0.592  12.634  0.1943  0.2891  0.0443
 3216TIP3   OH231138   1.269   0.848  15.711  1.0227 -0.6973 -0.2466
 3216TIP3    H131139   1.314   0.898  15.643 -0.0251 -0.3818 -0.7264
 3216TIP3    H231140   1.302   0.884  15.793  0.1867  0.9109 -0.5760
 3217TIP3   OH231141   1.825   2.248  12.799 -0.2516 -0.5389  0.2993
 3217TIP3    H131142   1.784   2.197  12.869  0.1760 -1.9614 -0.4489
 3217TIP3    H231143   1.790   2.210  12.719 -0.1138  0.5358 -0.2741
 3218TIP3   OH231144   1.870   1.666   3.540  0.6340 -0.5846  0.2718
 3218TIP3    H131145   1.904   1.616   3.614  1.2094  1.0440  1.1459
 3218TIP3    H231146   1.850   1.752   3.577  3.0861  1.0560 -1.8942
 3219TIP3   OH231147   3.693   2.715   4.303  0.7434 -0.3039 -0.3211
 3219TIP3    H131148   3.728   2.804   4.305  0.0304 -0.0189 -0.0704
 3219TIP3    H231149   3.652   2.703   4.389 -1.7133  0.1981 -1.3519
 3220TIP3   OH231150   2.488   1.704  10.073 -0.3843  0.4010  0.3811
 3220TIP3    H131151   2.429   1.714   9.999 -1.7272 -0.8843  1.2434
 3220TIP3    H231152   2.552   1.775  10.061 -1.1083  0.8109 -1.4630
 3221TIP3   OH231153   4.994   0.508   0.102 -0.0150 -0.1539 -0.1520
 3221TIP3    H131154   4.976   0.471   0.016 -0.8620 -0.6411  0.2226
 3221TIP3    H231155   4.975   0.601   0.093  0.6541 -0.0639 -0.6921
 3222TIP3   OH231156   2.224   5.594   2.655  0.7817 -1.0273 -0.5333
 3222TIP3    H131157   2.259   5.512   2.620  0.6909 -1.4150  0.2657
 3222TIP3    H231158   2.280   5.614   2.730  0.7463 -0.4002 -0.6680
 3223TIP3   OH231159   4.772   4.160  10.896  0.1459 -0.5278 -0.3787
 3223TIP3    H131160   4.747   4.133  10.808 -1.8371  0.0512 -0.0492
 3223TIP3    H231161   4.812   4.246  10.883 -2.1179  0.5716 -0.5804
 3224TIP3   OH231162   5.592   6.408   1.406  0.3387  0.3457  0.1228
 3224TIP3    H131163   5.606   6.393   1.312 -1.0544 -0.0973 -0.0432
 3224TIP3    H231164   5.677   6.392   1.446  0.6298 -0.8614 -0.9185
 3225TIP3   OH231165   2.911   4.493  11.313  0.0867  0.2413 -0.1106
 3225TIP3    H131166   2.970   4.425  11.347  0.9909  0.3389 -1.4293
 3225TIP3    H231167   2.835   4.490  11.371  1.4984  0.3139  1.8430
 3226TIP3   OH231168   1.203   1.815  11.818 -0.4670  0.4412 -0.6169
 3226TIP3    H131169   1.265   1.782  11.752  0.4997  0.7061  0.1385
 3226TIP3    H231170   1.165   1.736  11.857  0.7404  0.2169  0.1545
 3227TIP3   OH231171   5.927   3.249  14.728 -0.3567 -0.8150 -0.1549
 3227TIP3    H131172   5.876   3.321  14.765 -0.1852 -0.0480 -1.3525
 3227TIP3    H231173   5.989   3.225  14.797 -0.1276  0.4711  0.1076
 3228TIP3   OH231174   1.834   1.576  11.618  0.0034  0.1240  0.3376
 3228TIP3    H131175   1.870   1.644  11.675  1.1820 -1.5353  1.6646
 3228TIP3    H231176   1.900   1.508  11.618 -1.9385 -1.8636  0.5975
 3229TIP3   OH231177   3.857   0.187  11.660  0.0647  0.1282 -0.1888
 3229TIP3    H131178   3.782   0.130  11.678 -0.5896  0.7658 -0.8217
 3229TIP3    H231179   3.930   0.147  11.707 -0.7421 -0.3360  0.6910
 3230TIP3   OH231180   6.957   0.725  11.093  0.3567  0.0807 -0.1256
 3230TIP3    H131181   6.970   0.663  11.020  1.7998 -1.3305  1.2456
 3230TIP3    H231182   6.949   0.670  11.170 -1.2819  1.5471  0.8226
 3231TIP3   OH231183   4.089   1.466  15.302  0.2901 -1.1466  0.0672
 3231TIP3    H131184   4.047   1.443  15.220 -0.6782 -3.4806  1.1243
 3231TIP3    H231185   4.026   1.522  15.347 -0.2538 -1.8662  0.2206
 3232TIP3   OH231186   2.034   1.552   3.329 -0.4257 -0.3264 -0.1315
 3232TIP3    H131187   1.979   1.615   3.376  0.4808  0.1641  0.2893
 3232TIP3    H231188   2.005   1.466   3.360 -0.7840 -0.0601  0.2714
 3233TIP3   OH231189   4.021   4.980  10.264 -0.2513  0.5125  0.2845
 3233TIP3    H131190   4.017   4.891  10.299 -3.6976 -0.6034 -2.3792
 3233TIP3    H231191   4.072   4.972  10.183 -0.5901  0.9212  0.0234
 3234TIP3   OH231192   4.541   2.818   1.961  0.2373  0.9459  0.6509
 3234TIP3    H131193   4.635   2.814   1.978 -0.0300 -1.8922  1.9334
 3234TIP3    H231194   4.520   2.732   1.924 -1.7298  1.8581 -0.4672
 3235TIP3   OH231195   1.472   5.992  14.170 -0.2010  0.1432 -0.2972
 3235TIP3    H131196   1.459   6.081  14.201  0.8481 -0.2293  1.3113
 3235TIP3    H231197   1.428   5.937  14.236  2.0658 -0.6758  0.6236
 3236TIP3   OH231198   1.533   4.265   9.879  0.5682  0.1436 -0.7055
 3236TIP3    H131199   1.524   4.259   9.784  0.5096 -0.4192 -0.6693
 3236TIP3    H231200   1.627   4.262   9.895  0.5603 -0.2090 -0.7213
 3237TIP3   OH231201   6.029   4.598  13.782 -0.5099  0.2105  0.3081
 3237TIP3    H131202   5.952   4.606  13.838  1.0063  0.4034  2.5179
 3237TIP3    H231203   6.032   4.506  13.757 -0.0250 -0.4230  2.4924
 3238TIP3   OH231204   5.411   0.910  14.810 -0.9292 -0.6560  0.6526
 3238TIP3    H131205   5.319   0.898  14.834 -1.4164 -0.0726 -0.8147
 3238TIP3    H231206   5.408   0.955  14.725  0.7283  0.7757  1.3103
 3239TIP3   OH231207   4.316   5.823   4.843  0.0483  0.4868 -0.2269
 3239TIP3    H131208   4.376   5.889   4.879  0.8217  0.4023 -1.3360
 3239TIP3    H231209   4.322   5.750   4.905  2.4969 -0.2581 -1.2219
 3240TIP3   OH231210   1.205   4.255  15.208 -0.4364  0.2803 -0.7466
 3240TIP3    H131211   1.202   4.161  15.192  0.2917 -0.1785  1.4237
 3240TIP3    H231212   1.136   4.270  15.273  0.3319  0.9824 -0.0647
 3241TIP3   OH231213   0.244   4.238   9.995  0.1765  0.3873  0.2754
 3241TIP3    H131214   0.197   4.227  10.078  0.3568 -0.1086  0.3157
 3241TIP3    H231215   0.228   4.328   9.970 -3.3870 -0.5203 -1.2779
 3242TIP3   OH231216   4.724   1.220  11.869  0.0138  0.4959 -0.9476
 3242TIP3    H131217   4.722   1.165  11.948 -0.7060  1.2748 -0.3960
 3242TIP3    H231218   4.797   1.187  11.818 -0.2505 -0.8152 -0.5210
 3243TIP3   OH231219   5.473   2.058  11.919 -0.6636  0.4726 -0.0693
 3243TIP3    H131220   5.386   2.019  11.927  0.2077 -1.8413 -0.9115
 3243TIP3    H231221   5.495   2.047  11.826  0.8179  0.3792  0.2778
 3244TIP3   OH231222   2.597   4.785   1.551  0.0460 -0.2785  0.0924
 3244TIP3    H131223   2.565   4.860   1.501  1.2377 -0.0642 -0.3830
 3244TIP3    H231224   2.520   4.755   1.601 -0.2965  1.6609  0.8284
 3245TIP3   OH231225   2.845   3.044  11.049 -0.3012 -0.5139  0.3296
 3245TIP3    H131226   2.897   3.119  11.021  0.7717 -1.0769  0.7644
 3245TIP3    H231227   2.833   3.057  11.143  1.0563 -1.5515  0.6755
 3246TIP3   OH231228   2.249   2.476   1.337  0.5397  0.7277  0.1972
 3246TIP3    H131229   2.222   2.390   1.366  2.2377  0.4847  1.2010
 3246TIP3    H231230   2.204   2.537   1.396 -1.5382  0.6548 -1.2077
 3247TIP3   OH231231   1.757   3.234  10.559  0.1199  0.2165  0.3930
 3247TIP3    H131232   1.849   3.208  10.559  0.4085  1.1542 -0.5608
 3247TIP3    H231233   1.749   3.297  10.630  0.6292  1.4062 -0.5654
 3248TIP3   OH231234   5.998   1.782   0.464 -0.4576 -0.0562 -0.2590
 3248TIP3    H131235   6.009   1.806   0.556 -1.1649  0.6834 -0.3481
 3248TIP3    H231236   6.032   1.857   0.416 -0.4514 -0.2735 -0.5949
 3249TIP3   OH231237   6.787   6.192  14.980  0.2705  0.4399  0.1615
 3249TIP3    H131238   6.759   6.260  14.919  0.4588  0.4041  0.0353
 3249TIP3    H231239   6.771   6.230  15.067  3.4829  2.0606  0.2182
 3250TIP3   OH231240   3.207   0.892  12.613  0.4065  0.2512  0.1598
 3250TIP3    H131241   3.128   0.937  12.583 -0.5786  0.0512  2.2705
 3250TIP3    H231242   3.174   0.821  12.667  2.0434  0.2785  1.2488
 3251TIP3   OH231243   0.276   2.585  10.831  0.2781 -0.9292  0.1496
 3251TIP3    H131244   0.367   2.557  10.819  0.3846 -0.0675 -1.3336
 3251TIP3    H231245   0.225   2.519  10.783  0.2007 -0.8667  0.1474
 3252TIP3   OH231246   5.332   2.944  14.394  0.0058  0.0592  0.2886
 3252TIP3    H131247   5.330   3.029  14.349 -0.6897 -0.6588 -1.0936
 3252TIP3    H231248   5.414   2.904  14.367  0.4950  0.4107  1.2102
 3253TIP3   OH231249   3.177   3.473   0.851  0.3923 -0.6118 -0.0310
 3253TIP3    H131250   3.239   3.487   0.922 -0.6263  3.9337  0.3262
 3253TIP3    H231251   3.093   3.459   0.895  0.1744 -0.3931 -0.3741
 3254TIP3   OH231252   5.621   3.033  10.364 -0.0002  0.2418  0.0322
 3254TIP3    H131253   5.538   3.063  10.401  0.3368 -0.5074  1.4704
 3254TIP3    H231254   5.680   3.107  10.377  0.4326 -0.3999  2.2012
 3255TIP3   OH231255   6.114   1.178   3.881  0.3236  0.1023  0.0912
 3255TIP3    H131256   6.068   1.215   3.956  1.3887  0.3119  0.6529
 3255TIP3    H231257   6.062   1.205   3.805  0.3350  1.5965  0.5935
 3256TIP3   OH231258   2.465   6.365  15.226 -0.0573 -0.2122 -0.1852
 3256TIP3    H131259   2.560   6.361  15.216  0.1223  1.4779  0.4741
 3256TIP3    H231260   2.442   6.284  15.272  0.8566 -1.3137 -1.5875
 3257TIP3   OH231261   1.109   0.798  13.664  0.5576 -1.0091  0.5372
 3257TIP3    H131262   1.109   0.894  13.662 -1.0000 -0.9754  0.8476
 3257TIP3    H231263   1.201   0.774  13.650  0.7705  0.4872 -0.9422
 3258TIP3   OH231264   2.639   6.106   1.536 -0.4624 -0.1271  0.6322
 3258TIP3    H131265   2.642   6.191   1.491  1.2430  0.8350  2.4083
 3258TIP3    H231266   2.546   6.092   1.553 -0.7853  1.4210  0.3368
 3259TIP3   OH231267   7.008   2.284  12.440 -0.2016  0.5006  0.2826
 3259TIP3    H131268   6.966   2.328  12.514 -0.2172  0.1945  0.4551
 3259TIP3    H231269   7.041   2.356  12.386 -1.0273  0.7451  0.0911
 3260TIP3   OH231270   2.293   5.172   3.842 -0.2455  0.0653 -0.1171
 3260TIP3    H131271   2.381   5.154   3.874 -0.9862 -0.9568  1.4455
 3260TIP3    H231272   2.277   5.264   3.863  1.0720  0.7977 -2.0468
 3261TIP3   OH231273   5.737   4.208  10.037 -0.1202 -0.0754 -0.5263
 3261TIP3    H131274   5.692   4.128  10.066  0.0122 -0.6808 -1.9107
 3261TIP3    H231275   5.669   4.275  10.039 -0.0257  0.0319  1.5194
 3262TIP3   OH231276   5.484   4.267  14.676  0.3218  0.0394 -0.3457
 3262TIP3    H131277   5.474   4.305  14.764 -1.4693 -1.0713 -0.0072
 3262TIP3    H231278   5.438   4.183  14.681  1.1840 -0.5834 -2.0414
 3263TIP3   OH231279   0.364   6.117  12.577 -0.3589  0.1350 -0.2883
 3263TIP3    H131280   0.336   6.146  12.490 -1.6691  1.5368  0.5469
 3263TIP3    H231281   0.413   6.037  12.561 -1.7101 -0.3848 -2.2106
 3264TIP3   OH231282   5.859   7.085   2.518  0.7138 -0.1403 -0.0790
 3264TIP3    H131283   5.897   7.045   2.596  0.9777  1.6524  0.7568
 3264TIP3    H231284   5.766   7.060   2.522 -0.0741  2.5075  2.7006
 3265TIP3   OH231285   3.119   4.940  11.628  0.1969 -0.4591  0.3531
 3265TIP3    H131286   3.130   4.859  11.677  2.0947 -1.8341 -2.0994
 3265TIP3    H231287   3.055   4.919  11.560  0.1220  0.3497  0.1656
 3266TIP3   OH231288   4.893   4.992  15.011  0.3962 -0.2298  0.2947
 3266TIP3    H131289   4.878   5.083  15.036 -1.3815 -0.6906  1.0519
 3266TIP3    H231290   4.929   4.997  14.923 -1.7859  1.1740 -0.6017
 3267TIP3   OH231291   6.765   2.298   1.599  0.0713 -0.6352 -1.0801
 3267TIP3    H131292   6.681   2.320   1.560 -0.7010 -1.0656  0.2752
 3267TIP3    H231293   6.797   2.224   1.546  0.1372  0.2027 -2.2611
 3268TIP3   OH231294   2.641   2.855  14.279 -0.3291  0.1370 -0.1712
 3268TIP3    H131295   2.672   2.769  14.307  0.1156  0.3386 -0.0323
 3268TIP3    H231296   2.593   2.888  14.355  0.5323  0.5135  0.2283
 3269TIP3   OH231297   5.208   2.322   0.335  0.2354 -0.0599  0.1931
 3269TIP3    H131298   5.143   2.272   0.284 -0.4868 -0.0226  1.0569
 3269TIP3    H231299   5.290   2.276   0.319  0.3723  0.8925 -2.3192
 3270TIP3   OH231300   0.690   0.813  15.750 -0.5769 -0.1867  0.2052
 3270TIP3    H131301   0.698   0.865  15.670  0.0984 -1.6438 -0.7169
 3270TIP3    H231302   0.780   0.801  15.780 -0.7358 -0.7394  0.4633
 3271TIP3   OH231303   6.632   2.463  10.900 -0.1622 -0.2487  0.4746
 3271TIP3    H131304   6.666   2.434  10.815  0.9608 -0.7411  1.0603
 3271TIP3    H231305   6.655   2.555  10.904 -1.5312  0.1516 -0.3565
 3272TIP3   OH231306   3.072   2.388  10.362  0.4415 -0.0285 -0.3662
 3272TIP3    H131307   3.126   2.335  10.421 -0.4614 -0.2089  0.3033
 3272TIP3    H231308   3.018   2.441  10.420 -0.8530 -0.6059 -1.0239
 3273TIP3   OH231309   6.271   6.873  13.498 -0.3933  0.5670 -0.3645
 3273TIP3    H131310   6.251   6.871  13.404 -1.6579 -1.0553 -0.1135
 3273TIP3    H231311   6.315   6.789  13.514  2.5555  2.0744 -0.0070
 3274TIP3   OH231312   6.849   5.211  14.352 -0.5999  0.5698 -0.5519
 3274TIP3    H131313   6.824   5.213  14.445 -0.0437  2.1874 -0.4012
 3274TIP3    H231314   6.920   5.146  14.348 -1.8094 -0.8389 -0.2052
 3275TIP3   OH231315   1.701   6.185   3.414  0.3338  0.7748 -0.1795
 3275TIP3    H131316   1.626   6.142   3.373  0.0772  0.4043  0.6620
 3275TIP3    H231317   1.682   6.278   3.408 -0.0313  0.6946 -0.2822
 3276TIP3   OH231318   6.784   4.518   3.640  0.3218  0.0874  0.1511
 3276TIP3    H131319   6.877   4.496   3.647  0.5452  0.7624 -0.5498
 3276TIP3    H231320   6.782   4.614   3.646 -0.5740 -0.0187  2.6250
 3277TIP3   OH231321   0.664   2.342  10.529  0.1112  0.3487  0.0621
 3277TIP3    H131322   0.669   2.250  10.503 -0.0292  0.3845 -0.0914
 3277TIP3    H231323   0.691   2.390  10.450  1.6438  0.3926  0.5749
 3278TIP3   OH231324   4.322   3.491   0.892 -0.1395  0.6184 -0.0373
 3278TIP3    H131325   4.265   3.512   0.819  0.7773 -0.8032 -1.2166
 3278TIP3    H231326   4.403   3.460   0.852 -0.3697 -2.3551  1.4982
 3279TIP3   OH231327   4.602   7.093   9.842 -0.0534 -0.1014  0.0233
 3279TIP3    H131328   4.552   7.171   9.820  1.3089  0.8653  0.2177
 3279TIP3    H231329   4.685   7.103   9.795  0.0703 -1.5277 -0.1002
 3280TIP3   OH231330   3.500   4.337   1.999 -0.1424 -0.5534  0.5260
 3280TIP3    H131331   3.543   4.339   2.085 -0.0609  2.0432  0.4945
 3280TIP3    H231332   3.437   4.409   2.001 -0.4837 -0.7278 -1.4282
 3281TIP3   OH231333   5.876   7.049  12.522 -0.0806  0.4547 -0.2018
 3281TIP3    H131334   5.781   7.050  12.535 -0.0558  0.9332 -0.0026
 3281TIP3    H231335   5.900   6.957  12.519 -0.4617  0.3275  0.4787
 3282TIP3   OH231336   2.577   3.532  13.926 -0.6581  0.7145  0.0718
 3282TIP3    H131337   2.553   3.617  13.888 -1.6635  0.2509 -0.3921
 3282TIP3    H231338   2.493   3.490  13.945 -0.1731  0.3717  1.5858
 3283TIP3   OH231339   1.578   1.527  10.147  0.0968 -0.0311 -0.3227
 3283TIP3    H131340   1.487   1.497  10.144  0.3311 -1.0503  1.2273
 3283TIP3    H231341   1.586   1.570  10.232  0.6763  1.4837 -1.1137
 3284TIP3   OH231342   4.363   4.039   3.040 -0.6276 -0.1709 -0.2216
 3284TIP3    H131343   4.314   3.959   3.061 -1.5714  0.6591  0.8555
 3284TIP3    H231344   4.421   4.052   3.116 -0.0830 -0.1234 -0.6409
 3285TIP3   OH231345   2.805   5.587  13.974 -0.3928 -0.6751 -0.0766
 3285TIP3    H131346   2.803   5.620  13.885 -2.4309 -2.5427 -0.8070
 3285TIP3    H231347   2.856   5.506  13.968 -2.4286 -2.0140 -0.0699
 3286TIP3   OH231348   0.087   1.261   1.532  0.0885 -0.0765 -0.4458
 3286TIP3    H131349   0.108   1.186   1.477 -1.4414 -1.0859  0.3031
 3286TIP3    H231350   0.139   1.247   1.611  0.7069  0.2907 -0.7802
 3287TIP3   OH231351   0.923   4.969  11.381 -0.0853  0.3543  0.4676
 3287TIP3    H131352   0.867   5.044  11.359 -0.2165  0.9227  2.5339
 3287TIP3    H231353   0.946   4.982  11.473 -0.5523 -2.4155  1.0683
 3288TIP3   OH231354   3.108   1.691  11.474  0.0305 -0.0561  0.0866
 3288TIP3    H131355   3.028   1.730  11.440  0.8027  1.1859 -0.3916
 3288TIP3    H231356   3.128   1.742  11.553  0.5938 -0.0338 -0.0615
 3289TIP3   OH231357   0.194   5.169  14.116 -0.2188 -0.0528 -0.0528
 3289TIP3    H131358   0.229   5.099  14.171 -1.4329  0.1864  1.0862
 3289TIP3    H231359   0.165   5.236  14.179 -2.8770 -0.3248 -0.8648
 3290TIP3   OH231360   2.997   6.088  11.957 -0.6328  0.0417  0.6583
 3290TIP3    H131361   3.075   6.034  11.954 -0.4493  0.2891  0.9260
 3290TIP3    H231362   2.998   6.137  11.875  0.9831  2.1034  1.8287
 3291TIP3   OH231363   1.423   1.069   2.255 -0.1437 -0.8923  0.7525
 3291TIP3    H131364   1.467   1.083   2.171 -2.0456  0.6932 -0.0450
 3291TIP3    H231365   1.469   1.127   2.316  1.2669 -2.0769  0.8813
 3292TIP3   OH231366   6.084   6.105   0.306  0.5077 -0.2544  0.3350
 3292TIP3    H131367   6.111   6.074   0.220  0.4634 -1.4572  0.7211
 3292TIP3    H231368   6.142   6.058   0.367  2.0009  2.1786  0.9002
 3293TIP3   OH231369   1.763   3.868  13.289  0.1493 -0.9243 -0.1237
 3293TIP3    H131370   1.817   3.791  13.272  0.9237 -0.4603  0.1948
 3293TIP3    H231371   1.678   3.832  13.317  0.3447 -1.6542 -0.4331
 3294TIP3   OH231372   4.698   4.381  15.197 -0.3905 -0.0613  0.3910
 3294TIP3    H131373   4.766   4.317  15.176 -0.2996 -0.3224  1.4531
 3294TIP3    H231374   4.670   4.415  15.111  0.9843 -0.0337 -0.0609
 3295TIP3   OH231375   5.646   4.944  12.350  0.2751 -0.2110  0.2239
 3295TIP3    H131376   5.566   4.900  12.377  0.7985 -0.0441  2.1891
 3295TIP3    H231377   5.698   4.952  12.430  1.4598  1.3537 -0.6350
 3296TIP3   OH231378   0.900   5.842  12.580  0.3010 -0.4602 -0.3755
 3296TIP3    H131379   0.832   5.827  12.646 -0.8221 -1.0309 -1.6229
 3296TIP3    H231380   0.948   5.759  12.576 -1.2269 -1.3193 -2.0179
 3297TIP3   OH231381   0.917   6.623  11.570  0.7632 -0.0590  0.1883
 3297TIP3    H131382   0.949   6.713  11.578  1.7550 -0.4280  0.5859
 3297TIP3    H231383   0.936   6.584  11.656  0.6895 -0.7502 -0.1043
 3298TIP3   OH231384   5.323   0.023  10.684 -0.1930  0.2595  0.1067
 3298TIP3    H131385   5.263  -0.042  10.648  0.3524  0.2373 -0.7962
 3298TIP3    H231386   5.315   0.098  10.625 -0.2241  0.7168  0.6758
 3299TIP3   OH231387   1.098   6.294  15.027 -0.1101  0.2001 -0.0645
 3299TIP3    H131388   1.095   6.305  14.932 -0.4069  0.4100 -0.0315
 3299TIP3    H231389   1.191   6.280  15.047  0.2917  2.4686 -0.1198
 3300TIP3   OH231390   1.711   1.706   3.285 -0.1588 -0.7131 -0.5937
 3300TIP3    H131391   1.716   1.696   3.380 -2.8030  0.9121 -0.1811
 3300TIP3    H231392   1.728   1.799   3.269 -0.3661 -0.8374 -1.6569
 3301TIP3   OH231393   0.897   0.050  10.715 -0.5295 -0.3572  0.0802
 3301TIP3    H131394   0.826  -0.013  10.725 -0.6617 -0.2295 -0.0374
 3301TIP3    H231395   0.950   0.015  10.643 -1.1338  0.1481 -0.6257
 3302TIP3   OH231396   4.623   4.493  14.963 -0.0217 -0.4644  0.2650
 3302TIP3    H131397   4.691   4.509  14.898 -0.0761 -1.1334  0.0426
 3302TIP3    H231398   4.544   4.529  14.924 -0.3722 -2.2013 -0.7184
 3303TIP3   OH231399   0.484   0.858  14.268 -0.2946 -0.4477 -0.6053
 3303TIP3    H131400   0.534   0.924  14.317 -1.5955  0.6450 -0.6863
 3303TIP3    H231401   0.516   0.865  14.178  0.4493 -0.8286 -0.3832
 3304TIP3   OH231402   5.415   2.016   9.953 -0.2961 -0.3622  0.0705
 3304TIP3    H131403   5.390   2.037   9.863  1.3664 -0.4141 -0.4422
 3304TIP3    H231404   5.509   1.999   9.948 -0.3374 -1.2454  1.6690
 3305TIP3   OH231405   0.400   4.567  11.246 -0.7203  0.3164  0.1600
 3305TIP3    H131406   0.385   4.661  11.247 -1.1102  0.3621 -2.2774
 3305TIP3    H231407   0.427   4.548  11.156  2.8266 -1.4435  1.4070
 3306TIP3   OH231408   3.825   4.714   9.985  0.5464 -0.3211  0.0309
 3306TIP3    H131409   3.813   4.631   9.940  0.7108 -1.5093  2.0829
 3306TIP3    H231410   3.873   4.692  10.064  0.2064  1.6594  0.8488
 3307TIP3   OH231411   6.596   6.857   1.864  0.1518  0.0196  0.6946
 3307TIP3    H131412   6.657   6.920   1.825  0.2963 -0.4969  0.0831
 3307TIP3    H231413   6.623   6.851   1.955  0.1219  0.8606  0.7701
 3308TIP3   OH231414   0.110   6.646  14.159  0.5433 -0.7867 -0.4054
 3308TIP3    H131415   0.153   6.561  14.153 -1.4098 -1.9709  1.3296
 3308TIP3    H231416   0.017   6.627  14.156 -0.1148  0.8316  3.5944
 3309TIP3   OH231417   0.487   1.877   1.164 -0.0073  0.0230 -0.3441
 3309TIP3    H131418   0.552   1.807   1.157  0.2070  0.2931 -1.2089
 3309TIP3    H231419   0.421   1.856   1.098  0.8844  1.4618 -1.7925
 3310TIP3   OH231420   6.948   2.871  12.124 -0.5884  0.1420 -0.5242
 3310TIP3    H131421   6.872   2.822  12.093  0.3151 -1.7526  0.0727
 3310TIP3    H231422   7.006   2.876  12.049 -0.6488  0.2366 -0.5645
 3311TIP3   OH231423   0.360   4.704  10.803 -0.2010  0.4539 -0.0786
 3311TIP3    H131424   0.376   4.686  10.710 -0.7038  0.5000 -0.1789
 3311TIP3    H231425   0.286   4.647  10.825 -0.2463  0.6346  0.2293
 3312TIP3   OH231426   1.106   0.149  13.037  0.1653  0.1747 -0.6867
 3312TIP3    H131427   1.133   0.131  12.947 -1.1635 -1.9239 -0.7207
 3312TIP3    H231428   1.163   0.094  13.091  0.5667  0.9864 -0.2556
 3313TIP3   OH231429   0.424   2.903  11.570 -0.2665 -0.3326  0.2459
 3313TIP3    H131430   0.437   2.843  11.497  0.9042  0.4741 -0.2311
 3313TIP3    H231431   0.372   2.853  11.633  0.4461 -1.7479 -0.2538
 3314TIP3   OH231432   5.554   0.312  11.791  0.5128 -0.0442 -0.8419
 3314TIP3    H131433   5.553   0.226  11.834 -1.8334  1.2154  1.8685
 3314TIP3    H231434   5.596   0.370  11.854 -1.3129  1.5040 -0.9893
 3315TIP3   OH231435   6.297   5.575  10.939  0.2260  0.0234 -0.5348
 3315TIP3    H131436   6.340   5.636  11.000 -1.5468  1.2254 -0.4333
 3315TIP3    H231437   6.215   5.553  10.982  0.8088 -2.4903 -0.5841
 3316TIP3   OH231438   4.669   1.326   2.230  0.3191 -0.4359 -0.3774
 3316TIP3    H131439   4.691   1.393   2.295  1.3100 -1.6220  0.5479
 3316TIP3    H231440   4.688   1.367   2.146 -0.8702  1.0921  0.0440
 3317TIP3   OH231441   2.988   3.504  11.415  0.6458  0.1686 -0.3945
 3317TIP3    H131442   2.918   3.459  11.368  0.1918 -0.0825  0.4947
 3317TIP3    H231443   2.964   3.597  11.410  0.1658  0.0716  0.0255
 3318TIP3   OH231444   6.071   3.191   0.465  0.5014  0.6682  0.1370
 3318TIP3    H131445   6.126   3.127   0.510 -1.0213 -0.5842  0.3474
 3318TIP3    H231446   5.981   3.160   0.481 -0.1946  1.4685 -1.8321
 3319TIP3   OH231447   2.958   5.486   1.819  0.2708  0.0489  0.3261
 3319TIP3    H131448   3.022   5.547   1.783  0.3300  0.1571  0.6081
 3319TIP3    H231449   2.975   5.403   1.774  0.4478  0.1397  0.2261
 3320TIP3   OH231450   6.540   0.052   4.803 -0.2451 -0.2190 -0.1011
 3320TIP3    H131451   6.449   0.083   4.803 -0.2480 -0.1271 -1.6783
 3320TIP3    H231452   6.537  -0.030   4.754  0.8595  1.0533 -2.4620
 3321TIP3   OH231453   4.152   6.435  11.121  0.6373 -0.5813 -0.1512
 3321TIP3    H131454   4.192   6.381  11.053  0.4816 -0.8097 -0.0677
 3321TIP3    H231455   4.108   6.505  11.074  0.9126 -0.4819 -0.2581
 3322TIP3   OH231456   2.922   1.247   0.756 -0.5002 -0.9018 -0.2727
 3322TIP3    H131457   2.847   1.199   0.721 -0.4389 -1.2040  0.0106
 3322TIP3    H231458   2.998   1.193   0.732 -0.4667 -1.1762  0.4375
 3323TIP3   OH231459   0.589   1.385  10.431 -0.4696  0.4098  0.4058
 3323TIP3    H131460   0.561   1.301  10.397  0.4997  0.0215  0.5336
 3323TIP3    H231461   0.532   1.401  10.507 -1.1710  0.2505 -0.0821
 3324TIP3   OH231462   6.204   2.406   2.995 -0.5394  0.1687  0.3551
 3324TIP3    H131463   6.140   2.414   3.065 -0.0431 -0.2133  0.8592
 3324TIP3    H231464   6.240   2.318   3.005 -0.2637  0.2136 -0.2032
 3325TIP3   OH231465   2.448   3.482  12.372 -0.1747 -0.0124  0.0592
 3325TIP3    H131466   2.434   3.539  12.448  0.1332 -0.4647  0.4590
 3325TIP3    H231467   2.399   3.525  12.301 -3.7483 -1.4768  1.3699
 3326TIP3   OH231468   2.457   6.561   5.018 -0.3005  0.4579 -0.1235
 3326TIP3    H131469   2.389   6.494   5.028 -0.5521  0.9778  2.0567
 3326TIP3    H231470   2.481   6.557   4.925 -2.1744 -0.8277 -0.6091
 3327TIP3   OH231471   1.420   4.413  15.018  0.0788 -0.1183 -0.1419
 3327TIP3    H131472   1.360   4.353  15.062  0.6555 -0.0412  0.7662
 3327TIP3    H231473   1.494   4.422  15.078  0.8393  0.0717 -1.0821
 3328TIP3   OH231474   4.078   2.222  11.176  0.0009  0.4931  0.0690
 3328TIP3    H131475   4.123   2.161  11.234 -1.5389 -1.3991 -0.6120
 3328TIP3    H231476   4.089   2.308  11.217 -1.1983 -0.7539  3.3145
 3329TIP3   OH231477   0.354   4.026   5.932  0.2944  0.1772 -0.1325
 3329TIP3    H131478   0.322   3.990   6.014 -2.2304 -0.3840 -1.2859
 3329TIP3    H231479   0.281   4.076   5.896  2.3446  3.2115 -0.5657
 3330TIP3   OH231480   0.901   6.149   5.309  0.0216 -0.2897  0.4080
 3330TIP3    H131481   0.820   6.106   5.337 -0.4358  0.2116 -0.1203
 3330TIP3    H231482   0.873   6.234   5.274  0.6370 -0.6130 -0.9372
 3331TIP3   OH231483   5.326   1.814  10.084 -0.1186  0.1505  0.2379
 3331TIP3    H131484   5.365   1.889  10.038 -0.1773  0.4848  0.7297
 3331TIP3    H231485   5.257   1.852  10.137  0.3589 -0.1463  1.0873
 3332TIP3   OH231486   6.368   2.627  15.175 -0.4505 -0.2877  0.3466
 3332TIP3    H131487   6.432   2.675  15.226 -0.0579 -0.6650  0.2167
 3332TIP3    H231488   6.285   2.670  15.194 -0.1667  0.1793  0.5462
 3333TIP3   OH231489   0.575   3.592  14.355 -0.2152  0.1914  0.2620
 3333TIP3    H131490   0.587   3.568  14.446  0.0843 -0.3746  0.0742
 3333TIP3    H231491   0.484   3.623  14.350  0.1083  1.3048  0.9798
 3334TIP3   OH231492   1.265   5.720  10.961 -0.4299  0.2843 -0.7101
 3334TIP3    H131493   1.357   5.706  10.984 -0.2203 -0.7338 -2.0786
 3334TIP3    H231494   1.235   5.635  10.930 -2.9209 -0.4892  3.0661
 3335TIP3   OH231495   0.812   4.781  13.487 -0.3290  0.7556 -0.0060
 3335TIP3    H131496   0.817   4.823  13.401  3.0650  0.8752  0.1199
 3335TIP3    H231497   0.821   4.687  13.468 -0.9910  0.6518  0.1621
 3336TIP3   OH231498   4.825   3.016  12.923  0.3865 -0.3320 -0.2604
 3336TIP3    H131499   4.744   3.006  12.874 -1.0168  0.2303  1.8380
 3336TIP3    H231500   4.819   2.954  12.995  2.2509 -0.9237 -0.5525
 3337TIP3   OH231501   3.887   4.771   4.874  0.4202 -0.3493  0.6234
 3337TIP3    H131502   3.937   4.834   4.925 -0.7213  1.2351 -0.1545
 3337TIP3    H231503   3.913   4.787   4.783  0.5281 -1.3921  0.4539
 3338TIP3   OH231504   4.405   1.187  10.988 -0.2936  0.9013  0.2082
 3338TIP3    H131505   4.490   1.160  11.022 -0.4301  0.3150  0.0906
 3338TIP3    H231506   4.369   1.108  10.948 -0.7334  1.2386 -0.0706
 3339TIP3   OH231507   0.520   2.388  12.808  0.0595  0.2489  0.6924
 3339TIP3    H131508   0.577   2.356  12.738 -0.4408 -1.9931  1.2358
 3339TIP3    H231509   0.566   2.364  12.888 -2.0951 -2.8407  1.1900
 3340TIP3   OH231510   1.480   1.324  10.580  0.2836 -0.3158 -0.1645
 3340TIP3    H131511   1.410   1.288  10.636 -1.0729  0.9701 -0.9559
 3340TIP3    H231512   1.501   1.253  10.519 -1.6451 -0.1693 -1.0708
 3341TIP3   OH231513   3.902   5.143  14.696 -0.4614 -0.0002 -0.2821
 3341TIP3    H131514   3.912   5.187  14.780 -0.1698 -2.0175  0.7931
 3341TIP3    H231515   3.881   5.053  14.718 -1.3809 -0.3663 -2.4019
 3342TIP3   OH231516   6.638   1.389   4.248 -0.7071  0.3873 -0.5182
 3342TIP3    H131517   6.683   1.318   4.202 -0.6692  0.3703 -0.4560
 3342TIP3    H231518   6.598   1.346   4.324  0.6601  0.6858  0.4294
 3343TIP3   OH231519   5.330   5.329   1.475 -0.4468  0.7898  0.0633
 3343TIP3    H131520   5.262   5.263   1.473 -0.9712  1.3032  0.4776
 3343TIP3    H231521   5.334   5.363   1.385  0.4885 -0.4446 -0.3843
 3344TIP3   OH231522   3.892   0.288  12.867  0.3018 -0.4234 -0.1248
 3344TIP3    H131523   3.910   0.238  12.946  1.7457  1.6154  0.9238
 3344TIP3    H231524   3.915   0.230  12.795  2.2144 -1.1729  1.0442
 3345TIP3   OH231525   1.147   4.500   0.450  0.0331  0.4247  0.0971
 3345TIP3    H131526   1.215   4.480   0.386  0.5749  0.9628  0.4852
 3345TIP3    H231527   1.135   4.595   0.442 -2.4698  0.0372 -1.7091
 3346TIP3   OH231528   0.800   1.702   4.306  0.2735  0.1101 -0.2750
 3346TIP3    H131529   0.837   1.665   4.226 -1.0181 -1.2916 -0.2803
 3346TIP3    H231530   0.722   1.750   4.277 -0.7054 -1.1359  0.1676
 3347TIP3   OH231531   1.759   3.481  15.331 -0.1643  0.2865  0.1484
 3347TIP3    H131532   1.789   3.420  15.264 -0.1350  1.4808 -0.9564
 3347TIP3    H231533   1.837   3.498  15.384 -0.0141 -0.1218  0.0605
 3348TIP3   OH231534   4.101   4.744   2.026  0.0913 -0.5846 -0.4505
 3348TIP3    H131535   4.106   4.828   1.980  0.1935 -1.0927 -1.3988
 3348TIP3    H231536   4.111   4.678   1.957  1.2320 -1.3735  0.4301
 3349TIP3   OH231537   0.777   0.093   4.353 -0.3960  0.1137 -0.4073
 3349TIP3    H131538   0.783   0.158   4.423  0.2621 -0.4682  0.0876
 3349TIP3    H231539   0.717   0.132   4.290  0.0965  1.2716 -0.1940
 3350TIP3   OH231540   4.426   6.198   5.711 -0.2027 -0.3091  0.4987
 3350TIP3    H131541   4.519   6.200   5.732 -0.5270  1.2388  2.1257
 3350TIP3    H231542   4.392   6.279   5.749 -2.1130 -0.5488 -0.5812
 3351TIP3   OH231543   4.623   6.419  14.814  0.4346 -0.4047 -0.1891
 3351TIP3    H131544   4.580   6.361  14.877  1.4917 -0.7590  0.2252
 3351TIP3    H231545   4.617   6.506  14.854 -2.2937  0.0641 -1.4000
 3352TIP3   OH231546   2.856   5.765   4.744 -0.3805  0.3963  0.1778
 3352TIP3    H131547   2.765   5.783   4.719 -0.3153  1.0859  0.4105
 3352TIP3    H231548   2.879   5.837   4.802  0.1434 -0.0748  0.5585
 3353TIP3   OH231549   0.868   2.714  12.771  0.1417 -0.5174 -0.0723
 3353TIP3    H131550   0.885   2.805  12.745 -0.1481 -0.6721 -0.8215
 3353TIP3    H231551   0.776   2.700  12.751 -0.3744 -0.3562  1.9678
 3354TIP3   OH231552   5.974   4.525  10.544  0.3092 -0.0338  0.5108
 3354TIP3    H131553   5.969   4.432  10.524  2.2827 -0.6042  2.2389
 3354TIP3    H231554   5.908   4.566  10.488  1.6729 -2.0174 -2.9096
 3355TIP3   OH231555   1.946   5.441  12.591  0.0394 -0.1058  0.3668
 3355TIP3    H131556   1.948   5.391  12.509  0.6214  3.1744 -1.8083
 3355TIP3    H231557   1.853   5.459  12.606  0.0606  1.6800 -1.2831
 3356TIP3   OH231558   5.471   3.950  11.792  0.0247  0.0642  0.0951
 3356TIP3    H131559   5.515   3.985  11.714 -0.9798 -0.4443 -0.7351
 3356TIP3    H231560   5.528   3.880  11.822  1.3669  1.4844  0.9582
 3357TIP3   OH231561   2.159   0.335  11.666 -0.0035  0.4867 -0.5621
 3357TIP3    H131562   2.200   0.408  11.620  1.6685 -0.3305 -0.4362
 3357TIP3    H231563   2.181   0.350  11.759  1.0683 -0.5730 -0.6213
 3358TIP3   OH231564   4.080   3.528  12.143  0.4252 -0.0276  0.2867
 3358TIP3    H131565   3.986   3.510  12.144  0.2822  0.7075  0.8841
 3358TIP3    H231566   4.115   3.482  12.219  0.2658  1.0622  1.0492
 3359TIP3   OH231567   3.044   3.241  12.971  0.3094  0.2237  0.2109
 3359TIP3    H131568   3.011   3.186  12.900  0.4138 -2.7377  2.2405
 3359TIP3    H231569   3.138   3.250  12.953 -0.0301  1.3929 -1.1117
 3360TIP3   OH231570   3.233   2.643  12.076  0.0642  0.3774  0.1151
 3360TIP3    H131571   3.209   2.732  12.049  0.8913  1.2545  2.0698
 3360TIP3    H231572   3.270   2.603  11.997  0.8508  2.2240 -0.5092
 3361TIP3   OH231573   5.196   2.413   9.609  0.3629 -0.7143 -0.0332
 3361TIP3    H131574   5.156   2.500   9.602  1.2253 -0.1453  1.7391
 3361TIP3    H231575   5.167   2.368   9.530 -2.5949  0.1372  0.4465
 3362TIP3   OH231576   6.044   0.243   9.672 -0.2543  0.3243 -0.4506
 3362TIP3    H131577   6.122   0.213   9.718 -1.5103 -1.4113  0.6379
 3362TIP3    H231578   5.984   0.270   9.742 -1.4303 -0.4222 -1.1402
 3363TIP3   OH231579   4.211   4.570  14.619 -1.1732  0.1292 -0.2644
 3363TIP3    H131580   4.183   4.562  14.710  0.4611 -2.1385  0.1337
 3363TIP3    H231581   4.170   4.495  14.575 -0.2783  0.0068 -0.9096
 3364TIP3   OH231582   0.030   6.302  11.145 -0.5622  0.0655 -0.6429
 3364TIP3    H131583   0.001   6.219  11.108 -0.2501 -0.6145  0.5916
 3364TIP3    H231584   0.088   6.278  11.217 -1.0510  1.3280  0.2259
 3365TIP3   OH231585   0.873   4.113   0.692 -0.1772  0.3398  0.0551
 3365TIP3    H131586   0.902   4.053   0.624  0.0489 -0.3897  0.7732
 3365TIP3    H231587   0.938   4.183   0.693 -1.2483  1.4536 -1.8247
 3366TIP3   OH231588   0.918   0.299  13.734  0.2759  0.1684  0.2519
 3366TIP3    H131589   0.965   0.368  13.687  0.1402  1.1654  1.5443
 3366TIP3    H231590   0.854   0.267  13.670  1.0560  0.4730 -0.7229
 3367TIP3   OH231591   0.963   3.019  14.365 -0.1211 -0.0672  0.2815
 3367TIP3    H131592   0.910   2.995  14.289 -0.1320  1.6851 -0.3035
 3367TIP3    H231593   0.940   2.954  14.432 -2.9994  0.5982  0.0427
 3368TIP3   OH231594   6.932   6.889  10.401  0.1970 -0.1905  0.5845
 3368TIP3    H131595   6.854   6.864  10.451 -1.0028  1.2690 -0.4448
 3368TIP3    H231596   6.956   6.975  10.437  0.1552  0.2381 -0.3917
 3369TIP3   OH231597   4.042   6.546  10.461 -0.4347 -0.0323  0.0437
 3369TIP3    H131598   3.967   6.494  10.433 -1.1939  0.7217  0.6493
 3369TIP3    H231599   4.093   6.560  10.381 -1.9224  1.0460 -0.7548
 3370TIP3   OH231600   2.932   1.487  12.410  0.3650 -0.4001 -0.3383
 3370TIP3    H131601   2.962   1.539  12.484 -0.2153  1.3200 -1.2527
 3370TIP3    H231602   2.857   1.437  12.444 -0.1547  0.6814  0.1467
 3371TIP3   OH231603   6.517   6.168   3.682 -0.2655  0.0917  0.2507
 3371TIP3    H131604   6.535   6.240   3.622 -1.6772 -0.7241 -1.2573
 3371TIP3    H231605   6.423   6.173   3.698 -0.0800 -0.3241  1.6176
 3372TIP3   OH231606   4.209   4.254  12.803 -0.1573  0.6020 -0.1581
 3372TIP3    H131607   4.161   4.185  12.849  0.3414  0.1691 -0.2745
 3372TIP3    H231608   4.141   4.313  12.771 -0.6174  0.0047 -0.3129
 3373TIP3   OH231609   4.257   3.647  11.147  0.1241 -0.5426  0.3804
 3373TIP3    H131610   4.225   3.559  11.162 -1.0528 -0.4360 -1.2894
 3373TIP3    H231611   4.257   3.657  11.052  0.0564  1.3062  0.5377
 3374TIP3   OH231612   5.548   0.219   2.690  0.0437  0.3495 -0.2630
 3374TIP3    H131613   5.583   0.212   2.779  0.2539 -0.1588 -0.3789
 3374TIP3    H231614   5.533   0.312   2.677  1.9573  0.6868 -0.4158
 3375TIP3   OH231615   5.574   4.938   4.583  0.1502 -0.0058 -0.3464
 3375TIP3    H131616   5.662   4.927   4.547  0.2825 -0.1824  0.0318
 3375TIP3    H231617   5.516   4.907   4.514  0.2777  2.0167 -1.4454
 3376TIP3   OH231618   1.225   1.972  13.053 -0.5868 -0.0561 -0.5174
 3376TIP3    H131619   1.241   1.984  13.147 -0.0780 -0.3001 -0.5700
 3376TIP3    H231620   1.227   2.061  13.017 -2.3419  0.1926 -0.0648
 3377TIP3   OH231621   1.874   6.348  13.434  0.0718  0.0843  0.3223
 3377TIP3    H131622   1.926   6.268  13.423 -0.0577 -0.0626  0.7603
 3377TIP3    H231623   1.883   6.369  13.527 -1.7694 -0.7129  0.7332
 3378TIP3   OH231624   3.772   1.978   3.860  0.0806 -0.5606 -0.3473
 3378TIP3    H131625   3.720   1.952   3.936 -0.2284  0.5632 -0.1608
 3378TIP3    H231626   3.862   1.980   3.892 -0.0796  0.1774  0.0664
 3379TIP3   OH231627   4.448   3.121  12.091  0.0068 -0.0324  0.5283
 3379TIP3    H131628   4.432   3.189  12.156 -1.4223  0.0854  0.0933
 3379TIP3    H231629   4.486   3.168  12.017  0.6579 -0.0000  0.8776
 3380TIP3   OH231630   4.976   2.828  15.594  0.1393 -0.7749 -0.1373
 3380TIP3    H131631   4.892   2.787  15.610  0.0845 -1.6707 -2.3388
 3380TIP3    H231632   5.039   2.778  15.645 -0.3844 -1.4955 -0.1993
 3381TIP3   OH231633   6.988   0.118  12.526  0.3127  0.1509  0.0814
 3381TIP3    H131634   7.014   0.068  12.604 -0.5127  0.2046  0.3980
 3381TIP3    H231635   6.892   0.120  12.530  0.1753 -1.0512 -1.6830
 3382TIP3   OH231636   4.351   5.510  15.170 -0.0945 -0.0842  0.0598
 3382TIP3    H131637   4.297   5.438  15.204  0.7337 -1.0437 -0.6077
 3382TIP3    H231638   4.419   5.522  15.236 -0.0691 -0.1152  0.0400
 3383TIP3   OH231639   2.989   6.512   0.660 -0.1527 -0.0088 -0.4980
 3383TIP3    H131640   3.007   6.421   0.680 -1.1287 -0.3240 -0.9589
 3383TIP3    H231641   2.907   6.531   0.705 -0.7791  0.1595 -1.6601
 3384TIP3   OH231642   4.814   6.277   4.820 -0.4586 -0.0250 -0.1492
 3384TIP3    H131643   4.805   6.316   4.734 -0.7680  0.3719  0.0581
 3384TIP3    H231644   4.727   6.282   4.858 -0.7045 -1.6201 -0.4010
 3385TIP3   OH231645   6.657   6.417  10.780 -0.3111  0.1815 -0.2253
 3385TIP3    H131646   6.717   6.492  10.785 -0.2243  0.1258 -0.4036
 3385TIP3    H231647   6.713   6.340  10.790 -0.5122  0.1624  0.7769
 3386TIP3   OH231648   4.374   5.767  12.981 -0.2231 -0.2612 -0.0019
 3386TIP3    H131649   4.440   5.812  13.035 -0.1789  0.5447 -0.7188
 3386TIP3    H231650   4.394   5.793  12.892 -0.8242 -0.9211 -0.3364
 3387TIP3   OH231651   3.411   2.235  10.236 -0.1804  0.1973  0.3775
 3387TIP3    H131652   3.494   2.252  10.191  0.0621 -0.4672  0.5635
 3387TIP3    H231653   3.421   2.277  10.321  1.1857 -2.3985  1.6137
 3388TIP3   OH231654   1.512   1.801   3.836 -0.3751 -0.1241  0.8904
 3388TIP3    H131655   1.498   1.894   3.854 -1.6052  0.3652 -2.0814
 3388TIP3    H231656   1.442   1.757   3.884 -0.9898  0.6742  0.7443
 3389TIP3   OH231657   6.956   5.662  10.198  0.7002  0.3581 -0.7355
 3389TIP3    H131658   6.959   5.575  10.156 -1.0868  0.2263 -0.6382
 3389TIP3    H231659   6.871   5.665  10.241  0.6064  2.2944 -0.9957
 3390TIP3   OH231660   3.953   1.298  10.714 -0.4998 -0.2290  0.0995
 3390TIP3    H131661   3.974   1.205  10.708  0.4558 -0.1191  1.2077
 3390TIP3    H231662   4.035   1.339  10.744 -1.2978  0.7621  1.0229
 3391TIP3   OH231663   7.089   6.994  13.407  0.3560 -0.1415 -0.6297
 3391TIP3    H131664   7.101   7.083  13.441  0.6566 -0.7187  0.8854
 3391TIP3    H231665   7.150   6.940  13.459 -2.1259 -1.7345  0.8575
 3392TIP3   OH231666   0.814   6.296   2.911  0.0439 -0.1260  0.3933
 3392TIP3    H131667   0.771   6.377   2.938 -1.2519 -0.6411 -0.0000
 3392TIP3    H231668   0.771   6.228   2.964  0.1708 -0.6951 -0.2168
 3393TIP3   OH231669   6.801   5.868  12.573 -0.0199  0.4893  0.4527
 3393TIP3    H131670   6.876   5.878  12.632  1.7234  1.5945 -1.7939
 3393TIP3    H231671   6.795   5.953  12.528 -0.3920 -0.7026 -1.8870
 3394TIP3   OH231672   0.371   3.198   4.533 -0.0671  0.3145 -0.3951
 3394TIP3    H131673   0.384   3.291   4.512 -0.7331  0.5799  0.2951
 3394TIP3    H231674   0.412   3.151   4.461  3.9307  1.0370  1.1128
 3395TIP3   OH231675   0.209   2.684  14.220  0.6421 -0.2863  0.4466
 3395TIP3    H131676   0.286   2.637  14.250  0.3329 -0.4301  1.0224
 3395TIP3    H231677   0.146   2.616  14.198  0.6129 -0.1643  0.1408
 3396TIP3   OH231678   4.633   3.830   0.219  0.3223  0.5694 -0.3526
 3396TIP3    H131679   4.633   3.738   0.192 -1.3943  0.8646 -1.5246
 3396TIP3    H231680   4.658   3.828   0.312  0.0682 -1.1114 -0.2868
 3397TIP3   OH231681   4.447   5.636   1.760 -0.2857  0.1221  0.6880
 3397TIP3    H131682   4.352   5.628   1.766 -0.2498 -0.2734  0.7869
 3397TIP3    H231683   4.480   5.556   1.801  0.0600 -0.8340 -1.3450
 3398TIP3   OH231684   2.763   2.432  14.346  0.4397 -0.0334  0.1649
 3398TIP3    H131685   2.760   2.361  14.410  2.2285 -0.6385 -0.3784
 3398TIP3    H231686   2.671   2.451  14.328 -0.1008 -0.7336  1.9190
 3399TIP3   OH231687   4.531   2.403  10.788 -0.1138  0.1767 -0.4500
 3399TIP3    H131688   4.471   2.399  10.863  0.1825 -0.1405 -0.2285
 3399TIP3    H231689   4.585   2.480  10.806  1.4583 -1.1305  0.8277
 3400TIP3   OH231690   0.037   3.364  14.668  0.9722  0.0496  0.3035
 3400TIP3    H131691   0.060   3.292  14.609  0.1183  0.8521 -1.0560
 3400TIP3    H231692   0.084   3.344  14.749  3.6604 -0.1836 -1.1790
 3401TIP3   OH231693   3.168   6.454  10.996 -0.0161  0.2748  0.1990
 3401TIP3    H131694   3.239   6.483  11.053  2.0392 -1.3750 -1.3552
 3401TIP3    H231695   3.169   6.516  10.923  1.1154 -0.7827 -0.7219
 3402TIP3   OH231696   6.713   1.995   5.286 -0.5186 -0.2175  0.5240
 3402TIP3    H131697   6.645   1.998   5.219 -0.6927 -0.0768  0.7075
 3402TIP3    H231698   6.741   2.086   5.296  1.6158 -0.5344 -1.5163
 3403TIP3   OH231699   5.837   5.003   9.859 -0.1789  0.3612  0.2563
 3403TIP3    H131700   5.750   5.043   9.857  0.0515  0.9496 -2.8878
 3403TIP3    H231701   5.898   5.075   9.844  0.5014 -0.5180 -1.6068
 3404TIP3   OH231702   1.326   5.380  12.548  0.1837  0.2232  0.5130
 3404TIP3    H131703   1.403   5.338  12.510  0.7456  0.2507  1.5763
 3404TIP3    H231704   1.254   5.355  12.490  0.5886 -1.7534  0.7875
 3405TIP3   OH231705   2.830   3.110  11.319  0.0367 -0.2307 -0.2894
 3405TIP3    H131706   2.757   3.153  11.363 -1.4653 -0.1530 -2.7071
 3405TIP3    H231707   2.838   3.025  11.363 -1.7252 -0.3575 -0.1459
 3406TIP3   OH231708   3.754   4.816  10.887 -0.1109  0.3007  0.3076
 3406TIP3    H131709   3.755   4.727  10.921 -0.1624  0.3022  0.3151
 3406TIP3    H231710   3.770   4.807  10.793  1.1848  0.3839  0.5029
 3407TIP3   OH231711   5.814   6.215  13.471 -0.4604  0.0767 -0.9773
 3407TIP3    H131712   5.865   6.230  13.391 -0.3742  0.0265 -0.9323
 3407TIP3    H231713   5.746   6.283  13.469  0.8433  1.4737 -0.0025
 3408TIP3   OH231714   5.437   0.074  15.628  0.5982 -0.2305 -0.4670
 3408TIP3    H131715   5.347   0.104  15.637 -0.2030 -3.0240  2.8050
 3408TIP3    H231716   5.485   0.149  15.593 -2.7356  1.7123 -1.2173
 3409TIP3   OH231717   0.491   6.423   0.253  0.0428  0.2054  0.6638
 3409TIP3    H131718   0.487   6.469   0.170  0.7754  0.7424  0.9195
 3409TIP3    H231719   0.399   6.401   0.272 -0.2492  1.0232  0.2429
 3410TIP3   OH231720   1.667   0.619  11.775  0.0462 -0.1125 -0.5065
 3410TIP3    H131721   1.738   0.575  11.727 -0.8136 -1.0491 -0.9697
 3410TIP3    H231722   1.711   0.683  11.830  1.1124  0.8059 -2.3360
 3411TIP3   OH231723   6.984   2.135   3.610 -0.0398 -0.1320 -0.4148
 3411TIP3    H131724   6.966   2.188   3.688 -0.3608  0.1344 -0.6672
 3411TIP3    H231725   7.076   2.110   3.619  0.0854  0.3722 -0.2359
 3412TIP3   OH231726   1.650   6.780   3.865  0.2820 -0.2437  0.1791
 3412TIP3    H131727   1.586   6.767   3.795 -0.2962 -0.6824  0.7737
 3412TIP3    H231728   1.693   6.862   3.843 -1.3337  0.7120  0.3985
 3413TIP3   OH231729   6.492   0.717  12.540  0.0569  0.3041 -0.0060
 3413TIP3    H131730   6.414   0.662  12.535  0.0035  0.5078 -2.7262
 3413TIP3    H231731   6.562   0.657  12.568 -0.5094 -0.5390 -0.3603
 3414TIP3   OH231732   2.557   2.912  12.150  0.2635  0.3109 -0.6817
 3414TIP3    H131733   2.499   2.931  12.076  1.5141 -0.0415 -1.7761
 3414TIP3    H231734   2.533   2.977  12.216  0.1920  1.6591 -1.9869
 3415TIP3   OH231735   6.024   4.962   3.758  0.2632 -0.1494 -0.2638
 3415TIP3    H131736   6.045   4.869   3.754 -0.0587 -0.3441  1.7390
 3415TIP3    H231737   6.002   4.978   3.850 -0.8818  1.6518 -0.8058
 3416TIP3   OH231738   5.036   0.165   1.658  0.0475  0.1177  0.2395
 3416TIP3    H131739   5.108   0.229   1.664  0.1547  0.1722 -1.1647
 3416TIP3    H231740   4.957   0.219   1.655 -0.0127  0.0869  1.0390
 3417TIP3   OH231741   4.374   4.879  15.107 -0.3653  0.2170 -0.1565
 3417TIP3    H131742   4.320   4.903  15.032 -1.1712 -1.5926 -0.2135
 3417TIP3    H231743   4.343   4.936  15.178 -0.0803  1.4534 -0.9985
 3418TIP3   OH231744   2.016   6.425  15.632 -0.1594 -0.0434 -0.3540
 3418TIP3    H131745   2.109   6.418  15.610  0.0866 -0.7421  0.8037
 3418TIP3    H231746   2.013   6.488  15.704 -0.8574  1.6375 -1.7798
 3419TIP3   OH231747   6.410   4.644  11.319  0.0601  0.5139 -0.0712
 3419TIP3    H131748   6.460   4.681  11.391  1.2821  1.2352 -1.2485
 3419TIP3    H231749   6.442   4.554  11.311 -2.2683 -0.6330  2.2057
 3420TIP3   OH231750   5.082   4.245  12.284 -0.0138 -0.2375 -0.4050
 3420TIP3    H131751   5.154   4.183  12.298  0.4641  0.1851 -0.9480
 3420TIP3    H231752   5.093   4.276  12.194 -1.2479 -0.6348 -0.7195
 3421TIP3   OH231753   5.188   6.014  13.749 -0.1053 -0.1104 -0.1756
 3421TIP3    H131754   5.283   6.010  13.740 -0.1525  0.5681 -1.3336
 3421TIP3    H231755   5.156   6.017  13.658 -1.3208 -1.8122  0.1613
 3422TIP3   OH231756   3.682   2.147   5.398 -0.0143 -0.4316 -0.0642
 3422TIP3    H131757   3.667   2.188   5.483  0.0364 -0.8497  0.1508
 3422TIP3    H231758   3.755   2.086   5.414 -0.2339 -0.7657 -0.3218
 3423TIP3   OH231759   0.847   6.877   0.886  0.2469  0.1302 -0.2373
 3423TIP3    H131760   0.752   6.869   0.880  0.2289 -0.2479  0.3890
 3423TIP3    H231761   0.869   6.953   0.832 -0.6032  1.3134  1.0048
 3424TIP3   OH231762   4.628   0.344  14.606 -0.1113 -0.1189  0.2436
 3424TIP3    H131763   4.670   0.259  14.589  2.1806  1.0574 -0.4083
 3424TIP3    H231764   4.617   0.382  14.519 -0.6870  0.4666  0.5677
 3425TIP3   OH231765   3.698   3.238  11.942 -1.0196  0.4057  0.0358
 3425TIP3    H131766   3.658   3.152  11.945  1.9135 -1.3263 -3.3074
 3425TIP3    H231767   3.722   3.250  11.850  1.9644  3.1698  0.9952
 3426TIP3   OH231768   0.343   3.431  11.442 -0.7889  0.0748 -0.3514
 3426TIP3    H131769   0.399   3.392  11.375  0.0121 -2.4087  1.6010
 3426TIP3    H231770   0.404   3.472  11.503 -1.1862 -0.9697  0.7837
 3427TIP3   OH231771   2.764   6.953  15.065  0.1042  0.1686 -0.1961
 3427TIP3    H131772   2.766   6.872  15.014 -0.1531 -1.6930  2.5052
 3427TIP3    H231773   2.671   6.972  15.077  0.1328 -0.0668  0.4709
 3428TIP3   OH231774   1.016   6.709   1.025  0.5654 -0.1674  0.1274
 3428TIP3    H131775   0.959   6.781   0.998  0.9302  0.0834  0.0168
 3428TIP3    H231776   1.015   6.649   0.951  0.4950 -0.1290  0.0973
 3429TIP3   OH231777   4.044   3.895  11.687  0.4469 -0.1214  0.1851
 3429TIP3    H131778   4.049   3.800  11.699 -0.7259 -0.2856 -0.4993
 3429TIP3    H231779   4.129   3.919  11.649 -0.0951 -1.2694 -1.8980
 3430TIP3   OH231780   1.669   0.525  10.506  0.8983  0.0772 -0.6066
 3430TIP3    H131781   1.637   0.541  10.417 -1.0274  0.1708  0.0496
 3430TIP3    H231782   1.616   0.583  10.561 -0.0262 -2.0668  0.9038
 3431TIP3   OH231783   6.527   0.407  11.267  0.3076 -0.4391 -0.0266
 3431TIP3    H131784   6.495   0.321  11.295 -0.6082  0.0433  0.4705
 3431TIP3    H231785   6.596   0.428  11.330 -0.3975 -0.2291  0.6973
 3432TIP3   OH231786   3.198   3.975  11.801 -0.2832  0.4243  0.1219
 3432TIP3    H131787   3.218   4.021  11.719 -1.7231  0.0768 -0.4441
 3432TIP3    H231788   3.109   4.001  11.821 -0.5281 -0.8204  0.6878
 3433TIP3   OH231789   3.535   1.682   0.424 -0.0980  0.0876  0.4239
 3433TIP3    H131790   3.522   1.763   0.375  0.2477  0.1918  0.5055
 3433TIP3    H231791   3.621   1.650   0.396  0.3887  0.4714  1.4222
 3434TIP3   OH231792   3.464   5.473  10.788  0.2946 -0.3434 -0.1827
 3434TIP3    H131793   3.375   5.480  10.820  0.6540  0.3334  0.7167
 3434TIP3    H231794   3.518   5.475  10.867  1.0431 -2.4743 -0.5824
 3435TIP3   OH231795   0.579   1.824  10.435 -0.1382 -0.2061 -0.4744
 3435TIP3    H131796   0.489   1.808  10.406 -0.1743 -1.3308  0.2219
 3435TIP3    H231797   0.619   1.738  10.437  0.9585  0.2816 -0.7310
 3436TIP3   OH231798   3.713   2.483  13.506 -0.2424  0.0345  0.4923
 3436TIP3    H131799   3.770   2.440  13.570  1.8264  0.8963 -0.6724
 3436TIP3    H231800   3.772   2.536  13.454 -1.8851 -0.4083 -1.9807
 3437TIP3   OH231801   3.079   5.811  13.526 -0.0547  0.4379  0.4792
 3437TIP3    H131802   3.140   5.825  13.453  1.7148  1.5032  2.0553
 3437TIP3    H231803   3.135   5.809  13.603 -1.9985  0.8722  1.9770
 3438TIP3   OH231804   3.310   5.390  14.411 -0.0592 -0.4100 -0.2904
 3438TIP3    H131805   3.403   5.368  14.406 -0.0879 -0.4731 -0.5319
 3438TIP3    H231806   3.267   5.326  14.354 -0.2197 -0.1928 -0.4120
 3439TIP3   OH231807   5.498   2.721  11.719 -0.1088 -0.1566  0.1248
 3439TIP3    H131808   5.592   2.726  11.737 -0.1597 -0.5759  0.5386
 3439TIP3    H231809   5.476   2.629  11.732 -0.5835 -0.0553  0.0664
 3440TIP3   OH231810   2.577   6.034  10.342  0.0942  0.4732 -0.1172
 3440TIP3    H131811   2.580   6.064  10.251  3.0868  2.4581  0.5022
 3440TIP3    H231812   2.497   5.980  10.347 -0.8307  1.2891 -3.5545
 3441TIP3   OH231813   0.578   3.419  10.850  0.0450 -0.1827  0.1885
 3441TIP3    H131814   0.522   3.402  10.774  0.9752  0.3545 -0.6357
 3441TIP3    H231815   0.520   3.462  10.913 -1.1033 -1.9580  0.3945
 3442TIP3   OH231816   2.397   1.083   2.484  0.3529  0.0405 -0.2365
 3442TIP3    H131817   2.332   1.099   2.415 -0.1998  0.5719  0.3969
 3442TIP3    H231818   2.360   1.125   2.562  1.8724  1.1185 -0.0748
 3443TIP3   OH231819   1.900   0.536  14.442  0.1205 -0.2366 -0.3212
 3443TIP3    H131820   1.971   0.592  14.410 -0.3304  0.7772  0.4084
 3443TIP3    H231821   1.828   0.596  14.458 -0.6017 -1.1344 -0.1547
 3444TIP3   OH231822   6.279   6.375  12.364  0.1103 -0.3263 -0.6754
 3444TIP3    H131823   6.329   6.454  12.385 -0.0294 -0.5415  0.5031
 3444TIP3    H231824   6.344   6.304  12.366 -0.1995 -0.5910  0.7486
 3445TIP3   OH231825   0.009   6.148   2.151  0.0903 -0.8127  0.3121
 3445TIP3    H131826  -0.031   6.140   2.238 -0.6608 -1.6609 -0.0951
 3445TIP3    H231827   0.102   6.164   2.169  0.2000 -2.3792  1.2795
 3446TIP3   OH231828   0.085   0.338  13.840  0.1528  0.1786 -0.7759
 3446TIP3    H131829   0.147   0.297  13.900  0.9005 -0.6153 -2.0302
 3446TIP3    H231830   0.124   0.324  13.753 -1.6595 -0.1128 -1.5757
 3447TIP3   OH231831   1.672   2.532  14.670  0.4553  0.1920  0.1054
 3447TIP3    H131832   1.609   2.553  14.601  0.2615  0.4000  0.3452
 3447TIP3    H231833   1.624   2.475  14.730  0.9348 -0.8279 -0.4643
 3448TIP3   OH231834   0.182   4.541   9.972 -0.2071  0.3541 -0.2744
 3448TIP3    H131835   0.224   4.624   9.948 -1.7400  0.9159 -1.1730
 3448TIP3    H231836   0.141   4.511   9.891 -1.2594 -0.3307  0.4897
 3449TIP3   OH231837   0.134   7.094   4.113 -0.0039  0.3181 -0.2242
 3449TIP3    H131838   0.049   7.135   4.127 -0.1144  0.0918 -0.2350
 3449TIP3    H231839   0.163   7.126   4.028 -0.1260  0.3088 -0.2691
 3450TIP3   OH231840   1.806   2.084  15.365 -0.0305 -0.4710  0.0069
 3450TIP3    H131841   1.816   2.068  15.459  0.0791  1.4464  0.3802
 3450TIP3    H231842   1.855   2.013  15.323  1.1888 -0.5419  1.4451
 3451TIP3   OH231843   0.252   5.546   0.994  0.4799  0.1221  0.5929
 3451TIP3    H131844   0.179   5.607   1.005  0.6641  0.2129  1.3683
 3451TIP3    H231845   0.328   5.593   1.030  1.2935  0.7095 -1.7149
 3452TIP3   OH231846   5.647   6.838  12.815 -0.3078 -0.0831  0.2066
 3452TIP3    H131847   5.599   6.902  12.868 -0.8292 -0.4348  0.1659
 3452TIP3    H231848   5.586   6.765  12.805  0.2133 -0.5063  0.0932
 3453TIP3   OH231849   4.457   4.730  12.834 -0.1505  0.3495  0.5477
 3453TIP3    H131850   4.445   4.677  12.913  0.2847 -0.7549 -0.1064
 3453TIP3    H231851   4.383   4.707  12.778 -0.8354  1.6340  0.8702
 3454TIP3   OH231852   3.523   3.449  14.822  0.1307  0.3766 -0.0568
 3454TIP3    H131853   3.503   3.396  14.899 -1.9990  0.4080 -0.5305
 3454TIP3    H231854   3.533   3.386  14.751  1.0866  0.4178  0.0227
 3455TIP3   OH231855   2.706   5.389   3.905 -0.5022  0.5387 -0.4631
 3455TIP3    H131856   2.727   5.365   3.814  1.7449 -1.2417  0.4422
 3455TIP3    H231857   2.648   5.319   3.935  0.8458 -0.3370  0.2066
 3456TIP3   OH231858   0.828   4.043   4.063  0.2006  0.5800  0.4795
 3456TIP3    H131859   0.780   3.960   4.072 -0.0777  0.9142  2.6942
 3456TIP3    H231860   0.898   4.024   4.000 -0.4486 -1.0454  0.1946
 3457TIP3   OH231861   2.824   4.860   4.345  0.3374 -0.1583 -0.0798
 3457TIP3    H131862   2.801   4.950   4.369 -2.2085 -0.7395 -0.0371
 3457TIP3    H231863   2.745   4.825   4.304  0.8075 -2.7656  1.0420
 3458TIP3   OH231864   4.642   0.522  15.334 -0.2148 -0.1949  0.2943
 3458TIP3    H131865   4.690   0.543  15.254  0.0229  2.5265  1.0446
 3458TIP3    H231866   4.554   0.557  15.318 -0.0305  0.8113  1.3487
 3459TIP3   OH231867   3.984   3.020   2.414 -0.1231 -0.1329  0.7323
 3459TIP3    H131868   4.060   3.043   2.361 -1.1889  1.8588 -0.0756
 3459TIP3    H231869   4.020   2.987   2.496  1.5913  0.2128  0.1579
 3460TIP3   OH231870   5.669   5.339  14.339  0.1444 -0.8817 -0.0301
 3460TIP3    H131871   5.682   5.299  14.425  0.5466 -0.1281  0.2760
 3460TIP3    H231872   5.661   5.433  14.358  0.2973 -0.7049 -0.8217
 3461TIP3   OH231873   1.393   3.431   0.535  0.1518  0.7049  0.2665
 3461TIP3    H131874   1.337   3.492   0.583 -0.6252 -2.0191  3.2012
 3461TIP3    H231875   1.482   3.455   0.561  0.0655  2.0909 -0.6274
 3462TIP3   OH231876   1.842   4.160  13.601 -0.2116 -0.0021 -0.1824
 3462TIP3    H131877   1.887   4.091  13.650  0.8407 -0.9060 -2.3091
 3462TIP3    H231878   1.860   4.240  13.651  2.0095 -0.6660  0.2084
 3463TIP3   OH231879   7.018   2.776   2.112  0.0193 -0.1701  0.1916
 3463TIP3    H131880   6.949   2.764   2.048 -0.4227  1.6113  0.2874
 3463TIP3    H231881   6.980   2.833   2.178  1.5273  0.7651  0.2960
 3464TIP3   OH231882   1.475   5.768  13.188 -0.6105  0.2553 -0.2254
 3464TIP3    H131883   1.428   5.846  13.156 -3.3252 -0.8716  0.7149
 3464TIP3    H231884   1.464   5.703  13.119 -1.9480 -0.5240  0.6637
 3465TIP3   OH231885   6.870   6.911   0.448 -0.1686  0.0934  0.0775
 3465TIP3    H131886   6.818   6.988   0.424 -0.1755  0.3342  0.8248
 3465TIP3    H231887   6.829   6.879   0.529 -0.5571 -1.0799 -0.5546
 3466TIP3   OH231888   2.523   4.665  15.736 -0.1214  0.4729  0.0655
 3466TIP3    H131889   2.515   4.719  15.658  1.2402  0.4778 -0.0978
 3466TIP3    H231890   2.433   4.651  15.765 -0.5383  2.2210 -0.2898
 3467TIP3   OH231891   3.339   2.508  12.587 -0.2298  0.6520 -0.5063
 3467TIP3    H131892   3.278   2.484  12.517 -0.3985  2.0798 -0.8857
 3467TIP3    H231893   3.386   2.584  12.552  2.0136 -0.5738 -0.3626
 3468TIP3   OH231894   3.240   5.042  12.652 -0.5010 -0.2427  0.1750
 3468TIP3    H131895   3.331   5.039  12.621 -0.6849  1.8997 -0.7807
 3468TIP3    H231896   3.229   5.131  12.685 -2.4801 -0.1627 -0.5303
 3469TIP3   OH231897   1.182   2.936  12.328  0.1596 -0.0517 -0.2173
 3469TIP3    H131898   1.254   2.875  12.313 -0.4495 -0.8357 -0.0685
 3469TIP3    H231899   1.169   2.935  12.423 -1.3111 -1.4670 -0.3830
 3470TIP3   OH231900   3.111   6.241   2.995  0.1311  0.3081  0.5483
 3470TIP3    H131901   3.156   6.326   2.998  0.9214 -0.0834  0.0555
 3470TIP3    H231902   3.152   6.190   3.065  1.0758 -0.3352 -0.4393
 3471TIP3   OH231903   2.819   7.097   3.190  0.8687 -0.1861 -0.0472
 3471TIP3    H131904   2.724   7.095   3.185  0.9221 -2.6317 -1.2879
 3471TIP3    H231905   2.842   7.186   3.162 -1.0028  0.2854 -0.2477
 3472TIP3   OH231906   2.561   2.988  14.840 -0.0694 -0.7438  0.2084
 3472TIP3    H131907   2.630   2.953  14.784  2.5552  2.9123  0.8324
 3472TIP3    H231908   2.587   2.963  14.929  1.2353  1.5308  0.5521
 3473TIP3   OH231909   5.997   3.158  10.410  0.4883  0.0218  0.2059
 3473TIP3    H131910   5.980   3.140  10.317 -0.2880  1.7545 -0.0340
 3473TIP3    H231911   6.063   3.094  10.435 -0.0514 -1.1695 -1.2617
 3474TIP3   OH231912   0.209   1.630   2.437  0.0427  0.4934  0.1944
 3474TIP3    H131913   0.300   1.640   2.407  0.4580 -1.7533  0.5619
 3474TIP3    H231914   0.169   1.573   2.372 -0.5365 -0.1236  1.0730
 3475TIP3   OH231915   1.538   3.314  15.495  0.5360 -0.0553  0.0025
 3475TIP3    H131916   1.503   3.275  15.415  3.0786 -1.4152 -0.5434
 3475TIP3    H231917   1.598   3.382  15.464 -0.4973  1.3186  0.8755
 3476TIP3   OH231918   6.348   4.190  13.027 -0.0489  0.4091  0.4233
 3476TIP3    H131919   6.301   4.237  13.096  0.2328 -1.8158  2.2275
 3476TIP3    H231920   6.440   4.210  13.043  0.0242 -0.1957  0.7813
 3477TIP3   OH231921   1.331   1.944  10.201 -0.0159 -0.1097 -0.1028
 3477TIP3    H131922   1.317   1.943  10.296 -1.3099 -3.2147 -0.2011
 3477TIP3    H231923   1.288   2.024  10.171 -1.0362  0.1020  1.7653
 3478TIP3   OH231924   6.645   5.738  13.042 -0.3868 -0.6708 -0.8332
 3478TIP3    H131925   6.726   5.771  13.082 -1.8293 -0.2561  2.0437
 3478TIP3    H231926   6.671   5.655  13.001  1.9313  0.6335 -2.1859
 3479TIP3   OH231927   4.949   3.467  10.029 -0.7069 -1.0476 -0.3321
 3479TIP3    H131928   5.039   3.500  10.019 -2.0742  3.5280  0.2164
 3479TIP3    H231929   4.953   3.377   9.998  3.1865  0.2359 -4.7065
 3480TIP3   OH231930   1.557   5.156  12.883  0.1364 -0.5698 -0.5022
 3480TIP3    H131931   1.482   5.178  12.828 -0.1797 -0.3757  0.0083
 3480TIP3    H231932   1.548   5.211  12.961  1.2982  0.1307 -0.8279
 3481TIP3   OH231933   5.309   6.391  13.953  0.3951 -0.0481 -0.5372
 3481TIP3    H131934   5.343   6.451  14.020  1.6026 -1.0013 -0.2765
 3481TIP3    H231935   5.349   6.307  13.973 -1.5889 -1.0801 -0.6409
 3482TIP3   OH231936   1.987   4.186   5.301 -0.1333 -0.3667  0.0797
 3482TIP3    H131937   1.925   4.153   5.366  0.4976  0.1740  0.9800
 3482TIP3    H231938   2.073   4.171   5.342  0.2521  0.3367 -0.4701
 3483TIP3   OH231939   5.261   2.510  12.351 -0.5946  0.1068 -0.6306
 3483TIP3    H131940   5.315   2.529  12.274 -1.0996 -0.2651 -1.0810
 3483TIP3    H231941   5.316   2.453  12.405 -0.9761 -1.3171 -1.6791
 3484TIP3   OH231942   5.316   2.772  10.367  0.6761  0.0691 -0.3926
 3484TIP3    H131943   5.380   2.747  10.300 -0.6246  1.2881 -2.1981
 3484TIP3    H231944   5.335   2.715  10.441  1.2316 -2.4619 -2.3468
 3485TIP3   OH231945   3.635   4.238  12.031 -0.4791 -0.5658  0.6403
 3485TIP3    H131946   3.601   4.243  11.942 -0.5138  1.5768  0.7331
 3485TIP3    H231947   3.579   4.297  12.082 -0.9769 -2.3415  2.2851
 3486TIP3   OH231948   6.102   4.634  13.056  0.4490 -0.5559 -0.1007
 3486TIP3    H131949   6.081   4.555  13.105  0.7257 -0.2293  0.5521
 3486TIP3    H231950   6.067   4.706  13.109  0.1494 -0.2412 -0.7149
 3487TIP3   OH231951   1.662   3.123   9.626 -0.1948  0.6874 -0.5863
 3487TIP3    H131952   1.733   3.059   9.617  2.3885  3.4864 -1.9138
 3487TIP3    H231953   1.658   3.141   9.720 -1.1424 -1.4477 -0.1496
 3488TIP3   OH231954   1.219   6.146  10.433  0.6189 -0.6281  0.4815
 3488TIP3    H131955   1.281   6.180  10.369 -2.1083 -1.3783 -2.8754
 3488TIP3    H231956   1.222   6.051  10.422 -1.1896 -0.6713  0.0932
 3489TIP3   OH231957   4.100   5.627   4.184  0.9200  0.3776 -0.1943
 3489TIP3    H131958   4.028   5.623   4.121  1.8737  0.6337 -1.3368
 3489TIP3    H231959   4.153   5.549   4.167  0.8770  0.1434  0.6914
 3490TIP3   OH231960   5.668   5.420  10.657 -0.6253 -0.0673 -0.4785
 3490TIP3    H131961   5.636   5.372  10.581  4.1509 -2.0635 -1.5702
 3490TIP3    H231962   5.674   5.511  10.626 -0.2355 -0.5779 -2.0034
 3491TIP3   OH231963   5.947   7.071  11.921 -0.1225  0.3256 -0.2870
 3491TIP3    H131964   5.875   7.050  11.861  1.2167 -3.1707 -0.9259
 3491TIP3    H231965   6.014   7.109  11.865  0.2729 -0.8828 -0.6846
 3492TIP3   OH231966   6.146   0.983   2.498  0.1951 -0.0537 -0.5653
 3492TIP3    H131967   6.166   0.925   2.425 -0.0411  0.4041 -0.9967
 3492TIP3    H231968   6.066   1.030   2.472 -0.5204 -0.6583  0.4343
 3493TIP3   OH231969   0.650   2.364  13.302  0.4565  0.2144  0.1869
 3493TIP3    H131970   0.656   2.282  13.351  0.1280 -0.4317 -0.8274
 3493TIP3    H231971   0.558   2.370  13.276 -0.0419  2.0325  2.1077
 3494TIP3   OH231972   1.644   3.119  11.975 -0.2732  0.3402  0.1945
 3494TIP3    H131973   1.580   3.142  12.042  0.5134 -0.5560  1.2901
 3494TIP3    H231974   1.714   3.183  11.984 -0.0009  0.0068  0.4800
 3495TIP3   OH231975   0.785   4.491   2.239 -0.4057 -0.1036 -0.0932
 3495TIP3    H131976   0.742   4.439   2.171 -2.0415 -1.3406  1.7446
 3495TIP3    H231977   0.712   4.529   2.288  0.7270  0.9817  0.8006
 3496TIP3   OH231978   6.562   1.955  12.520  0.2311 -0.1287  0.2593
 3496TIP3    H131979   6.556   1.934  12.613 -0.2052 -1.3938 -0.0311
 3496TIP3    H231980   6.633   1.899  12.487  1.0175  0.9907 -0.0001
 3497TIP3   OH231981   1.454   0.294  14.022  0.1391 -0.6142 -0.4297
 3497TIP3    H131982   1.416   0.267  14.105 -1.0192  0.4378 -0.6063
 3497TIP3    H231983   1.549   0.293  14.038 -0.0802 -0.1262  0.9829
 3498TIP3   OH231984   6.808   3.932  15.440  0.6182  0.2372 -0.1136
 3498TIP3    H131985   6.855   3.982  15.507 -0.2812  1.8108 -0.6065
 3498TIP3    H231986   6.859   3.946  15.360  1.4006 -1.2119  0.0976
 3499TIP3   OH231987   5.952   6.309  13.908 -0.4305  0.5505  0.7004
 3499TIP3    H131988   6.024   6.365  13.937 -0.8083  0.1318  2.5576
 3499TIP3    H231989   5.926   6.260  13.986  0.0536 -2.4510 -0.8628
 3500TIP3   OH231990   0.846   1.331  11.957 -0.1608 -0.0781 -0.2830
 3500TIP3    H131991   0.855   1.241  11.926 -4.4551 -0.4364 -1.1877
 3500TIP3    H231992   0.912   1.380  11.907  0.7200 -2.3552 -1.5282
 3501TIP3   OH231993   5.382   3.498  11.549  1.0275 -0.2132 -0.0505
 3501TIP3    H131994   5.349   3.581  11.515  1.9406  1.1485  2.1366
 3501TIP3    H231995   5.410   3.450  11.472 -2.1982  0.2266 -1.6622
 3502TIP3   OH231996   7.156   1.631  11.912  0.4282  0.0503 -0.0186
 3502TIP3    H131997   7.178   1.685  11.836  0.2627  0.0827 -0.0421
 3502TIP3    H231998   7.169   1.541  11.883 -1.3790 -0.0317 -0.6450
 3503TIP3   OH231999   6.647   7.137  10.300 -0.7905  0.3382  0.2749
 3503TIP3    H132000   6.567   7.119  10.351 -1.5644  1.7191 -0.4043
 3503TIP3    H232001   6.717   7.097  10.351 -1.8953 -0.8399  0.9369
 3504TIP3   OH232002   2.423   6.911  12.911 -0.5315  0.1598  0.1620
 3504TIP3    H132003   2.451   6.960  12.988 -2.1820 -1.2471  1.7457
 3504TIP3    H232004   2.503   6.895  12.862  0.5316  1.2606  1.4709
 3505TIP3   OH232005   1.778   5.727  14.718 -0.3723  0.0284  0.0499
 3505TIP3    H132006   1.757   5.727  14.811 -0.5697  0.1923  0.0085
 3505TIP3    H232007   1.737   5.648  14.684 -0.2452 -0.0647  0.1152
 3506TIP3   OH232008   3.898   7.021  14.146  0.4830  0.2323 -0.2547
 3506TIP3    H132009   3.975   6.972  14.174 -0.2115 -0.9749 -0.3911
 3506TIP3    H232010   3.934   7.097  14.099  1.5883 -0.2791 -0.2711
 3507TIP3   OH232011   1.912   5.934   2.412  0.2421  0.1095  0.1981
 3507TIP3    H132012   1.962   5.890   2.344 -0.4531  2.1713 -1.7697
 3507TIP3    H232013   1.829   5.887   2.416  1.0350 -1.2802  1.1455
 3508TIP3   OH232014   6.435   5.578   1.827  0.8971  0.0130 -0.1664
 3508TIP3    H132015   6.369   5.583   1.896  0.0489  0.5478 -0.9997
 3508TIP3    H232016   6.439   5.485   1.804  1.2972 -0.1938  0.6884
 3509TIP3   OH232017   4.460   6.007   9.607 -0.1142  0.0257 -0.2126
 3509TIP3    H132018   4.379   6.056   9.593  0.7512  2.7852  2.9949
 3509TIP3    H232019   4.509   6.019   9.526 -1.7923  0.6297 -1.1874
 3510TIP3   OH232020   6.628   2.423   2.955 -0.5214 -0.4121  0.1272
 3510TIP3    H132021   6.691   2.483   2.994 -1.0043 -0.4184  0.9465
 3510TIP3    H232022   6.673   2.387   2.879  0.0063  0.4953  0.0032
 3511TIP3   OH232023   6.440   2.364  15.158  0.4876 -0.0240  0.6522
 3511TIP3    H132024   6.349   2.338  15.163  0.1402  1.0110  0.0709
 3511TIP3    H232025   6.437   2.459  15.146  1.6334 -0.0019  0.4301
 3512TIP3   OH232026   0.250   1.405   0.023 -0.4691 -0.2051  0.3384
 3512TIP3    H132027   0.308   1.467  -0.021 -1.3808  0.4993  0.0799
 3512TIP3    H232028   0.171   1.456   0.042 -1.6897 -1.5473 -0.8724
 3513TIP3   OH232029   5.524   0.263  11.047  0.0438 -0.0533 -0.5035
 3513TIP3    H132030   5.567   0.316  10.979  1.2888  0.7011  0.8021
 3513TIP3    H232031   5.459   0.321  11.085 -0.4765 -0.3916 -0.8610
 3514TIP3   OH232032   3.216   1.746  11.024 -0.3505  0.6351 -0.0220
 3514TIP3    H132033   3.253   1.750  11.112  0.7615 -1.6718 -0.3090
 3514TIP3    H232034   3.230   1.655  10.996 -3.6959  0.3852 -1.3156
 3515TIP3   OH232035   3.035   0.948   4.840  0.0377  0.5477 -0.2771
 3515TIP3    H132036   3.063   1.014   4.903 -0.9525 -0.6052  1.4737
 3515TIP3    H232037   3.102   0.880   4.844  0.7709  1.1411 -1.6676
 3516TIP3   OH232038   1.205   1.847   3.271  0.1095 -0.3461  0.1273
 3516TIP3    H132039   1.260   1.780   3.312 -0.5153 -2.0309 -1.6500
 3516TIP3    H232040   1.266   1.917   3.246  1.0182 -0.9527  0.6056
 3517TIP3   OH232041   0.141   3.708  10.870 -0.3145 -0.1192  1.1612
 3517TIP3    H132042   0.122   3.689  10.778 -0.8260 -2.8724  1.7379
 3517TIP3    H232043   0.058   3.741  10.906 -0.3990 -0.0092  0.8658
 3518TIP3   OH232044   0.570   4.638   4.236  0.1404 -0.1037  0.5791
 3518TIP3    H132045   0.508   4.604   4.301 -1.3317 -0.2474 -0.8318
 3518TIP3    H232046   0.536   4.606   4.152  0.6739  1.9627 -0.4761
 3519TIP3   OH232047   4.459   6.903  10.846 -0.0555 -0.2041 -0.2369
 3519TIP3    H132048   4.540   6.938  10.883 -0.6645  0.2984  0.6543
 3519TIP3    H232049   4.430   6.969  10.784 -2.1750  1.9034  2.7565
 3520TIP3   OH232050   3.566   2.492  12.077 -0.2475 -0.7073 -0.3947
 3520TIP3    H132051   3.555   2.450  11.992 -0.4684 -0.0316 -0.7074
 3520TIP3    H232052   3.492   2.461  12.130 -0.3711 -0.7672 -0.6029
 3521TIP3   OH232053   0.035   2.600  14.938 -0.1194 -0.0631 -0.0603
 3521TIP3    H132054  -0.035   2.633  14.994 -0.0823 -0.4804  0.2395
 3521TIP3    H232055  -0.007   2.532  14.886  0.2628 -0.9693  0.7813
 3522TIP3   OH232056   1.460   3.327  15.229  0.2823  0.1456  0.7775
 3522TIP3    H132057   1.377   3.372  15.216 -1.7080 -1.9418  4.6084
 3522TIP3    H232058   1.459   3.255  15.166 -1.9400 -1.0965  2.1213
 3523TIP3   OH232059   5.157   1.283  11.406 -0.1261  0.4142 -0.4506
 3523TIP3    H132060   5.138   1.291  11.500  1.9661  0.8792 -0.0054
 3523TIP3    H232061   5.127   1.196  11.382  0.3986 -0.1777  0.9552
 3524TIP3   OH232062   6.505   3.532  13.682  0.0044  0.0685 -0.0019
 3524TIP3    H132063   6.470   3.501  13.599  1.7861 -1.9371 -0.0751
 3524TIP3    H232064   6.447   3.604  13.707 -1.6606 -0.4736 -2.0519
 3525TIP3   OH232065   0.322   6.674  11.166  0.3079 -0.2952 -0.3700
 3525TIP3    H132066   0.370   6.662  11.084 -0.3666  0.2015 -0.8443
 3525TIP3    H232067   0.233   6.645  11.146  0.1550 -0.2295  0.2040
 3526TIP3   OH232068   4.329   4.024  10.124  1.1583  0.7660 -0.1791
 3526TIP3    H132069   4.312   3.934  10.097  1.7033  1.0349 -1.5306
 3526TIP3    H232070   4.244   4.067  10.122  1.1607  0.7444 -1.4385
 3527TIP3   OH232071   0.450   3.925  15.424 -0.2042 -0.5191  0.2959
 3527TIP3    H132072   0.360   3.892  15.418 -0.7744  0.9096  0.4617
 3527TIP3    H232073   0.498   3.856  15.469 -1.2745 -1.2089  0.4210
 3528TIP3   OH232074   5.453   4.363  14.941  0.1968  0.0142  0.5823
 3528TIP3    H132075   5.416   4.431  14.884  1.4009 -0.5073 -0.8905
 3528TIP3    H232076   5.409   4.375  15.025 -1.6571  0.8078 -0.4576
 3529TIP3   OH232077   6.172   6.511  10.671 -0.2328 -0.2550  0.3052
 3529TIP3    H132078   6.133   6.516  10.584  1.6201  4.3637 -0.5371
 3529TIP3    H232079   6.102   6.537  10.731 -0.9019 -1.2922  0.0051
 3530TIP3   OH232080   5.577   1.985  10.210  0.3989  0.1329 -0.0609
 3530TIP3    H132081   5.613   1.954  10.127  0.6324 -1.3667  0.5771
 3530TIP3    H232082   5.651   2.025  10.255  0.0780  1.7948 -0.9232
 3531TIP3   OH232083   6.647   1.023  12.748 -0.1275 -0.0391 -0.0903
 3531TIP3    H132084   6.558   1.048  12.771 -0.3660 -2.1942  1.6865
 3531TIP3    H232085   6.701   1.054  12.821 -0.0145 -1.9168  0.6788
 3532TIP3   OH232086   1.906   1.853  12.255 -0.0549  0.2895 -0.1684
 3532TIP3    H132087   1.853   1.925  12.287  0.4128  0.1024  1.0904
 3532TIP3    H232088   1.946   1.815  12.334  0.9794 -0.3297 -0.9561
 3533TIP3   OH232089   4.494   7.056  14.061  0.4586  0.9094 -0.3672
 3533TIP3    H132090   4.489   6.969  14.022 -1.9028  0.0922  1.5451
 3533TIP3    H232091   4.432   7.109  14.012 -0.9267  0.4499  0.8324
 3534TIP3   OH232092   4.910   3.823   9.856  0.3801 -0.3762  0.2604
 3534TIP3    H132093   4.854   3.881   9.804 -0.3748  0.0301  1.4822
 3534TIP3    H232094   4.977   3.881   9.892  0.6520 -0.5808  0.0833
 3535TIP3   OH232095   5.389   4.039   3.368 -0.1579 -0.2983  0.4081
 3535TIP3    H132096   5.424   4.078   3.448  1.7353  0.4712 -0.7150
 3535TIP3    H232097   5.462   3.987   3.333  0.0635  1.5199 -2.1355
 3536TIP3   OH232098   2.400   0.149   3.024 -0.5475  0.5060 -0.4570
 3536TIP3    H132099   2.426   0.075   3.077 -0.7069 -0.0249 -1.1089
 3536TIP3    H232100   2.482   0.186   2.992 -0.3808  1.4808  0.9896
 3537TIP3   OH232101   5.520   6.219   0.731 -0.0568  0.0088 -0.0111
 3537TIP3    H132102   5.534   6.261   0.816 -0.0827  0.3508 -0.1743
 3537TIP3    H232103   5.598   6.240   0.681 -0.7236  1.1500 -0.6109
 3538TIP3   OH232104   4.207   0.802   1.702 -0.1268 -0.8050 -0.6951
 3538TIP3    H132105   4.289   0.755   1.689  0.2562 -0.9133  1.6602
 3538TIP3    H232106   4.172   0.768   1.784 -0.8282  1.6277  0.1017
 3539TIP3   OH232107   5.680   3.202  10.107  0.0251 -0.5087  0.2002
 3539TIP3    H132108   5.764   3.217  10.150  0.4958  0.0751 -0.9005
 3539TIP3    H232109   5.702   3.183  10.016 -1.0165 -0.6889 -0.0321
 3540TIP3   OH232110   3.783   1.349   1.628  0.5809 -0.0025  0.0804
 3540TIP3    H132111   3.843   1.307   1.689 -0.2811  1.4300  2.0571
 3540TIP3    H232112   3.697   1.311   1.649  0.8123 -3.5633 -4.0817
 3541TIP3   OH232113   1.318   0.131  12.409  0.4267 -0.2854 -0.9570
 3541TIP3    H132114   1.246   0.094  12.461 -0.5716  2.0671 -0.5252
 3541TIP3    H232115   1.283   0.214  12.376  2.9998  1.0605 -0.5652
 3542TIP3   OH232116   0.305   6.617   4.924 -0.1978  0.2590  0.4722
 3542TIP3    H132117   0.268   6.608   5.012 -1.5810  1.9565  0.1207
 3542TIP3    H232118   0.233   6.592   4.866  0.5701 -0.4439 -0.1904
 3543TIP3   OH232119   1.033   3.855  10.370  0.2774 -0.0140  0.4099
 3543TIP3    H132120   1.069   3.872  10.457 -0.9495 -0.4274  1.0198
 3543TIP3    H232121   0.940   3.876  10.378  0.2643  0.5231 -0.9785
 3544TIP3   OH232122   2.023   0.180   4.440  0.7864  0.7541  0.2714
 3544TIP3    H132123   1.937   0.156   4.474  0.4167  0.8529 -0.5769
 3544TIP3    H232124   2.011   0.268   4.404  1.5283  1.2332  1.1558
 3545TIP3   OH232125   5.468   5.334   1.963  0.4269 -0.3307  0.4019
 3545TIP3    H132126   5.458   5.247   1.926 -0.2790  0.3701 -1.1489
 3545TIP3    H232127   5.530   5.379   1.905 -0.9862  0.9155 -0.2107
 3546TIP3   OH232128   2.878   5.444  13.648  0.0575  0.0126 -0.4779
 3546TIP3    H132129   2.956   5.422  13.700  0.2145  1.0744 -0.2314
 3546TIP3    H232130   2.847   5.360  13.614 -0.5593 -0.8578  2.0181
 3547TIP3   OH232131   5.186   4.199   0.855  0.3107  0.3284  0.3180
 3547TIP3    H132132   5.180   4.157   0.769  2.3024  1.1122 -0.2469
 3547TIP3    H232133   5.270   4.245   0.854 -1.2521  3.5184  1.2503
 3548TIP3   OH232134   3.325   3.097   1.142  0.0481  0.3140  0.5969
 3548TIP3    H132135   3.393   3.034   1.165  1.3186  1.7321  0.8954
 3548TIP3    H232136   3.346   3.175   1.193 -0.9550  1.2800 -0.4040
 3549TIP3   OH232137   2.669   5.616  11.864  0.1379 -0.0713  0.1897
 3549TIP3    H132138   2.642   5.538  11.815 -0.5642 -0.8154  1.6900
 3549TIP3    H232139   2.587   5.648  11.902  0.5844  0.8354  0.3874
 3550TIP3   OH232140   3.468   0.507  10.505 -0.2301  0.0534  0.0887
 3550TIP3    H132141   3.408   0.490  10.577 -0.7527 -0.3130 -0.4229
 3550TIP3    H232142   3.423   0.472  10.427  0.5172  0.0203 -0.3416
 3551TIP3   OH232143   4.119   1.460   0.195 -0.2146 -0.1524  0.0893
 3551TIP3    H132144   4.142   1.454   0.288 -1.1943  0.2082  0.3697
 3551TIP3    H232145   4.169   1.535   0.163  0.2724 -0.3905  0.2681
 3552TIP3   OH232146   4.164   3.713  10.547  0.0022 -0.0397 -0.6495
 3552TIP3    H132147   4.245   3.740  10.592  0.5673 -2.4484 -0.1082
 3552TIP3    H232148   4.094   3.737  10.607  0.5652 -0.8128  0.3329
 3553TIP3   OH232149   4.789   2.374   0.009  0.2227  0.2843  0.7023
 3553TIP3    H132150   4.859   2.417   0.057 -1.7824  1.2864  2.8780
 3553TIP3    H232151   4.809   2.281   0.015  0.9947  0.5126  1.9315
 3554TIP3   OH232152   6.220   3.034  10.764 -0.2288 -0.2119  0.0315
 3554TIP3    H132153   6.281   3.107  10.751  0.3987 -0.7524 -0.1068
 3554TIP3    H232154   6.175   3.025  10.680 -0.1678 -0.1088 -0.0117
 3555TIP3   OH232155   1.769   0.286   3.117 -0.1163  0.5591 -0.1403
 3555TIP3    H132156   1.732   0.218   3.060  1.9864 -0.2917 -0.5774
 3555TIP3    H232157   1.789   0.240   3.199 -0.2408  1.0582  0.1718
 3556TIP3   OH232158   5.381   4.836   2.223  0.3309  0.2958  0.0224
 3556TIP3    H132159   5.320   4.894   2.268  0.1592  0.4363 -0.3921
 3556TIP3    H232160   5.375   4.753   2.271 -1.4277 -0.2240 -0.9959
 3557TIP3   OH232161   1.140   4.611  12.918 -0.5501  0.2122 -0.4489
 3557TIP3    H132162   1.087   4.537  12.886  1.0225 -1.9762  1.5892
 3557TIP3    H232163   1.191   4.638  12.842  0.1555 -2.0938 -0.8941
 3558TIP3   OH232164   1.114   2.308   1.698 -0.2113  0.2409 -0.1201
 3558TIP3    H132165   1.184   2.374   1.703 -1.1736  1.2606  0.4337
 3558TIP3    H232166   1.148   2.242   1.638  1.4692  0.4009  0.5916
 3559TIP3   OH232167   0.752   1.920   3.481  0.2894  0.6841  0.7362
 3559TIP3    H132168   0.746   1.824   3.477 -1.2694  0.7977 -1.4349
 3559TIP3    H232169   0.776   1.938   3.572 -0.6170 -1.7112  1.5482
 3560TIP3   OH232170   1.767   6.516   3.498 -0.3388  0.3777  0.2618
 3560TIP3    H132171   1.772   6.540   3.591 -0.3484  0.8184  0.1498
 3560TIP3    H232172   1.815   6.434   3.492 -2.0886 -0.7546  1.0292
 3561TIP3   OH232173   6.251   4.448  10.730  0.0804  0.4121 -0.3306
 3561TIP3    H132174   6.191   4.520  10.751 -0.3474  0.7063 -2.3118
 3561TIP3    H232175   6.335   4.476  10.766 -0.3821  1.2731  0.1298
 3562TIP3   OH232176   3.799   5.937  14.898 -0.3689  0.4378 -0.7843
 3562TIP3    H132177   3.859   5.901  14.964 -0.1391  1.0199 -0.6675
 3562TIP3    H232178   3.853   5.998  14.848 -0.5384 -0.0044 -1.5256
 3563TIP3   OH232179   0.006   1.809  10.538 -0.0851  0.1026  0.0756
 3563TIP3    H132180  -0.053   1.877  10.569  0.7719 -0.0637  2.2059
 3563TIP3    H232181  -0.052   1.740  10.504 -1.0816  0.2774  1.3680
 3564TIP3   OH232182   0.165   6.097  13.737  0.0717 -0.4391 -0.2858
 3564TIP3    H132183   0.196   6.169  13.683 -0.6501  0.2688  0.2203
 3564TIP3    H232184   0.115   6.042  13.676  0.0487 -0.1470 -0.5311
 3565TIP3   OH232185   0.874   1.914   0.796  0.5460  0.2080 -0.1771
 3565TIP3    H132186   0.804   1.858   0.762  0.1346  0.4252  0.3061
 3565TIP3    H232187   0.877   1.895   0.889  0.7498  0.6151 -0.0965
 3566TIP3   OH232188   4.353   4.468  12.931  0.1120  0.4182 -0.0991
 3566TIP3    H132189   4.338   4.375  12.916  0.0909 -0.0289  2.3833
 3566TIP3    H232190   4.265   4.505  12.939 -0.0092 -0.3095  3.7642
 3567TIP3   OH232191   2.731   2.015   3.590  0.3620  0.0719  0.1339
 3567TIP3    H132192   2.825   2.019   3.570  0.5766  1.1483  1.2547
 3567TIP3    H232193   2.708   2.105   3.613 -0.3587 -0.6435  2.4103
 3568TIP3   OH232194   3.101   4.702   2.502 -0.3253 -0.7642  0.1992
 3568TIP3    H132195   3.183   4.718   2.548  0.3963  0.0123 -1.2992
 3568TIP3    H232196   3.034   4.741   2.559  0.4887 -0.1564  0.7737
 3569TIP3   OH232197   0.165   2.370   0.678 -0.4512  0.3798  0.0799
 3569TIP3    H132198   0.120   2.374   0.594  1.3011  0.4200 -0.8906
 3569TIP3    H232199   0.254   2.401   0.660 -0.1334  0.7241  2.0182
 3570TIP3   OH232200   6.732   0.113  12.338 -0.0253  0.3129  0.0333
 3570TIP3    H132201   6.700   0.083  12.253 -0.2727 -2.1378  0.9210
 3570TIP3    H232202   6.654   0.129  12.390  0.1377  0.7509  0.1513
 3571TIP3   OH232203   1.947   1.843   4.724  0.1785 -0.3509 -0.0474
 3571TIP3    H132204   1.975   1.868   4.811 -0.6875 -1.9429  0.7406
 3571TIP3    H232205   1.878   1.777   4.739 -0.9776  0.3491 -1.9009
 3572TIP3   OH232206   5.644   5.915   0.299 -0.6916  0.1755  0.4903
 3572TIP3    H132207   5.681   5.990   0.252 -2.9852  1.9037  1.2502
 3572TIP3    H232208   5.588   5.872   0.235 -2.7614  1.7467  1.1183
 3573TIP3   OH232209   0.026   0.792  13.019 -0.0077 -0.6909  0.5671
 3573TIP3    H132210  -0.010   0.865  12.970  0.8512 -0.8169 -0.2841
 3573TIP3    H232211   0.092   0.831  13.077 -0.9930 -0.5471  1.6251
 3574TIP3   OH232212   6.637   5.665   0.372 -0.4810 -0.1948  0.1267
 3574TIP3    H132213   6.667   5.600   0.308 -1.3868 -1.8269  1.2644
 3574TIP3    H232214   6.700   5.659   0.443  0.7223  1.8648 -0.6894
 3575TIP3   OH232215   2.076   4.764  10.488  0.5438 -0.7167 -0.3794
 3575TIP3    H132216   2.140   4.804  10.547 -0.6365  0.3086  0.2489
 3575TIP3    H232217   1.991   4.784  10.527 -0.2297 -1.0561 -1.8029
 3576TIP3   OH232218   1.675   5.890   5.142  0.2054  0.3411 -0.6928
 3576TIP3    H132219   1.762   5.876   5.180 -0.6683  0.3094  1.4190
 3576TIP3    H232220   1.690   5.889   5.048  2.5484  0.6767 -0.3897
 3577TIP3   OH232221   5.908   1.632   0.237 -0.3614  0.5786 -0.2688
 3577TIP3    H132222   5.922   1.641   0.332 -4.1062 -1.4853  0.6806
 3577TIP3    H232223   5.824   1.675   0.221  0.1145  0.7309 -2.6600
 3578TIP3   OH232224   1.563   2.378  15.318  0.5872  0.3435 -0.2604
 3578TIP3    H132225   1.655   2.362  15.338  0.8121  2.2325  0.4439
 3578TIP3    H232226   1.551   2.346  15.229  1.7381 -0.5850 -0.0951
 3579TIP3   OH232227   5.638   4.660  13.687  0.7445  0.0888 -0.0450
 3579TIP3    H132228   5.639   4.714  13.766  0.2165  2.2140 -1.4196
 3579TIP3    H232229   5.600   4.577  13.715 -0.5695  1.2108  1.6746
 3580TIP3   OH232230   5.276   6.765  11.705  0.2254  0.0452 -0.2281
 3580TIP3    H132231   5.303   6.749  11.796 -1.8073  0.1997  0.4345
 3580TIP3    H232232   5.201   6.708  11.692 -0.5995  1.3245 -1.2387
 3581TIP3   OH232233   6.265   6.151  11.788  0.2969  0.3699  0.7301
 3581TIP3    H132234   6.291   6.061  11.767 -0.5417 -0.1405  1.7840
 3581TIP3    H232235   6.294   6.202  11.713  1.5674 -0.6375  0.4866
 3582TIP3   OH232236   4.237   5.924  14.942  0.4458 -0.2520 -0.9391
 3582TIP3    H132237   4.174   5.990  14.972 -1.3173 -1.0539 -2.6668
 3582TIP3    H232238   4.322   5.959  14.967 -0.5212  2.0087 -0.5659
 3583TIP3   OH232239   1.712   3.343   0.333  0.0452 -0.0326 -0.2051
 3583TIP3    H132240   1.770   3.416   0.354  1.6753 -0.8727 -1.5650
 3583TIP3    H232241   1.751   3.268   0.378  0.1038 -0.6353 -1.2309
 3584TIP3   OH232242   3.556   3.626   1.991  0.3083  0.3361  0.5898
 3584TIP3    H132243   3.534   3.718   1.976  1.0000  0.4403  0.1869
 3584TIP3    H232244   3.570   3.590   1.904  0.1637 -0.1256  0.7530
 3585TIP3   OH232245   2.806   3.356  12.849  0.0596  0.1075  0.2178
 3585TIP3    H132246   2.740   3.302  12.892  1.8785 -2.4712  0.0021
 3585TIP3    H232247   2.885   3.346  12.903  0.8203  1.5401 -0.5612
 3586TIP3   OH232248   2.065   4.006  12.392  0.2636  0.1568  0.2436
 3586TIP3    H132249   2.020   3.921  12.390  1.8292 -0.7408  1.3860
 3586TIP3    H232250   2.000   4.068  12.359  0.3704 -1.9987 -4.8133
 3587TIP3   OH232251   5.020   0.460  13.021 -0.1371  0.0895 -0.1462
 3587TIP3    H132252   5.013   0.456  12.925  1.1298  0.7823 -0.2968
 3587TIP3    H232253   5.100   0.412  13.041 -0.3194  0.0731  0.5513
 3588TIP3   OH232254   1.969   1.906  15.222  0.0565 -0.2121 -0.1306
 3588TIP3    H132255   2.052   1.894  15.176  0.6493  0.1704  0.8175
 3588TIP3    H232256   1.925   1.821  15.214 -0.0358 -0.0503 -1.7072
 3589TIP3   OH232257   4.643   6.499   2.836  0.4098 -0.0462  0.2243
 3589TIP3    H132258   4.702   6.517   2.763 -0.1579  0.2424 -0.1762
 3589TIP3    H232259   4.645   6.404   2.845  0.7041 -0.0606  0.0144
 3590TIP3   OH232260   1.536   0.533  12.398 -0.0094 -0.0354 -0.0873
 3590TIP3    H132261   1.613   0.546  12.343  0.6946  0.2054  0.9213
 3590TIP3    H232262   1.553   0.585  12.476 -0.7847 -0.6974  0.5510
 3591TIP3   OH232263   3.190   1.215  10.656 -0.6490 -0.1375  0.2066
 3591TIP3    H132264   3.285   1.214  10.644 -0.6892  1.5994 -0.5683
 3591TIP3    H232265   3.154   1.209  10.568 -1.3179 -1.4674  0.5316
 3592TIP3   OH232266   0.078   6.144  11.365 -0.2034 -0.3738  0.4364
 3592TIP3    H132267   0.102   6.085  11.293 -0.4647  0.4667 -0.3660
 3592TIP3    H232268  -0.015   6.127  11.379 -1.1156  1.9822 -1.9471
 3593TIP3   OH232269   2.566   3.476  11.615  0.1053  0.1795 -0.3016
 3593TIP3    H132270   2.507   3.428  11.557  0.3128  1.0068 -1.2241
 3593TIP3    H232271   2.610   3.408  11.667 -0.3035 -0.5508 -0.9005
 3594TIP3   OH232272   3.606   0.975  13.936 -0.1314 -0.2979  0.3707
 3594TIP3    H132273   3.629   0.899  13.882 -0.8384 -1.6149  1.8332
 3594TIP3    H232274   3.689   1.021  13.948  0.0461  0.0553 -1.7918
 3595TIP3   OH232275   0.752   5.269  10.970 -0.1376 -0.3564  0.4293
 3595TIP3    H132276   0.804   5.236  11.044 -0.6658  0.3275  1.1198
 3595TIP3    H232277   0.750   5.364  10.983 -1.5471 -0.3713  0.4025
 3596TIP3   OH232278   6.215   2.375  10.486  0.0036 -0.0538 -0.0881
 3596TIP3    H132279   6.186   2.284  10.483 -1.1502  0.2690  0.6990
 3596TIP3    H232280   6.289   2.375  10.546 -0.3377 -0.3837  0.3353
 3597TIP3   OH232281   3.776   1.242  13.467  0.5756 -0.1774 -0.8818
 3597TIP3    H132282   3.859   1.249  13.514  1.1469 -2.4692 -1.4101
 3597TIP3    H232283   3.768   1.149  13.447 -2.8305 -0.3199  0.3941
 3598TIP3   OH232284   4.543   4.250  10.642 -0.4656 -0.4296 -0.1674
 3598TIP3    H132285   4.487   4.256  10.565 -0.5021  0.3261 -0.0897
 3598TIP3    H232286   4.618   4.307  10.622 -1.0240  0.6903  0.8015
 3599TIP3   OH232287   7.090   4.909  15.127 -0.2852 -0.9982  0.2686
 3599TIP3    H132288   7.096   4.826  15.175  0.5087 -0.7873  0.5429
 3599TIP3    H232289   7.176   4.919  15.086 -0.5819 -0.6098 -0.2700
 3600TIP3   OH232290   5.925   4.094  10.942  0.2817 -0.3321 -0.5396
 3600TIP3    H132291   5.987   4.162  10.915  0.9771 -0.8418 -0.2526
 3600TIP3    H232292   5.903   4.048  10.861  1.7982 -1.3907 -0.3877
 3601TIP3   OH232293   1.054   3.345  10.269  0.2692  0.0977 -0.4700
 3601TIP3    H132294   1.046   3.252  10.290 -2.0181  0.4160  0.4119
 3601TIP3    H232295   1.002   3.356  10.190 -0.5120  0.7994  0.1194
 3602TIP3   OH232296   5.535   3.133  13.082 -0.0441 -0.1283  0.0132
 3602TIP3    H132297   5.543   3.195  13.155 -1.4215 -0.6988  0.6874
 3602TIP3    H232298   5.524   3.189  13.005 -3.3672  0.5663  0.8567
 3603TIP3   OH232299   6.129   4.712  14.562  0.1471 -0.0710 -0.3031
 3603TIP3    H132300   6.183   4.677  14.633 -1.3859  0.2022  1.0519
 3603TIP3    H232301   6.084   4.636  14.525 -0.6040  0.0287  0.3890
 3604TIP3   OH232302   4.917   2.422   3.237  0.4809 -0.1149  0.0199
 3604TIP3    H132303   4.971   2.370   3.297  0.3662 -1.0977 -0.7057
 3604TIP3    H232304   4.926   2.378   3.152  0.1824  0.9199 -0.5635
 3605TIP3   OH232305   2.217   0.713  13.273  0.6687  0.2665  0.0233
 3605TIP3    H132306   2.209   0.619  13.291 -0.5164  0.3223 -0.1311
 3605TIP3    H232307   2.127   0.743  13.263  0.9678  1.6758  1.2778
 3606TIP3   OH232308   5.386   6.202  10.799 -0.2329 -0.3860  0.0800
 3606TIP3    H132309   5.355   6.112  10.784 -0.1284 -0.6331  1.2575
 3606TIP3    H232310   5.408   6.205  10.892  0.1441  0.7547 -0.0264
 3607TIP3   OH232311   6.036   7.060  11.332  0.4256 -0.1243 -0.2007
 3607TIP3    H132312   5.994   7.137  11.370  0.6841  0.6719 -1.4723
 3607TIP3    H232313   6.023   7.070  11.238  1.3883 -1.0964 -0.4541
 3608TIP3   OH232314   5.034   6.659   0.222  0.2415 -0.0061  0.0778
 3608TIP3    H132315   5.111   6.689   0.270  1.1496 -1.4532 -0.4043
 3608TIP3    H232316   4.962   6.709   0.258  0.8795 -0.9640  2.9226
 3609TIP3   OH232317   3.100   0.757   2.933  0.0246 -0.1005  0.2483
 3609TIP3    H132318   3.176   0.800   2.894 -0.5031  0.2705 -0.3852
 3609TIP3    H232319   3.119   0.664   2.926 -0.3271 -0.0672 -1.4545
 3610TIP3   OH232320   0.123   5.849  10.506  0.8650 -0.8214 -0.2890
 3610TIP3    H132321   0.129   5.944  10.498  0.0161 -0.4985  2.1388
 3610TIP3    H232322   0.212   5.820  10.524  1.0920 -0.4761 -0.8312
 3611TIP3   OH232323   3.032   2.285   1.754  0.9349  0.4211  0.1557
 3611TIP3    H132324   3.111   2.257   1.801  0.4184 -0.3777  0.5740
 3611TIP3    H232325   3.065   2.324   1.673  1.8199  1.4137  0.9679
 3612TIP3   OH232326   5.545   7.024   0.970 -0.3395 -0.5782  0.3486
 3612TIP3    H132327   5.540   6.999   0.878 -0.6126  0.9539 -0.0706
 3612TIP3    H232328   5.457   7.056   0.991 -0.6186 -1.9770  1.4875
 3613TIP3   OH232329   6.693   5.789   3.906 -0.4707 -0.3669  0.1216
 3613TIP3    H132330   6.713   5.852   3.837 -0.0438 -0.2972  0.3094
 3613TIP3    H232331   6.671   5.842   3.983 -0.2485 -0.4452  0.2406
 3614TIP3   OH232332   6.413   5.097  13.277 -0.1027 -0.1521  0.1030
 3614TIP3    H132333   6.469   5.042  13.222 -0.0959 -0.7674  0.7143
 3614TIP3    H232334   6.326   5.088  13.239 -0.2118 -1.0641  0.5440
 3615TIP3   OH232335   7.044   4.296  11.290 -0.0680 -0.1291  0.1677
 3615TIP3    H132336   7.090   4.345  11.222  0.7930  1.9926  2.1140
 3615TIP3    H232337   7.108   4.287  11.361 -1.2962 -1.0878  1.2130
 3616TIP3   OH232338   2.886   3.109  13.150  0.1298  0.6150  0.1974
 3616TIP3    H132339   2.936   3.061  13.217 -0.3121 -0.6067 -0.3125
 3616TIP3    H232340   2.953   3.145  13.092  0.4710 -0.8296 -0.3611
 3617TIP3   OH232341   4.810   7.088  11.312  0.4367 -0.1993  0.3119
 3617TIP3    H132342   4.844   7.008  11.273 -1.0407 -0.3416 -0.7664
 3617TIP3    H232343   4.770   7.060  11.394  3.2280  0.0488  1.8876
 3618TIP3   OH232344   5.147   5.737  12.856  0.1022 -0.1162  0.6925
 3618TIP3    H132345   5.169   5.814  12.805 -0.1808 -0.9332 -0.7051
 3618TIP3    H232346   5.063   5.707  12.822  0.4122 -1.2911  0.8935
 3619TIP3   OH232347   2.164   3.569   2.359 -0.2758 -0.7236  0.1778
 3619TIP3    H132348   2.089   3.509   2.353  0.1405 -1.1901 -0.4072
 3619TIP3    H232349   2.234   3.516   2.397  0.1575 -0.6717 -0.5380
 3620TIP3   OH232350   0.031   1.368   1.196  0.1619  0.3734  0.4126
 3620TIP3    H132351   0.023   1.440   1.258 -1.9083  1.1392 -0.6304
 3620TIP3    H232352  -0.058   1.355   1.163  0.8421 -1.3419 -0.8939
 3621TIP3   OH232353   5.807   0.065  12.901 -0.0672 -0.0263  0.1897
 3621TIP3    H132354   5.818   0.123  12.977 -0.8060  0.6000 -0.1656
 3621TIP3    H232355   5.876  -0.001  12.911 -0.6954 -0.4749  1.8686
 3622TIP3   OH232356   6.769   2.381  14.443 -0.0513  0.1758  0.2205
 3622TIP3    H132357   6.808   2.310  14.392 -0.5680 -1.0686  1.4947
 3622TIP3    H232358   6.840   2.445  14.454  0.7624 -0.6749  0.0169
 3623TIP3   OH232359   0.308   1.882   0.051 -0.1431  0.1324 -0.4296
 3623TIP3    H132360   0.233   1.844   0.005 -0.2710  2.7305 -2.6569
 3623TIP3    H232361   0.272   1.951   0.105  0.5914  1.7950 -1.9592
 3624TIP3   OH232362   1.814   4.733   3.315  0.3485 -0.4693  0.2178
 3624TIP3    H132363   1.832   4.774   3.400 -0.4339  0.3766 -0.0089
 3624TIP3    H232364   1.725   4.762   3.292  1.5931  1.8495 -2.2779
 3625TIP3   OH232365   6.137   4.287  13.290  0.1363 -0.0503 -0.1697
 3625TIP3    H132366   6.091   4.284  13.206 -2.3687 -0.2018  1.1357
 3625TIP3    H232367   6.111   4.370  13.329  0.0527 -0.6498  1.1059
 3626TIP3   OH232368   5.133   6.531  11.711  0.4785  0.1361  0.0496
 3626TIP3    H132369   5.067   6.499  11.772  1.4574  0.5315  1.3656
 3626TIP3    H232370   5.106   6.496  11.626 -1.0664 -0.2084  0.6485
 3627TIP3   OH232371   4.175   5.173  14.687  0.0673 -0.1728  0.2052
 3627TIP3    H132372   4.153   5.245  14.747 -0.0979 -0.3116  0.3093
 3627TIP3    H232373   4.091   5.142  14.655  0.0832 -0.9009  0.8349
 3628TIP3   OH232374   3.226   0.639  11.170 -0.1119 -0.0741  0.3094
 3628TIP3    H132375   3.312   0.654  11.209 -1.1588  4.5829  1.5043
 3628TIP3    H232376   3.226   0.692  11.090 -1.8382  0.0275  0.3340
 3629TIP3   OH232377   3.019   6.633   3.871 -0.0438  0.2759 -0.0819
 3629TIP3    H132378   3.074   6.589   3.936  1.5009  0.4570 -1.2255
 3629TIP3    H232379   2.995   6.715   3.913 -0.3471 -0.2638  0.8475
 3630TIP3   OH232380   0.534   6.120   3.944 -0.0609 -0.4274  0.1402
 3630TIP3    H132381   0.627   6.097   3.941 -0.1528 -0.7817 -0.1470
 3630TIP3    H232382   0.508   6.124   3.852 -0.4111 -0.6707  0.2257
 3631TIP3   OH232383   6.076   5.889  10.002  0.6648 -0.1388  0.2139
 3631TIP3    H132384   5.996   5.852   9.965 -1.0557  2.4480  1.1006
 3631TIP3    H232385   6.096   5.964   9.946  2.5685 -0.7838 -0.0345
 3632TIP3   OH232386   1.675   1.324   0.337  0.2620 -0.2457  0.2162
 3632TIP3    H132387   1.610   1.379   0.381 -0.6249 -1.1447  0.0586
 3632TIP3    H232388   1.642   1.234   0.348  1.7039 -0.7711  0.5169
 3633TIP3   OH232389   4.300   0.693  12.813 -0.1256 -0.2650  0.3831
 3633TIP3    H132390   4.206   0.691  12.831 -0.2841 -0.2342 -0.4411
 3633TIP3    H232391   4.317   0.782  12.782  0.4553  0.2146  1.9331
 3634TIP3   OH232392   6.159   4.383  14.005 -0.1309  0.3951 -0.3600
 3634TIP3    H132393   6.096   4.335  13.952  1.4840 -1.3186 -0.8469
 3634TIP3    H232394   6.241   4.376  13.957  0.6157  1.9023  0.6134
 3635TIP3   OH232395   0.039   3.306  14.217  0.3062 -0.0341  0.5485
 3635TIP3    H132396   0.003   3.389  14.248  1.4657  0.6053  0.2369
 3635TIP3    H232397  -0.033   3.243  14.226 -0.0729  0.6005  2.4590
 3636TIP3   OH232398   3.279   6.465   1.532 -0.3852 -0.1209 -0.0574
 3636TIP3    H132399   3.342   6.402   1.497 -1.9776 -0.6225 -2.2185
 3636TIP3    H232400   3.208   6.411   1.568 -0.2157  0.4536  1.2250
 3637TIP3   OH232401   1.530   0.988  14.753 -0.5088  0.7549  0.5229
 3637TIP3    H132402   1.524   1.032  14.838  0.3948  0.4180  0.7645
 3637TIP3    H232403   1.445   1.005  14.712 -0.0108  3.2842  0.3359
 3638TIP3   OH232404   6.011   0.442  11.598  1.0224  0.5452  0.3917
 3638TIP3    H132405   6.049   0.360  11.629 -0.1059 -0.3885 -0.5761
 3638TIP3    H232406   5.916   0.427  11.603  0.7772  2.1598  1.1217
 3639TIP3   OH232407   0.168   5.130  11.615 -0.3708 -0.1906  0.1227
 3639TIP3    H132408   0.214   5.133  11.531 -1.6789 -1.2419 -0.6709
 3639TIP3    H232409   0.152   5.222  11.637  2.5375  0.2738  0.7315
 3640TIP3   OH232410   6.069   0.292  13.397 -0.4885 -0.0905  0.2395
 3640TIP3    H132411   5.994   0.351  13.409 -0.4312  0.6909 -2.5044
 3640TIP3    H232412   6.098   0.310  13.308  1.7816 -1.7794  0.5794
 3641TIP3   OH232413   2.158   3.425   3.234  0.3953  0.2086  0.2134
 3641TIP3    H132414   2.251   3.402   3.232  0.6148  1.0924 -0.1389
 3641TIP3    H232415   2.149   3.496   3.170 -0.5822 -0.0860  0.0080
 3642TIP3   OH232416   1.737   4.441   2.720  0.2985 -0.3037 -0.0296
 3642TIP3    H132417   1.760   4.383   2.648  0.9332 -0.5778  0.3797
 3642TIP3    H232418   1.766   4.395   2.799 -0.2320  0.0634  0.3904
 3643TIP3   OH232419   6.231   4.274  15.353  0.1016  0.0174 -0.4267
 3643TIP3    H132420   6.156   4.215  15.351 -0.1109  0.2944 -0.8480
 3643TIP3    H232421   6.220   4.324  15.434  0.2294 -0.4472 -0.1192
 3644TIP3   OH232422   1.965   1.906  14.167 -0.8473  0.1777 -0.2801
 3644TIP3    H132423   2.020   1.982  14.150 -2.3720  1.1507 -1.0872
 3644TIP3    H232424   2.025   1.839  14.199  0.5849  1.5939  0.0797
 3645TIP3   OH232425   3.459   4.082  13.217  0.1614 -0.3472  0.1445
 3645TIP3    H132426   3.551   4.057  13.212  0.4814  0.7544  0.2288
 3645TIP3    H232427   3.460   4.178  13.224 -0.9064 -0.4169  2.1150
 3646TIP3   OH232428   4.493   0.530  13.115  0.2447 -0.0481  0.0820
 3646TIP3    H132429   4.582   0.498  13.130  0.2244 -0.0123  0.2753
 3646TIP3    H232430   4.444   0.451  13.092  0.2284 -0.1352  0.4110
 3647TIP3   OH232431   6.651   4.734  10.968 -0.2026 -0.1060  0.2672
 3647TIP3    H132432   6.737   4.695  10.980  0.1711  0.5313 -0.2475
 3647TIP3    H232433   6.651   4.766  10.877 -0.8754  0.1379  0.3437
 3648TIP3   OH232434   4.524   2.821  13.503  0.1813 -0.4161  0.0431
 3648TIP3    H132435   4.518   2.748  13.565 -0.4383 -0.4293 -0.0257
 3648TIP3    H232436   4.587   2.881  13.544  1.2709 -1.3119 -0.2471
 3649TIP3   OH232437   6.718   6.086  14.652 -0.2146  0.0132 -0.2961
 3649TIP3    H132438   6.797   6.038  14.628  0.2049  1.5253 -2.2838
 3649TIP3    H232439   6.750   6.164  14.697 -0.6184  0.2821 -0.4669
 3650TIP3   OH232440   4.921   1.375  10.649 -0.0170 -0.0569 -0.1350
 3650TIP3    H132441   4.960   1.414  10.571  0.1031  0.6982  0.2951
 3650TIP3    H232442   4.935   1.440  10.718 -1.7167  0.0923  0.1128
 3651TIP3   OH232443   3.074   4.935  13.039 -0.3801 -0.6287  0.7110
 3651TIP3    H132444   3.168   4.949  13.047 -0.0243 -1.7849 -0.9857
 3651TIP3    H232445   3.057   4.853  13.085 -0.3076 -1.1520 -0.1807
 3652TIP3   OH232446   7.159   6.429  11.554 -0.4168 -0.2532  0.5657
 3652TIP3    H132447   7.209   6.350  11.536 -0.9931 -0.5059  0.0134
 3652TIP3    H232448   7.072   6.410  11.519  0.0213  1.4386 -1.5985
 3653TIP3   OH232449   6.242   3.299  11.208  0.3884 -0.1294 -0.3486
 3653TIP3    H132450   6.211   3.377  11.253  2.5866  0.6348 -0.0350
 3653TIP3    H232451   6.176   3.281  11.142 -1.6192  0.2534  1.4660
 3654TIP3   OH232452   3.077   3.002  15.522 -0.2045 -0.5348  0.6781
 3654TIP3    H132453   3.124   3.046  15.451 -0.1774 -0.7488  0.5635
 3654TIP3    H232454   3.040   3.073  15.574  0.2390 -0.3683  0.7642
 3655TIP3   OH232455   4.892   1.095  13.135 -0.5070  0.5330  0.3034
 3655TIP3    H132456   4.959   1.121  13.072 -0.3734 -0.3781  0.0592
 3655TIP3    H232457   4.824   1.054  13.083  0.0065 -1.0413  0.8243
 3656TIP3   OH232458   4.964   3.409  12.190 -0.1832  0.2677  0.0912
 3656TIP3    H132459   5.029   3.406  12.261  0.7811 -0.2953 -0.7958
 3656TIP3    H232460   4.896   3.347  12.218  0.5213 -0.4728  0.2322
 3657TIP3   OH232461   3.537   5.768  11.689  0.3971 -0.1857  0.5217
 3657TIP3    H132462   3.494   5.684  11.674 -1.8287  0.9080  0.5104
 3657TIP3    H232463   3.523   5.785  11.782 -0.7505  0.9969  0.1480
 3658TIP3   OH232464   3.524   5.050   0.776 -0.5477 -0.1118  0.3116
 3658TIP3    H132465   3.473   5.111   0.722  0.8287  0.1863 -0.7109
 3658TIP3    H232466   3.506   4.964   0.738 -2.8327 -0.4907  2.0235
 3659TIP3   OH232467   3.957   0.178  14.528 -0.0558  0.0054 -0.3819
 3659TIP3    H132468   3.907   0.105  14.492  0.1057  0.2211 -1.0577
 3659TIP3    H232469   4.013   0.137  14.595 -1.4251 -0.1638  0.6976
 3660TIP3   OH232470   6.868   0.287  10.211  0.1478 -0.1740  0.4446
 3660TIP3    H132471   6.789   0.248  10.172 -0.3011 -1.1919  2.2328
 3660TIP3    H232472   6.938   0.265  10.150 -0.6435 -1.0226 -0.1908
 3661TIP3   OH232473   6.508   6.661  10.832 -0.0332 -0.1425  0.2953
 3661TIP3    H132474   6.508   6.621  10.745 -0.6749  1.4432 -0.4753
 3661TIP3    H232475   6.566   6.605  10.884  2.1239  0.0407 -1.7269
 3662TIP3   OH232476   1.313   2.994  13.764 -0.1076 -0.1365 -0.1904
 3662TIP3    H132477   1.235   3.001  13.709  0.3657  0.4175 -0.8165
 3662TIP3    H232478   1.324   3.081  13.802  0.2442 -0.1917 -0.1607
 3663TIP3   OH232479   1.687   1.219  13.032  0.4422 -0.5060 -0.6148
 3663TIP3    H132480   1.649   1.154  13.090 -1.8158  1.7719  0.6344
 3663TIP3    H232481   1.782   1.208  13.043  0.1263 -2.7093  0.4651
 3664TIP3   OH232482   5.931   0.595   1.942 -0.0398  0.3554  0.6004
 3664TIP3    H132483   5.934   0.660   1.872  1.8512  1.0766  1.2683
 3664TIP3    H232484   5.863   0.534   1.916  1.5089 -0.2290 -2.5824
 3665TIP3   OH232485   5.308   0.066  12.987 -0.1436  0.0834 -0.4259
 3665TIP3    H132486   5.269   0.019  12.914 -0.9923  0.4342 -0.2060
 3665TIP3    H232487   5.274   0.022  13.065  2.2802 -1.5651 -0.1881
 3666TIP3   OH232488   6.711   3.461   0.902  0.2755 -0.1827  0.0091
 3666TIP3    H132489   6.719   3.395   0.833 -0.8686 -0.8192  0.4514
 3666TIP3    H232490   6.620   3.489   0.898 -0.9033 -2.8015  3.4626
 3667TIP3   OH232491   3.127   6.541  14.026 -0.6352 -0.0507  0.0376
 3667TIP3    H132492   3.124   6.459  13.976 -0.6522  0.0933 -0.1983
 3667TIP3    H232493   3.040   6.549  14.065 -0.3255 -0.6583  0.8920
 3668TIP3   OH232494   3.232   7.159   1.532 -0.5440 -0.0031 -0.0959
 3668TIP3    H132495   3.223   7.254   1.524 -0.2704  0.1525  1.2046
 3668TIP3    H232496   3.235   7.143   1.626 -0.3255 -1.2849 -0.3005
 3669TIP3   OH232497   4.390   3.522  15.045  0.5725  0.0571  0.2043
 3669TIP3    H132498   4.346   3.460  14.987 -0.7897  1.1573  0.0101
 3669TIP3    H232499   4.473   3.479  15.068  0.6231 -0.8957 -1.6146
 3670TIP3   OH232500   0.724   1.130  14.581 -0.2456  0.0872 -0.0954
 3670TIP3    H132501   0.704   1.108  14.672  1.1339  0.2410  0.2664
 3670TIP3    H232502   0.645   1.106  14.533 -0.3480 -1.7539  0.8796
 3671TIP3   OH232503   5.658   6.665  10.605  0.3146  0.0818  0.4439
 3671TIP3    H132504   5.574   6.709  10.617 -0.6256 -1.1746 -1.0844
 3671TIP3    H232505   5.644   6.576  10.636  1.1022 -0.1307  0.2215
 3672TIP3   OH232506   6.816   3.349  10.266  0.5374 -0.0702  0.3051
 3672TIP3    H132507   6.884   3.347  10.199  0.1903  1.4315 -0.1272
 3672TIP3    H232508   6.836   3.275  10.323  1.9502 -0.2355 -0.3738
 3673TIP3   OH232509   2.415   2.571  14.689 -0.0903  0.3046  0.0066
 3673TIP3    H132510   2.464   2.490  14.683  0.4108  0.6589 -1.0082
 3673TIP3    H232511   2.449   2.615  14.766  0.8819  0.3367 -0.4285
 3674TIP3   OH232512   1.697   6.854  15.704 -0.5350  0.4657 -0.0148
 3674TIP3    H132513   1.752   6.776  15.716 -2.2870 -0.6790  0.9284
 3674TIP3    H232514   1.626   6.825  15.647 -0.3153  1.8746 -1.0595
 3675TIP3   OH232515   3.653   0.922   2.187 -0.7600 -0.0394  0.0471
 3675TIP3    H132516   3.699   0.966   2.115 -1.8900  0.9228 -0.0998
 3675TIP3    H232517   3.687   0.964   2.266 -0.9823  0.2907 -0.0317
 3676TIP3   OH232518   2.086   3.791   0.155  0.1481 -0.8184 -0.1214
 3676TIP3    H132519   2.067   3.850   0.082 -1.3873 -0.9378  0.1459
 3676TIP3    H232520   2.013   3.803   0.215  1.1935 -1.0077  1.2287
 3677TIP3   OH232521   3.162   1.586  10.045 -0.3863 -0.1086  0.3507
 3677TIP3    H132522   3.197   1.652   9.985 -1.2966 -0.1798 -0.2730
 3677TIP3    H232523   3.230   1.576  10.112  0.6748 -0.0471 -0.6769
 3678TIP3   OH232524   7.046   5.323  14.888  0.2224 -0.0960  0.8334
 3678TIP3    H132525   7.114   5.341  14.953  1.0074 -0.5412  0.1657
 3678TIP3    H232526   7.092   5.277  14.818  0.0674  2.8558 -1.4022
 3679TIP3   OH232527   3.281   3.187   1.578 -0.2531 -0.1361  0.5645
 3679TIP3    H132528   3.361   3.134   1.582 -0.9150 -1.2139  0.0512
 3679TIP3    H232529   3.228   3.157   1.652 -0.7973 -0.4808  0.0455
 3680TIP3   OH232530   1.195   6.799   5.206  0.1608 -0.0023  0.4177
 3680TIP3    H132531   1.166   6.733   5.143  1.6302 -0.2700  0.0048
 3680TIP3    H232532   1.208   6.878   5.154 -1.5255  0.6434  0.8997
 3681TIP3   OH232533   3.539   4.732  11.794 -0.0559 -0.2367  0.1243
 3681TIP3    H132534   3.593   4.655  11.776  0.9776  0.8499 -1.8320
 3681TIP3    H232535   3.509   4.760  11.708 -2.1728  0.3606  0.9965
 3682TIP3   OH232536   5.095   5.906   0.742  0.3562  0.7538  0.2081
 3682TIP3    H132537   5.024   5.941   0.688  0.4962  0.8786  0.1040
 3682TIP3    H232538   5.051   5.852   0.807  0.2673 -0.5487 -0.8897
 3683TIP3   OH232539   2.272   6.621  13.431  0.6005 -0.5195  0.3951
 3683TIP3    H132540   2.191   6.654  13.393  0.8507 -0.0558  0.2559
 3683TIP3    H232541   2.247   6.591  13.518  0.7236  1.9036  1.3343
 3684TIP3   OH232542   5.231   5.157   2.706  0.1015 -0.3343 -0.6236
 3684TIP3    H132543   5.226   5.073   2.751  0.3530 -0.4114 -0.7412
 3684TIP3    H232544   5.244   5.221   2.776 -2.1289 -0.1448 -0.2957
 3685TIP3   OH232545   0.475   6.080  10.364 -0.0710  0.1163  0.3250
 3685TIP3    H132546   0.522   5.999  10.344  1.5205  0.7794  1.2379
 3685TIP3    H232547   0.446   6.068  10.454  1.0318  0.9344  0.8062
 3686TIP3   OH232548   0.917   1.312  12.236 -0.0512  0.1039  0.4029
 3686TIP3    H132549   0.822   1.307  12.241 -0.0327 -2.6009 -0.2392
 3686TIP3    H232550   0.935   1.315  12.142  0.5071  0.1704  0.5103
 3687TIP3   OH232551   4.757   4.734   3.161  0.3425  0.1755 -0.2494
 3687TIP3    H132552   4.757   4.803   3.227 -0.4105 -0.4838  0.4632
 3687TIP3    H232553   4.676   4.686   3.178 -0.7176  0.9521 -2.6640
 3688TIP3   OH232554   2.986   2.666  14.544 -0.2242  0.2848  0.2370
 3688TIP3    H132555   2.999   2.572  14.538  1.1691  0.5013 -4.9997
 3688TIP3    H232556   3.074   2.702  14.560 -0.5065  0.7984  0.6985
 3689TIP3   OH232557   3.388   5.533  11.641 -0.3509 -0.3125  0.5753
 3689TIP3    H132558   3.325   5.581  11.695  0.1137 -0.7678  1.5358
 3689TIP3    H232559   3.388   5.444  11.676 -3.0115 -1.8120 -2.7047
 3690TIP3   OH232560   0.590   5.499  11.720  0.2890  0.1883  0.3133
 3690TIP3    H132561   0.541   5.581  11.714  1.1425  0.6942  0.1568
 3690TIP3    H232562   0.678   5.521  11.689 -0.0743 -1.3484 -2.0207
 3691TIP3   OH232563   2.835   2.243  11.300  0.2149  0.1256 -0.2904
 3691TIP3    H132564   2.894   2.289  11.361  1.3780 -0.5597 -0.8600
 3691TIP3    H232565   2.760   2.217  11.353 -0.3200  2.3381  0.1398
 3692TIP3   OH232566   5.102   3.399  11.944  0.1858 -0.1214 -0.8242
 3692TIP3    H132567   5.142   3.481  11.914  1.3374  0.4091  1.8659
 3692TIP3    H232568   5.065   3.421  12.030 -2.1396 -1.7172 -1.3345
 3693TIP3   OH232569   1.031   5.281  12.868  0.6685 -0.3409  0.7995
 3693TIP3    H132570   1.002   5.371  12.883  0.5805 -0.4385  1.2142
 3693TIP3    H232571   0.995   5.231  12.941 -0.4829 -0.9673 -0.1436
 3694TIP3   OH232572   3.495   0.438   1.277 -0.0030 -0.9657 -0.0075
 3694TIP3    H132573   3.554   0.415   1.205  1.3456  1.0340  0.3666
 3694TIP3    H232574   3.544   0.416   1.356 -0.9595 -1.9571  0.3247
 3695TIP3   OH232575   5.302   2.552   3.867  0.2605 -0.0061  0.1892
 3695TIP3    H132576   5.232   2.524   3.927  0.8895  1.1706  1.5297
 3695TIP3    H232577   5.368   2.591   3.924  1.5134 -0.0734 -1.1672
 3696TIP3   OH232578   5.520   0.980  12.717 -0.2686 -0.2429  0.4516
 3696TIP3    H132579   5.596   1.023  12.677 -0.5513  0.2689  0.4425
 3696TIP3    H232580   5.449   1.043  12.704 -0.7539 -0.8293  0.2235
 3697TIP3   OH232581   0.059   6.481  13.387  0.5019  0.7200 -0.3377
 3697TIP3    H132582   0.081   6.412  13.325 -0.9635 -0.4225  0.3713
 3697TIP3    H232583   0.025   6.553  13.333  0.2234  0.1478 -0.9291
 3698TIP3   OH232584   4.093   2.854   1.798  0.1882  0.2398  0.0202
 3698TIP3    H132585   4.017   2.876   1.851  1.2599 -0.3717  1.8806
 3698TIP3    H232586   4.094   2.759   1.796  1.7387  0.1932  1.3404
 3699TIP3   OH232587   1.820   5.007  14.125 -0.0844  0.2475 -0.1531
 3699TIP3    H132588   1.871   4.945  14.178 -1.0274 -1.2832 -0.9780
 3699TIP3    H232589   1.787   5.071  14.189 -0.7185 -1.2290  1.0558
 3700TIP3   OH232590   4.205   1.444  14.060  0.1057 -0.3788  0.3532
 3700TIP3    H132591   4.128   1.406  14.102  0.0432 -0.6073  0.0296
 3700TIP3    H232592   4.268   1.372  14.054  0.2870 -0.2311  0.4760
 3701TIP3   OH232593   2.205   5.638   5.795  0.6143 -0.0035  0.0416
 3701TIP3    H132594   2.169   5.723   5.771 -1.1330 -0.8139 -0.3367
 3701TIP3    H232595   2.279   5.627   5.735  0.6023  1.0522 -0.1946
 3702TIP3   OH232596   6.160   5.646  11.386 -0.1274  0.5645  0.4709
 3702TIP3    H132597   6.200   5.649  11.473 -0.2945 -0.4766  0.5905
 3702TIP3    H232598   6.066   5.635  11.403 -0.0226 -0.9095  0.1555
 3703TIP3   OH232599   5.311   3.184  14.295  0.6146 -0.2150 -0.1980
 3703TIP3    H132600   5.347   3.272  14.306 -0.5968  0.1016  1.6314
 3703TIP3    H232601   5.219   3.199  14.276  0.3215 -1.0833  0.4995
 3704TIP3   OH232602   4.101   2.103  11.678  0.2669 -0.1309 -0.3265
 3704TIP3    H132603   4.072   2.182  11.631 -2.1590 -1.4668 -1.2990
 3704TIP3    H232604   4.159   2.136  11.747  1.0547  2.2691 -1.9886
 3705TIP3   OH232605   4.899   6.160  11.992 -1.0520 -1.2066  0.2044
 3705TIP3    H132606   4.974   6.110  11.959 -0.6440 -0.2756 -0.3107
 3705TIP3    H232607   4.834   6.154  11.923 -0.9221 -0.8633  0.0481
 3706TIP3   OH232608   6.925   5.829  12.130 -0.2488 -0.4779 -0.0529
 3706TIP3    H132609   6.982   5.881  12.187 -0.6817  1.8252 -1.6070
 3706TIP3    H232610   6.837   5.857  12.152 -0.3839  1.4271 -2.6153
 3707TIP3   OH232611   5.505   1.143   1.350  0.2695 -0.6812 -0.5193
 3707TIP3    H132612   5.573   1.089   1.390  2.9747  1.7164 -1.5611
 3707TIP3    H232613   5.527   1.146   1.257 -1.2411  0.1948 -0.8882
 3708TIP3   OH232614   3.949   4.784  11.752 -0.1847 -0.0381  0.3759
 3708TIP3    H132615   4.042   4.778  11.728 -0.7113 -1.8218 -1.5056
 3708TIP3    H232616   3.925   4.693  11.773 -1.6489  0.3053  0.2515
 3709TIP3   OH232617   3.236   1.148  13.264 -0.3285 -0.1507 -0.4359
 3709TIP3    H132618   3.176   1.074  13.259  0.2298 -0.6082 -0.5203
 3709TIP3    H232619   3.225   1.194  13.181 -0.3668 -0.3888 -0.5637
 3710TIP3   OH232620   0.494   1.557   3.692 -0.1194 -0.0429  0.2944
 3710TIP3    H132621   0.544   1.530   3.769  0.0848 -0.6006 -0.0259
 3710TIP3    H232622   0.478   1.651   3.705  0.2973 -0.0380  0.7959
 3711TIP3   OH232623   5.412   3.489  12.265  0.4441  0.1800  0.2705
 3711TIP3    H132624   5.415   3.584  12.255 -1.0213  0.2970  0.6011
 3711TIP3    H232625   5.484   3.456  12.212 -1.1419  1.2943 -2.8412
 3712TIP3   OH232626   3.031   6.636   2.877  0.7167 -0.1866  0.0050
 3712TIP3    H132627   3.111   6.602   2.917  0.1339 -0.4332  1.0047
 3712TIP3    H232628   3.058   6.666   2.790  1.7132 -1.0538  0.0018
 3713TIP3   OH232629   1.916   4.463  12.308  0.2052  0.8362 -0.3774
 3713TIP3    H132630   1.938   4.425  12.223  2.2404 -0.6821  0.7406
 3713TIP3    H232631   1.968   4.544  12.313  0.0440  0.9540 -0.5876
 3714TIP3   OH232632   6.124   0.893   5.269 -0.2893 -0.7053 -0.0675
 3714TIP3    H132633   6.116   0.799   5.282  0.3686 -0.6368  0.9120
 3714TIP3    H232634   6.155   0.927   5.353  0.0007  0.3149 -0.5662
 3715TIP3   OH232635   0.494   2.551  10.682 -0.4943  0.1361  0.3819
 3715TIP3    H132636   0.527   2.628  10.730 -1.8271  0.2244  1.2222
 3715TIP3    H232637   0.573   2.510  10.646  0.5668  0.2797  2.3470
 3716TIP3   OH232638   2.408   5.564  14.196  0.7294 -0.0088 -0.3174
 3716TIP3    H132639   2.384   5.607  14.278  1.5410  1.0608 -0.6241
 3716TIP3    H232640   2.483   5.614  14.163  2.0278 -1.9393 -0.4645
 3717TIP3   OH232641   0.567   3.769  11.436  0.0051 -0.2747 -0.3667
 3717TIP3    H132642   0.659   3.745  11.431  0.1109  0.2755 -1.3419
 3717TIP3    H232643   0.529   3.733  11.355 -0.2399  1.0651 -0.8679
 3718TIP3   OH232644   2.531   1.266  15.234  0.1906 -0.1976  0.4128
 3718TIP3    H132645   2.501   1.353  15.211 -1.1874 -0.8866 -0.5032
 3718TIP3    H232646   2.593   1.243  15.165 -1.1803 -0.8160 -0.6577
 3719TIP3   OH232647   1.692   4.891  10.851  0.0036  0.8590 -0.3033
 3719TIP3    H132648   1.609   4.916  10.891  1.1256 -0.6552  3.3621
 3719TIP3    H232649   1.752   4.962  10.876  0.6497  0.0624  0.4533
 3720TIP3   OH232650   5.919   2.681  14.584  0.2025 -0.0726 -0.4665
 3720TIP3    H132651   5.960   2.693  14.498 -1.7195  3.0025 -1.1135
 3720TIP3    H232652   5.877   2.596  14.578  0.1779  0.0251 -2.5757
 3721TIP3   OH232653   6.533   0.899  14.534  0.8950  0.3210  0.4706
 3721TIP3    H132654   6.520   0.815  14.490 -0.9841  0.4537  0.6747
 3721TIP3    H232655   6.600   0.943  14.482  0.9262 -0.7527 -0.4408
 3722TIP3   OH232656   1.662   0.347  10.730 -0.1113 -0.2511  0.1214
 3722TIP3    H132657   1.657   0.405  10.654 -0.5938 -0.7351 -0.2251
 3722TIP3    H232658   1.632   0.401  10.803 -0.9462 -0.1695 -0.2638
 3723TIP3   OH232659   0.713   1.701   1.237 -0.0781  0.2852 -0.6075
 3723TIP3    H132660   0.732   1.620   1.284  0.4850  0.3883 -0.6475
 3723TIP3    H232661   0.666   1.755   1.302 -0.0744  0.0964 -0.4458
 3724TIP3   OH232662   5.516   1.333   3.845  0.4462  0.0078  0.5921
 3724TIP3    H132663   5.482   1.250   3.880 -0.0076  0.7222  1.9139
 3724TIP3    H232664   5.582   1.360   3.910  0.2354  0.9244  0.4334
 3725TIP3   OH232665   3.263   1.622  11.884 -0.6651  0.3142  0.3109
 3725TIP3    H132666   3.247   1.554  11.818  0.1975  0.4164 -0.0267
 3725TIP3    H232667   3.199   1.690  11.865  0.5264  1.0344 -1.4265
 3726TIP3   OH232668   4.228   0.761  13.294  0.1778 -0.7842  0.7159
 3726TIP3    H132669   4.233   0.676  13.339 -1.2492 -0.0791  2.3247
 3726TIP3    H232670   4.179   0.742  13.214  1.9379 -1.8904 -0.1682
 3727TIP3   OH232671   2.998   0.932  11.571 -0.3318 -0.2498  0.4445
 3727TIP3    H132672   3.069   0.996  11.575  0.1441 -0.7402  0.0281
 3727TIP3    H232673   3.016   0.881  11.492 -1.8556  0.4199 -0.3859
 3728TIP3   OH232674   7.154   0.956  14.985  0.2164  0.3900  0.2957
 3728TIP3    H132675   7.207   0.999  15.052  0.9167 -0.7323  0.4983
 3728TIP3    H232676   7.213   0.946  14.910 -0.1266  0.3643  0.0254
 3729TIP3   OH232677   6.171   3.149  13.851  0.3677 -0.5123  0.1415
 3729TIP3    H132678   6.203   3.226  13.805 -3.6501  0.7552 -0.9108
 3729TIP3    H232679   6.171   3.174  13.944  0.4048  0.2166 -0.0553
 3730TIP3   OH232680   3.305   3.566  12.121 -0.5826  0.1125  0.2424
 3730TIP3    H132681   3.314   3.656  12.092  0.6604 -0.4525 -1.2796
 3730TIP3    H232682   3.255   3.523  12.051  1.6478 -1.0699 -0.7310
 3731TIP3   OH232683   2.394   2.759   0.921 -0.3042  0.2359  0.2364
 3731TIP3    H132684   2.457   2.773   0.850 -3.2358  3.6625 -1.9982
 3731TIP3    H232685   2.318   2.720   0.877 -1.3993  0.3764  1.9474
 3732TIP3   OH232686   3.616   0.399  13.498  0.4296  0.4820  0.2589
 3732TIP3    H132687   3.703   0.361  13.494 -0.0336 -0.5192 -2.1779
 3732TIP3    H232688   3.574   0.356  13.572  1.1915 -0.9438 -0.0955
 3733TIP3   OH232689   4.645   1.547  12.396  0.4727  0.1525  0.0921
 3733TIP3    H132690   4.681   1.603  12.327 -3.6740 -0.2246 -2.7417
 3733TIP3    H232691   4.621   1.607  12.466  1.2538  1.1286 -0.4572
 3734TIP3   OH232692   1.659   0.668  12.616  0.0378 -0.2939 -0.4614
 3734TIP3    H132693   1.616   0.751  12.596 -0.4475 -0.7037 -1.1649
 3734TIP3    H232694   1.747   0.676  12.578 -0.0159 -0.1077 -0.5451
 3735TIP3   OH232695   6.683   3.892  12.660 -0.1387  0.1222 -0.0776
 3735TIP3    H132696   6.593   3.924  12.653  0.0929  0.5114 -1.8237
 3735TIP3    H232697   6.683   3.839  12.739 -1.3809  1.7283  1.0681
 3736TIP3   OH232698   6.008   5.619  10.978  0.1350 -0.0963  0.3266
 3736TIP3    H132699   5.988   5.573  10.897 -0.5616  1.2377 -0.2807
 3736TIP3    H232700   5.932   5.604  11.034 -0.0242  0.1865  0.1866
 3737TIP3   OH232701   3.145   2.202  14.471  0.2554  0.3409 -0.8233
 3737TIP3    H132702   3.121   2.123  14.520  0.2673  1.0099  0.2933
 3737TIP3    H232703   3.068   2.220  14.416  0.2081 -0.3760 -1.0067
 3738TIP3   OH232704   2.471   0.234   1.760 -0.1743 -0.2590  0.1150
 3738TIP3    H132705   2.416   0.178   1.814 -0.2228  1.2381  1.7041
 3738TIP3    H232706   2.560   0.222   1.794 -0.1659  0.5029  0.3897
 3739TIP3   OH232707   4.198   4.356   9.878  0.0682  0.1459  0.2527
 3739TIP3    H132708   4.124   4.363   9.818 -0.5703 -0.6076  0.9317
 3739TIP3    H232709   4.247   4.280   9.846  0.9111  1.0125 -0.5665
 3740TIP3   OH232710   5.983   5.055  10.598  0.1110 -0.2758 -0.1389
 3740TIP3    H132711   6.031   5.004  10.534  2.3362  0.7045  0.6400
 3740TIP3    H232712   5.973   5.142  10.558  0.7988  0.1069  0.4945
 3741TIP3   OH232713   1.574   3.577  13.913  0.9734  0.0621  0.8988
 3741TIP3    H132714   1.604   3.665  13.934  0.4498  0.5861 -0.4410
 3741TIP3    H232715   1.487   3.570  13.952  0.7493  0.3810  0.4663
 3742TIP3   OH232716   5.081   1.787  11.007  0.0543 -0.1585  0.0409
 3742TIP3    H132717   4.986   1.792  10.995  0.2115  0.0694 -1.1702
 3742TIP3    H232718   5.097   1.837  11.088 -0.7885  0.3102 -0.0729
 3743TIP3   OH232719   1.338   7.140   1.088  0.3103 -0.1174  0.5896
 3743TIP3    H132720   1.297   7.225   1.104 -0.0978 -0.1452 -0.2651
 3743TIP3    H232721   1.404   7.132   1.156  0.6346  1.0703  0.4295
 3744TIP3   OH232722   1.561   5.228  13.160 -0.4433 -0.0307 -0.3444
 3744TIP3    H132723   1.481   5.281  13.162 -0.3542  0.1013  1.4492
 3744TIP3    H232724   1.533   5.142  13.191  0.2225  0.2283  1.0482
 3745TIP3   OH232725   6.885   2.015  14.965 -0.3204  0.0424  0.1987
 3745TIP3    H132726   6.881   2.064  15.046 -0.3755 -1.0485  0.8781
 3745TIP3    H232727   6.811   1.954  14.970  0.8940 -1.4964  0.3326
 3746TIP3   OH232728   0.667   2.848  10.515  0.0278  0.1966 -0.0379
 3746TIP3    H132729   0.749   2.832  10.562  1.6765  3.9342 -1.2299
 3746TIP3    H232730   0.688   2.827  10.424 -1.0883 -0.9213 -0.0523
 3747TIP3   OH232731   3.017   6.324   1.612  0.2068 -0.1065 -0.0151
 3747TIP3    H132732   2.992   6.242   1.570 -1.6295 -0.1527  1.0519
 3747TIP3    H232733   2.944   6.384   1.594  0.8223  0.8254  0.4807
 3748TIP3   OH232734   3.727   4.010  12.776 -0.2405  0.1220 -0.1657
 3748TIP3    H132735   3.715   4.011  12.681 -0.2395 -0.9282 -0.1828
 3748TIP3    H232736   3.703   4.099  12.804 -1.5852  0.0537 -0.9839
 3749TIP3   OH232737   0.018   6.521  10.802 -0.2808 -0.2145  0.1704
 3749TIP3    H132738   0.011   6.596  10.742 -0.8212  1.3379  2.0731
 3749TIP3    H232739   0.021   6.560  10.889 -1.1502 -2.4317  1.2789
 3750TIP3   OH232740   1.410   5.775  10.213  0.7219  0.5116 -0.0423
 3750TIP3    H132741   1.427   5.685  10.243 -1.9857  0.1021  0.5550
 3750TIP3    H232742   1.440   5.776  10.122  2.3542 -0.4491  0.4386
 3751TIP3   OH232743   0.006   2.420   0.008  0.2761  0.3354 -0.2182
 3751TIP3    H132744  -0.019   2.448  -0.081  1.4163  0.1356 -0.6171
 3751TIP3    H232745   0.028   2.327  -0.002  1.0848  0.4885  0.1315
 3752TIP3   OH232746   0.784   1.031  11.541 -0.4825  0.2748 -0.4582
 3752TIP3    H132747   0.854   1.051  11.479  0.5965 -0.8696  0.3316
 3752TIP3    H232748   0.828   1.029  11.627 -1.3691 -0.9111  0.0004
 3753TIP3   OH232749   5.554   2.740  11.223  0.0569 -0.1070 -0.8198
 3753TIP3    H132750   5.611   2.809  11.255  1.1344 -1.0399 -0.6707
 3753TIP3    H232751   5.600   2.702  11.149 -0.0885 -1.2491 -0.3478
 3754TIP3   OH232752   7.079   6.332  13.566 -0.3506 -0.2723  0.0250
 3754TIP3    H132753   7.051   6.402  13.508  0.0760  1.2181  1.5251
 3754TIP3    H232754   7.143   6.373  13.624 -1.5730 -1.3164  2.2768
 3755TIP3   OH232755   1.659   1.478  11.075  0.3931 -0.2821 -0.0987
 3755TIP3    H132756   1.735   1.421  11.063  0.5298 -0.3034  0.8087
 3755TIP3    H232757   1.618   1.482  10.988 -1.2905 -4.1383  0.3092
 3756TIP3   OH232758   3.875   3.209  14.900  0.5793  0.0380 -0.9609
 3756TIP3    H132759   3.883   3.138  14.837  1.0485  0.5903 -1.5376
 3756TIP3    H232760   3.880   3.289  14.847  2.5930  0.5624 -0.0763
 3757TIP3   OH232761   3.977   3.621  12.614 -0.1513  0.4180  0.2938
 3757TIP3    H132762   3.939   3.668  12.688  0.2148  1.9879 -0.4841
 3757TIP3    H232763   4.036   3.683  12.573  0.0453 -0.5905 -1.0247
 3758TIP3   OH232764   5.743   0.386   2.195  0.7711  0.4271  0.4991
 3758TIP3    H132765   5.727   0.307   2.143  1.1367  1.5130 -1.3617
 3758TIP3    H232766   5.828   0.372   2.236 -0.0677 -0.9641  1.8944
 3759TIP3   OH232767   5.488   0.722  15.268  0.0554 -0.7779 -0.2716
 3759TIP3    H132768   5.461   0.663  15.339 -0.8315  0.4752  0.4598
 3759TIP3    H232769   5.559   0.774  15.305 -0.6102  0.0884 -0.1787
 3760TIP3   OH232770   1.519   4.136  15.008  0.4929  0.3303 -0.1560
 3760TIP3    H132771   1.479   4.124  14.921 -0.5712  0.5088  0.2948
 3760TIP3    H232772   1.585   4.203  14.994 -0.6562  1.4252 -0.5613
 3761TIP3   OH232773   6.440   3.902  15.240 -0.1833 -0.8983 -0.1987
 3761TIP3    H132774   6.399   3.906  15.154 -0.3342  0.2854 -0.0902
 3761TIP3    H232775   6.534   3.905  15.223 -0.1953 -1.2288 -0.3372
 3762TIP3   OH232776   2.847   3.912  12.086  0.0913  0.2905  0.0764
 3762TIP3    H132777   2.914   3.980  12.094  0.4319 -0.0144 -0.1796
 3762TIP3    H232778   2.794   3.940  12.011  0.2651  0.2453 -0.0644
 3763TIP3   OH232779   7.140   5.579  12.949 -0.7759 -0.1196  0.3908
 3763TIP3    H132780   7.140   5.504  13.008  0.6175 -0.8464 -0.4811
 3763TIP3    H232781   7.124   5.542  12.863 -0.3370  0.6089 -0.0172
 3764TIP3   OH232782   1.042   4.878  13.619 -0.2085 -0.1743  0.2179
 3764TIP3    H132783   0.972   4.843  13.564  0.8430  0.6896 -1.7865
 3764TIP3    H232784   1.122   4.845  13.579  0.5932 -0.5387  2.0148
 3765TIP3   OH232785   6.550   3.856   0.694  0.0644  0.3653  0.1966
 3765TIP3    H132786   6.507   3.868   0.610 -0.1489 -0.7011  0.1408
 3765TIP3    H232787   6.625   3.916   0.691 -0.6116  1.2062 -0.2617
 3766TIP3   OH232788   2.763   6.464   9.682  0.1373  0.1451  0.4528
 3766TIP3    H132789   2.812   6.515   9.747  1.1711 -0.9081  0.5329
 3766TIP3    H232790   2.764   6.375   9.715 -0.2167 -0.2241 -0.5026
 3767TIP3   OH232791   3.328   4.073   9.773  0.3755  0.2667 -0.9248
 3767TIP3    H132792   3.398   4.016   9.743  1.1699  0.9666 -0.4375
 3767TIP3    H232793   3.326   4.144   9.709 -0.0875  0.1107 -1.0929
 3768TIP3   OH232794   2.615   3.741  13.405  0.3640  0.2484  0.4896
 3768TIP3    H132795   2.542   3.684  13.428  0.8128  0.1137  1.6696
 3768TIP3    H232796   2.644   3.777  13.489  2.4029 -0.6184  0.2229
 3769TIP3   OH232797   0.721   3.100  13.973 -0.1008  0.0212 -0.5136
 3769TIP3    H132798   0.633   3.065  13.962 -1.1184  1.8658  1.0105
 3769TIP3    H232799   0.714   3.192  13.946  0.8523  0.6898  1.3116
 3770TIP3   OH232800   1.129   0.226  13.906 -0.2040  0.8841  0.3579
 3770TIP3    H132801   1.182   0.154  13.872 -1.0038 -0.6122  2.1077
 3770TIP3    H232802   1.045   0.217  13.862  0.0106  1.3704 -0.1561
 3771TIP3   OH232803   5.115   4.994  15.573  0.1188 -0.2739  0.1712
 3771TIP3    H132804   5.069   5.012  15.656 -2.6064  0.1143 -1.3060
 3771TIP3    H232805   5.132   4.900  15.576  0.2730 -0.2275  1.2672
 3772TIP3   OH232806   5.347   5.877  12.188  0.3663  0.2300 -0.3859
 3772TIP3    H132807   5.426   5.831  12.161 -0.4664 -2.5852  1.5872
 3772TIP3    H232808   5.278   5.840  12.134 -0.3378 -1.0512  1.3188
 3773TIP3   OH232809   3.865   2.831  11.232  0.2856  0.3846 -0.1726
 3773TIP3    H132810   3.905   2.791  11.309  2.3045 -2.5269 -2.5240
 3773TIP3    H232811   3.921   2.906  11.212  0.2710  0.6212  0.6408
 3774TIP3   OH232812   1.940   4.720  11.599  0.1670  0.6581 -0.2616
 3774TIP3    H132813   1.917   4.729  11.692  0.8374 -0.0461 -0.0222
 3774TIP3    H232814   1.891   4.644  11.569 -0.8443  1.4764 -0.7644
 3775TIP3   OH232815   6.767   3.111  10.937  0.4771 -0.2500  0.5812
 3775TIP3    H132816   6.808   3.125  11.021  1.6161  0.9521 -0.1403
 3775TIP3    H232817   6.674   3.101  10.957  0.4910  1.6980  1.8415
 3776TIP3   OH232818   0.456   5.930   0.427  0.1082  0.0830  0.4341
 3776TIP3    H132819   0.513   6.001   0.398  1.3957 -0.5893  1.1972
 3776TIP3    H232820   0.429   5.955   0.515 -0.6827  0.3293  0.1296
 3777TIP3   OH232821   0.501   0.730  12.369 -0.2444  0.5638  0.3197
 3777TIP3    H132822   0.494   0.823  12.348 -2.2302  0.6200  1.0178
 3777TIP3    H232823   0.495   0.727  12.464  1.7091 -0.1878  0.4758
 3778TIP3   OH232824   4.155   6.261  13.869  0.2525  0.5742  0.2754
 3778TIP3    H132825   4.228   6.275  13.809 -1.2709  0.9499 -1.5948
 3778TIP3    H232826   4.150   6.166  13.880 -0.1483  0.4172 -1.1522
 3779TIP3   OH232827   3.799   0.569  13.881 -0.1875  0.3750  0.1491
 3779TIP3    H132828   3.822   0.512  13.954  1.0639  2.5944  1.6060
 3779TIP3    H232829   3.881   0.583  13.834 -0.3921  1.1789  0.0056
 3780TIP3   OH232830   7.077   6.954  12.557 -0.1216  0.2202  0.1324
 3780TIP3    H132831   7.019   6.912  12.622 -0.2559 -0.0186 -0.1376
 3780TIP3    H232832   7.161   6.910  12.568 -0.6072 -1.0908 -1.0581
 3781TIP3   OH232833   2.882   6.436   5.022  0.2214  0.3263 -0.3402
 3781TIP3    H132834   2.841   6.511   4.980 -1.9281  0.2835  1.4862
 3781TIP3    H232835   2.856   6.443   5.114 -0.1719 -2.7032 -0.1121
 3782TIP3   OH232836   1.540   2.292   4.963  0.2150  0.2621  0.0079
 3782TIP3    H132837   1.590   2.367   4.995 -0.8516  0.4887  1.2206
 3782TIP3    H232838   1.590   2.260   4.887  1.2508  1.5248  0.1285
 3783TIP3   OH232839   6.546   2.662  12.590  0.3220  0.3550  1.1481
 3783TIP3    H132840   6.546   2.569  12.615  0.5709 -0.1108 -0.4620
 3783TIP3    H232841   6.480   2.702  12.646 -2.9558 -1.6391 -0.9271
 3784TIP3   OH232842   6.394   2.966  13.599 -0.5875 -0.4688 -0.1385
 3784TIP3    H132843   6.302   2.991  13.601 -0.5384 -0.3155  0.9465
 3784TIP3    H232844   6.441   3.042  13.634 -0.1440 -0.8843  0.1891
 3785TIP3   OH232845   2.444   1.531  13.393 -0.2934 -0.7577  0.3129
 3785TIP3    H132846   2.469   1.551  13.303  1.2043 -0.0560  0.8558
 3785TIP3    H232847   2.519   1.560  13.446 -0.8056 -1.8940  1.7176
 3786TIP3   OH232848   1.229   6.590  11.295 -0.3668  1.0474  0.0234
 3786TIP3    H132849   1.178   6.669  11.281  0.3470  1.4683 -0.3016
 3786TIP3    H232850   1.236   6.551  11.208 -0.1653  0.9771  0.0712
 3787TIP3   OH232851   6.791   6.316  13.251  0.9376 -0.2007 -0.3276
 3787TIP3    H132852   6.717   6.284  13.303  1.6055 -0.2302  0.6114
 3787TIP3    H232853   6.821   6.395  13.296  1.7744 -0.4425 -0.4477
 3788TIP3   OH232854   6.495   3.931  11.391  0.1403 -0.0096 -0.4657
 3788TIP3    H132855   6.461   3.887  11.312 -1.2191  2.0343 -1.1013
 3788TIP3    H232856   6.543   3.863  11.437 -0.3047 -1.6728 -2.3064
 3789TIP3   OH232857   5.930   4.792  11.897 -0.2478 -0.6788 -0.2253
 3789TIP3    H132858   5.898   4.774  11.986 -0.1479 -0.2086 -0.0925
 3789TIP3    H232859   6.012   4.839  11.911  0.3616 -1.6155 -0.5661
 3790TIP3   OH232860   6.855   1.215  15.053  0.0954  0.2162 -0.0752
 3790TIP3    H132861   6.812   1.272  15.117 -0.2981  0.1285 -0.2544
 3790TIP3    H232862   6.898   1.275  14.992  0.6008  0.2967  0.3544
 3791TIP3   OH232863   2.488   2.640   1.426 -0.0914 -0.2042 -0.3532
 3791TIP3    H132864   2.428   2.572   1.396 -0.0147  0.0835 -1.2114
 3791TIP3    H232865   2.509   2.690   1.346 -3.6357  3.6768  0.8022
 3792TIP3   OH232866   5.363   4.822  10.776 -0.0741 -0.4412 -0.6827
 3792TIP3    H132867   5.448   4.843  10.813  0.1549 -1.3396 -0.6871
 3792TIP3    H232868   5.318   4.907  10.769  0.4053 -0.0914  0.3179
 3793TIP3   OH232869   4.582   1.863  10.210  0.1187 -0.3547 -0.5840
 3793TIP3    H132870   4.582   1.818  10.295  0.2768 -0.2956 -0.5529
 3793TIP3    H232871   4.494   1.901  10.204 -0.8476 -2.5547 -1.6056
 3794TIP3   OH232872   5.555   5.410   4.969 -0.0698 -0.3868  0.3085
 3794TIP3    H132873   5.500   5.390   5.045 -0.0873 -0.4451  0.2802
 3794TIP3    H232874   5.609   5.332   4.957 -0.8045 -0.7925 -0.3868
 3795TIP3   OH232875   4.313   2.582  14.326 -0.3419 -0.1065 -0.4647
 3795TIP3    H132876   4.277   2.670  14.319  2.0695  0.9312 -0.6924
 3795TIP3    H232877   4.406   2.595  14.341  0.2529 -2.6290 -1.4143
 3796TIP3   OH232878   3.927   2.834  11.837  0.1673  0.8555 -0.5017
 3796TIP3    H132879   3.891   2.864  11.753  1.4723  3.8679 -0.1373
 3796TIP3    H232880   3.857   2.851  11.900 -0.4502 -0.4589 -0.8161
 3797TIP3   OH232881   4.243   5.370  11.489 -0.6380 -0.2667 -0.4495
 3797TIP3    H132882   4.151   5.343  11.490 -0.4435 -0.9338  0.8755
 3797TIP3    H232883   4.275   5.352  11.577  0.3843  1.3221 -0.4594
 3798TIP3   OH232884   6.784   3.894  11.658 -0.0337 -0.0296 -0.1428
 3798TIP3    H132885   6.851   3.833  11.689  0.5502 -0.8917 -2.8173
 3798TIP3    H232886   6.729   3.910  11.734  1.5742 -1.5240  1.4227
 3799TIP3   OH232887   0.950   5.915   1.534 -0.0081 -0.5029  0.9033
 3799TIP3    H132888   0.891   5.945   1.466  0.5875 -1.0152  0.1446
 3799TIP3    H232889   1.031   5.963   1.519  0.3809 -1.1956  0.7514
 3800TIP3   OH232890   3.354   0.754  11.857 -0.2077  0.1664 -0.0188
 3800TIP3    H132891   3.438   0.738  11.814  0.7619 -1.4845  2.2942
 3800TIP3    H232892   3.317   0.666  11.870 -0.2425  0.5251  2.7937
 3801TIP3   OH232893   4.252   4.704  13.845 -0.5388 -0.1284  0.0345
 3801TIP3    H132894   4.262   4.727  13.938 -1.2252  0.8025 -0.1126
 3801TIP3    H232895   4.304   4.624  13.835 -0.9952 -0.6274  1.3796
 3802TIP3   OH232896   3.618   2.862   0.369  0.5455 -0.0046  0.3585
 3802TIP3    H132897   3.532   2.823   0.383 -0.1685  1.0414 -0.8776
 3802TIP3    H232898   3.651   2.881   0.457 -0.5276 -0.3136  0.8407
 3803TIP3   OH232899   3.758   4.070   0.752 -0.4318 -0.4211  0.1322
 3803TIP3    H132900   3.852   4.089   0.758 -0.0932 -1.5140 -1.1795
 3803TIP3    H232901   3.754   3.975   0.741 -1.5965 -0.2356 -1.3967
 3804TIP3   OH232902   4.396   1.914  11.975  0.2911  0.1397 -0.3295
 3804TIP3    H132903   4.312   1.880  12.008  1.2249  0.5294  2.8186
 3804TIP3    H232904   4.434   1.841  11.927 -0.4782 -1.2001  0.9895
 3805TIP3   OH232905   2.234   3.834  13.103 -0.2262 -0.2743  0.1504
 3805TIP3    H132906   2.238   3.863  13.011  2.7232  0.1980  0.3291
 3805TIP3    H232907   2.283   3.752  13.104  0.4362  0.1110  1.4001
 3806TIP3   OH232908   5.690   5.680  10.588  0.1544 -0.1046  0.2906
 3806TIP3    H132909   5.680   5.718  10.675 -0.1624  1.7227 -0.5005
 3806TIP3    H232910   5.774   5.713  10.557  0.3550 -0.9009 -0.0400
 3807TIP3   OH232911   1.452   3.887  13.757 -0.3931 -0.1041 -0.4590
 3807TIP3    H132912   1.504   3.845  13.688 -2.0328  0.8556 -2.3976
 3807TIP3    H232913   1.500   3.868  13.838  2.1659 -0.4749 -1.9336
 3808TIP3   OH232914   4.578   0.972  12.042 -0.2953  0.0412  0.0945
 3808TIP3    H132915   4.518   0.946  12.113  0.3410 -0.4409  0.4660
 3808TIP3    H232916   4.551   0.917  11.968 -0.3763 -0.1024  0.2283
 3809TIP3   OH232917   0.142   3.345  12.318 -0.4095  0.2624  0.2265
 3809TIP3    H132918   0.063   3.396  12.333 -0.5452  0.2031 -0.2581
 3809TIP3    H232919   0.118   3.283  12.249 -0.2793 -0.5277  0.8711
 3810TIP3   OH232920   1.967   4.514   0.112 -0.3743 -0.0336  0.2823
 3810TIP3    H132921   2.007   4.514   0.199  1.2826  0.5857 -0.4419
 3810TIP3    H232922   1.881   4.552   0.125 -1.1258 -2.0956  2.0331
 3811TIP3   OH232923   1.748   2.158  11.109  0.4880  0.9340 -0.2763
 3811TIP3    H132924   1.667   2.145  11.059 -0.7061 -0.3316  1.8306
 3811TIP3    H232925   1.765   2.073  11.149 -0.2507  2.4260  3.6628
 3812TIP3   OH232926   3.745   4.752  13.018  0.0401 -0.2270 -0.6844
 3812TIP3    H132927   3.780   4.675  12.974  0.5685  0.1740 -0.9761
 3812TIP3    H232928   3.810   4.773  13.086 -0.5477 -0.5753  0.0049
 3813TIP3   OH232929   4.581   3.984  10.523 -0.3261 -0.2949  0.1593
 3813TIP3    H132930   4.670   4.006  10.552  0.4771 -0.9126 -1.6787
 3813TIP3    H232931   4.539   4.068  10.506 -0.1250  0.0028  1.0633
 3814TIP3   OH232932   2.042   0.189  12.582  0.0051  0.2910 -0.2585
 3814TIP3    H132933   2.133   0.219  12.580  1.2822 -3.1646 -0.3315
 3814TIP3    H232934   2.028   0.161  12.672 -0.9540  0.6648 -0.2870
 3815TIP3   OH232935   0.725   5.150  11.394 -0.1006  0.9797  0.0714
 3815TIP3    H132936   0.684   5.222  11.441  0.6653  2.3303 -1.2259
 3815TIP3    H232937   0.683   5.151  11.308 -0.7373 -0.7461  0.3391
 3816TIP3   OH232938   4.766   5.383  12.912 -0.1056 -0.8463 -0.4969
 3816TIP3    H132939   4.858   5.401  12.893  0.3291 -2.8935 -0.5493
 3816TIP3    H232940   4.737   5.458  12.964  1.6748 -0.3149 -0.2075
 3817TIP3   OH232941   0.841   2.111   4.236  0.1432  0.4673  0.1819
 3817TIP3    H132942   0.751   2.081   4.220 -0.1342  1.3872  0.0013
 3817TIP3    H232943   0.895   2.057   4.178 -0.4066  0.6991 -0.5537
 3818TIP3   OH232944   3.667   1.363  11.263 -0.8453  0.2101 -1.1515
 3818TIP3    H132945   3.697   1.440  11.312 -1.7783  1.3371 -2.2885
 3818TIP3    H232946   3.728   1.356  11.190 -0.3068 -0.6209 -0.6426
 3819TIP3   OH232947   5.677   3.814  10.930  0.1906 -0.3228  0.4128
 3819TIP3    H132948   5.605   3.832  10.868  1.2553 -1.5434 -1.2606
 3819TIP3    H232949   5.676   3.889  10.989 -0.9430  0.8823 -1.0288
 3820TIP3   OH232950   6.244   0.607  14.784  0.5480  0.3673 -0.0240
 3820TIP3    H132951   6.339   0.609  14.770  0.1732 -0.1822 -3.3619
 3820TIP3    H232952   6.209   0.663  14.715 -1.5809  0.9025  1.4074
 3821TIP3   OH232953   5.414   0.085  10.307 -0.0979 -0.2214 -0.4778
 3821TIP3    H132954   5.414  -0.000  10.264  1.3939 -0.1230 -0.7362
 3821TIP3    H232955   5.419   0.148  10.235 -0.3693  0.0474 -0.2607
 3822TIP3   OH232956   5.685   3.743   9.954 -0.4982 -0.3937  0.6522
 3822TIP3    H132957   5.763   3.757  10.008  1.4538  0.0235 -2.0586
 3822TIP3    H232958   5.657   3.654   9.975 -0.2919  0.0009  2.8301
 3823TIP3   OH232959   6.587   3.569  11.887  0.7774 -0.6434 -0.3841
 3823TIP3    H132960   6.552   3.482  11.903  2.4659 -1.0584  1.4536
 3823TIP3    H232961   6.682   3.559  11.895  1.0845  1.1618 -1.2193
 3824TIP3   OH232962   2.883   7.072  10.242 -0.6751  0.1503 -0.7070
 3824TIP3    H132963   2.885   6.976  10.240  0.9757  0.1717 -1.9967
 3824TIP3    H232964   2.790   7.094  10.237 -1.1314 -1.3734  0.3918
 3825TIP3   OH232965   5.922   2.577   1.101 -0.6342  0.1176  0.9184
 3825TIP3    H132966   5.847   2.528   1.066 -1.6944  2.2126  0.0896
 3825TIP3    H232967   5.985   2.509   1.125 -1.9201 -1.6474 -0.3688
 3826TIP3   OH232968   6.221   3.886   9.715 -0.5160  0.0619 -0.3901
 3826TIP3    H132969   6.284   3.844   9.774 -0.7243  1.2146  0.7051
 3826TIP3    H232970   6.136   3.867   9.754 -0.6466  0.9825 -0.2054
 3827TIP3   OH232971   0.435   4.171  14.886 -0.0708  0.6414 -0.2399
 3827TIP3    H132972   0.427   4.229  14.962 -0.5652 -0.2789  0.4280
 3827TIP3    H232973   0.453   4.085  14.922 -2.3219 -0.2378 -1.0025
 3828TIP3   OH232974   2.977   5.138  12.068  0.5502  0.3765 -0.0790
 3828TIP3    H132975   2.981   5.153  11.973  0.4185  0.4694 -0.0707
 3828TIP3    H232976   2.934   5.216  12.103  0.1058  0.1017 -0.0043
 3829TIP3   OH232977   5.581   4.400  10.846 -0.0164 -0.5574  0.2597
 3829TIP3    H132978   5.491   4.433  10.855  0.2489  0.3807 -0.3866
 3829TIP3    H232979   5.622   4.461  10.785  0.6993 -1.7184 -0.4456
 3830TIP3   OH232980   2.093   4.814  13.856 -0.2269  0.2288 -0.0061
 3830TIP3    H132981   2.052   4.887  13.810  0.2726 -0.8891 -2.3526
 3830TIP3    H232982   2.137   4.763  13.788  3.0639  0.0312  2.0585
 3831TIP3   OH232983   1.686   3.669   1.956  0.3695 -0.0567  0.3107
 3831TIP3    H132984   1.701   3.601   1.890  0.6410 -0.6988  1.0142
 3831TIP3    H232985   1.646   3.741   1.908 -0.0038 -0.7486 -0.4402
 3832TIP3   OH232986   5.605   3.311  11.611  0.1110 -0.1674 -0.2809
 3832TIP3    H132987   5.580   3.306  11.518  1.2445  1.6406 -0.7535
 3832TIP3    H232988   5.687   3.362  11.610  0.7919 -1.1395  1.6251
 3833TIP3   OH232989   5.873   5.499   4.472 -0.6509  0.5868  0.2317
 3833TIP3    H132990   5.789   5.509   4.427 -0.3484 -0.1477 -0.5195
 3833TIP3    H232991   5.868   5.413   4.514  0.2703 -0.1145 -1.0358
 3834TIP3   OH232992   6.621   0.094  13.637  0.5602 -0.4709  0.1082
 3834TIP3    H132993   6.674   0.055  13.568  1.6674  0.6317  0.3163
 3834TIP3    H232994   6.547   0.034  13.647 -0.1020 -0.2137 -2.6135
 3835TIP3   OH232995   4.643   1.932  14.204  0.0373  0.3110  0.4539
 3835TIP3    H132996   4.719   1.978  14.238  0.1877  0.2892  0.1554
 3835TIP3    H232997   4.576   2.000  14.193  0.8358  0.8243 -1.7081
 3836TIP3   OH232998   6.112   2.201  11.132 -0.5322 -0.3386 -0.0926
 3836TIP3    H132999   6.149   2.261  11.067  0.4703 -0.9292 -0.0737
 3836TIP3    H233000   6.137   2.239  11.217  0.0569 -0.7485 -0.0799
 3837TIP3   OH233001   0.986   4.097   3.587 -0.3401 -0.5069  0.3996
 3837TIP3    H133002   1.039   4.044   3.528 -1.0081 -1.2879  0.4863
 3837TIP3    H233003   0.901   4.053   3.589 -0.7550  0.2943  0.8585
 3838TIP3   OH233004   5.578   4.601  15.248 -0.6918  0.4947 -0.3943
 3838TIP3    H133005   5.508   4.536  15.254 -0.9594  0.7899 -0.3226
 3838TIP3    H233006   5.539   4.676  15.204  0.4549 -0.5497 -3.5089
 3839TIP3   OH233007   2.610   6.642  11.158  0.1733 -0.2261  0.2240
 3839TIP3    H133008   2.638   6.551  11.150 -0.8746 -0.3869 -3.1504
 3839TIP3    H233009   2.518   6.637  11.183  0.5051 -0.0089  1.5433
 3840TIP3   OH233010   6.826   1.979  11.530 -0.0483 -0.0971 -0.8923
 3840TIP3    H133011   6.835   2.075  11.528  1.1223 -0.2082 -1.7116
 3840TIP3    H233012   6.764   1.960  11.460 -1.0151  0.1099 -0.1226
 3841TIP3   OH233013   6.878   4.922  10.937  0.9365 -0.1022 -0.2010
 3841TIP3    H133014   6.944   4.981  10.973  1.5983 -0.9535  0.0029
 3841TIP3    H233015   6.896   4.837  10.976 -0.9981 -0.1345  0.7506
 3842TIP3   OH233016   0.600   2.064  11.337  0.8069  0.2397  0.2588
 3842TIP3    H133017   0.528   2.059  11.400  0.4562 -0.8651 -0.2125
 3842TIP3    H233018   0.563   2.032  11.255  2.0675 -1.2043  0.2219
 3843TIP3   OH233019   1.259   1.020  12.574  0.0732  0.1668 -0.3082
 3843TIP3    H133020   1.258   1.074  12.653  3.0567  0.4032 -0.3261
 3843TIP3    H233021   1.205   0.944  12.596 -1.4767  1.5158  0.8965
 3844TIP3   OH233022   2.615   0.320  14.910  0.3589  0.3455 -0.1956
 3844TIP3    H133023   2.628   0.394  14.852  2.8202  1.0957  1.1544
 3844TIP3    H233024   2.622   0.357  14.998  0.0717 -1.2347  0.5288
 3845TIP3   OH233025   2.505   2.296   9.817 -0.1816 -0.5667 -0.0425
 3845TIP3    H133026   2.508   2.292   9.722  0.8766 -0.0381 -0.0443
 3845TIP3    H233027   2.468   2.382   9.836  1.4083  0.1448  0.0013
 3846TIP3   OH233028   1.899   4.257   4.618 -0.0953  0.3500 -0.2995
 3846TIP3    H133029   1.982   4.216   4.641 -1.2445 -0.8759  2.0189
 3846TIP3    H233030   1.908   4.348   4.647  0.3889  0.1780  0.1042
 3847TIP3   OH233031   4.682   5.261   2.430  0.5613  0.5388 -0.1902
 3847TIP3    H133032   4.702   5.168   2.426 -2.7354 -0.2601 -1.5932
 3847TIP3    H233033   4.667   5.278   2.523  1.9378 -0.0764  0.1719
 3848TIP3   OH233034   0.473   4.016  15.154 -0.1730 -0.1925  0.2852
 3848TIP3    H133035   0.413   4.087  15.173 -0.3986 -0.2854 -0.0574
 3848TIP3    H233036   0.488   3.972  15.238  1.0793  1.1000  0.7750
 3849TIP3   OH233037   3.569   4.347   5.841 -1.4905  0.0079  0.3546
 3849TIP3    H133038   3.603   4.320   5.756  0.4806  3.2592 -0.0760
 3849TIP3    H233039   3.626   4.302   5.904  0.7870  1.7753 -0.2844
 3850TIP3   OH233040   3.599   0.925  15.753 -0.2155  0.7632  0.4336
 3850TIP3    H133041   3.603   0.908  15.847  0.2850  0.3445  0.3406
 3850TIP3    H233042   3.609   0.839  15.712  0.3859  1.0418 -0.0170
 3851TIP3   OH233043   0.212   3.016  13.242 -0.1586  0.0657 -0.4392
 3851TIP3    H133044   0.294   3.048  13.280  0.3567 -0.4378 -1.0847
 3851TIP3    H233045   0.183   3.088  13.186  0.0544  0.1000 -0.5098
 3852TIP3   OH233046   2.673   0.233  11.965 -0.1381  0.5501 -0.8630
 3852TIP3    H133047   2.637   0.234  11.876 -1.1012 -0.4582 -0.5044
 3852TIP3    H233048   2.620   0.169  12.012  0.0920  1.3698  0.5653
 3853TIP3   OH233049   0.863   1.054  10.273 -0.3395 -0.6476  0.0938
 3853TIP3    H133050   0.944   1.003  10.261  0.7236  1.3800 -2.1405
 3853TIP3    H233051   0.813   1.038  10.194 -2.2441 -1.8649  1.4539
 3854TIP3   OH233052   1.293   6.461   1.849 -0.0789  0.0516  0.2478
 3854TIP3    H133053   1.227   6.523   1.880  0.4248  1.3764 -1.1495
 3854TIP3    H233054   1.347   6.513   1.789  1.7631 -1.1878  0.7591
 3855TIP3   OH233055   4.007   3.617   5.849  0.4024  0.2012  0.1024
 3855TIP3    H133056   4.071   3.628   5.920  1.8346 -2.0488 -0.7379
 3855TIP3    H233057   4.054   3.645   5.770 -0.7132  1.3749 -0.1834
 3856TIP3   OH233058   6.094   1.811   1.549 -0.4477 -0.5030  0.0560
 3856TIP3    H133059   6.163   1.841   1.608 -0.2073 -2.4901  0.8771
 3856TIP3    H233060   6.015   1.811   1.602 -1.2207  1.9480 -0.9349
 3857TIP3   OH233061   3.137   3.525  14.151  0.0439 -0.7183 -0.3671
 3857TIP3    H133062   3.217   3.506  14.200 -0.5809  1.0017  1.4533
 3857TIP3    H233063   3.164   3.519  14.059  2.1492 -0.6713  0.1918
 3858TIP3   OH233064   3.362   0.177   1.757  0.2242  0.1432 -0.3162
 3858TIP3    H133065   3.360   0.251   1.697  0.5965  0.5126  0.1181
 3858TIP3    H233066   3.270   0.154   1.770  0.1445 -0.0294 -1.1264
 3859TIP3   OH233067   6.385   6.415  13.799 -0.5584 -0.5195 -0.2106
 3859TIP3    H133068   6.478   6.433  13.804 -0.7993  0.4810  0.7921
 3859TIP3    H233069   6.376   6.326  13.833 -0.1646  0.0277  1.4023
 3860TIP3   OH233070   2.667   2.870  10.947  0.2093  0.0961 -0.1657
 3860TIP3    H133071   2.741   2.915  10.988 -0.0786  0.4001  0.0257
 3860TIP3    H233072   2.687   2.871  10.853  0.3817  0.2968 -0.1275
 3861TIP3   OH233073   0.143   5.768  13.112 -0.2128 -0.0459 -0.2056
 3861TIP3    H133074   0.141   5.759  13.207  1.0074 -3.4484 -0.3647
 3861TIP3    H233075   0.069   5.716  13.081 -0.4361  0.7981 -1.1596
 3862TIP3   OH233076   4.992   6.864  12.519  0.0889  0.2048 -0.2098
 3862TIP3    H133077   4.908   6.883  12.559  0.9499  0.4836  1.5878
 3862TIP3    H233078   5.008   6.772  12.539  0.7380  0.4680  0.5772
 3863TIP3   OH233079   0.561   0.080  13.442  0.3962 -0.0782  0.3056
 3863TIP3    H133080   0.515   0.039  13.515 -0.9313 -0.4095 -0.6557
 3863TIP3    H233081   0.501   0.149  13.412  0.6179 -0.3405 -0.8138
 3864TIP3   OH233082   0.890   5.563  12.815 -0.5150 -0.0118  0.1130
 3864TIP3    H133083   0.801   5.546  12.785 -0.4405 -0.3920  0.1109
 3864TIP3    H233084   0.940   5.579  12.735 -0.5089 -0.1346  0.0922
 3865TIP3   OH233085   2.202   4.366  12.980  0.1258 -0.2140  0.0998
 3865TIP3    H133086   2.278   4.416  13.011 -0.0406  0.4646 -0.5609
 3865TIP3    H233087   2.126   4.414  13.014 -0.0188 -0.8276  0.6630
 3866TIP3   OH233088   0.329   2.993  12.695  0.1440 -0.2277  0.3276
 3866TIP3    H133089   0.292   3.016  12.780 -0.8577  1.2350 -0.4617
 3866TIP3    H233090   0.297   3.061  12.635  2.3532 -0.1235 -0.8566
 3867TIP3   OH233091   5.729   1.117  14.573  0.6502  0.2820 -0.6399
 3867TIP3    H133092   5.775   1.200  14.568  0.4107  0.3613 -1.8765
 3867TIP3    H233093   5.714   1.103  14.667  2.3780  0.6820 -0.2668
 3868TIP3   OH233094   4.805   1.292  15.016 -0.6272  0.0213  0.1067
 3868TIP3    H133095   4.814   1.386  15.029 -1.2549  0.3118 -1.3302
 3868TIP3    H233096   4.712   1.274  15.032 -0.9064 -0.0059 -1.3796
 3869TIP3   OH233097   0.997   6.447  11.767  0.7303 -0.2882  0.2201
 3869TIP3    H133098   0.926   6.384  11.779  1.2114 -0.9611 -0.3903
 3869TIP3    H233099   1.064   6.399  11.719  1.1693  0.6457 -0.1331
 3870TIP3   OH233100   6.786   4.389  12.179  0.2075 -0.0604  0.7078
 3870TIP3    H133101   6.753   4.309  12.220 -1.9237  0.2607 -0.2622
 3870TIP3    H233102   6.775   4.375  12.085  2.8926  0.1285  0.2735
 3871TIP3   OH233103   6.299   3.948  14.065 -0.2045  0.4986  0.0713
 3871TIP3    H133104   6.221   3.914  14.108  0.2573 -1.0405 -0.2446
 3871TIP3    H233105   6.345   3.996  14.134 -0.2886 -0.5366  0.8792
 3872TIP3   OH233106   5.010   5.781  12.475  0.2301  0.5403 -0.2652
 3872TIP3    H133107   4.924   5.805  12.440 -0.6797 -1.3148  0.5625
 3872TIP3    H233108   5.062   5.861  12.466 -1.4039  1.5653 -1.2735
 3873TIP3   OH233109   3.097   4.174  15.343  0.3554  0.3131 -0.3512
 3873TIP3    H133110   3.098   4.197  15.436 -0.3040 -0.6048 -0.0986
 3873TIP3    H233111   3.183   4.135  15.327  0.0685 -0.5610  0.1626
 3874TIP3   OH233112   2.814   3.799  15.405  0.2852  0.1902  0.0801
 3874TIP3    H133113   2.822   3.823  15.497  2.6612 -0.3010  0.0498
 3874TIP3    H233114   2.903   3.806  15.370 -0.1250 -1.9504 -1.5823
 3875TIP3   OH233115   1.541   4.776  11.705  0.4742  0.1637 -0.4791
 3875TIP3    H133116   1.612   4.819  11.656  0.4551 -0.1569 -0.7931
 3875TIP3    H233117   1.572   4.687  11.718  0.4236  0.2111 -0.0110
 3876TIP3   OH233118   6.274   3.404  14.834 -0.5418 -1.0505 -0.2069
 3876TIP3    H133119   6.346   3.341  14.831 -0.2438 -0.6969 -0.6330
 3876TIP3    H233120   6.196   3.351  14.850 -0.0599 -1.3227  1.3912
 3877TIP3   OH233121   4.271   0.469   4.369 -0.2398 -0.0030  0.3973
 3877TIP3    H133122   4.270   0.469   4.465  2.8102 -0.8638  0.5453
 3877TIP3    H233123   4.189   0.426   4.344 -0.6009 -0.7724  2.6587
 3878TIP3   OH233124   3.439   1.539  12.982  0.1301 -0.2177 -0.0016
 3878TIP3    H133125   3.344   1.530  12.974  0.3624 -1.8219 -1.4928
 3878TIP3    H233126   3.475   1.485  12.912  2.1509  2.0808 -0.8765
 3879TIP3   OH233127   3.421   5.554  12.420  0.1204  0.2200 -0.0773
 3879TIP3    H133128   3.327   5.544  12.405  0.2397  0.5150 -1.0696
 3879TIP3    H233129   3.455   5.465  12.421 -0.2359  0.0839  0.7990
 3880TIP3   OH233130   3.910   2.868   4.028 -0.0118 -0.3705  0.8263
 3880TIP3    H133131   3.895   2.932   3.959  1.4451 -0.3892  0.4576
 3880TIP3    H233132   3.904   2.917   4.110  0.2597  0.0636  0.5851
 3881TIP3   OH233133   1.355   2.888  10.065 -0.0078 -0.0330 -0.0600
 3881TIP3    H133134   1.268   2.916  10.037 -1.4981 -2.2001  2.0346
 3881TIP3    H233135   1.369   2.805  10.019  1.2517  0.5362 -0.7827
 3882TIP3   OH233136   5.753   1.891   4.781  0.0140 -0.6277 -0.0118
 3882TIP3    H133137   5.688   1.858   4.718  1.7953 -0.9045 -1.8225
 3882TIP3    H233138   5.701   1.919   4.856 -2.4624  1.2151 -2.1834
 3883TIP3   OH233139   3.241   2.063   0.194 -0.1468  0.0297 -0.1803
 3883TIP3    H133140   3.219   2.093   0.106 -1.5910 -1.2836 -0.3216
 3883TIP3    H233141   3.274   1.974   0.181 -0.6704 -0.2982  0.6009
 3884TIP3   OH233142   0.548   6.551   9.479  0.5246  0.7410  0.0288
 3884TIP3    H133143   0.611   6.565   9.549  2.8527  2.1754 -2.1950
 3884TIP3    H233144   0.498   6.632   9.475 -0.4127  0.2212  0.7145
 3885TIP3   OH233145   4.401   5.090  12.150 -0.7913 -0.2817  0.1012
 3885TIP3    H133146   4.395   5.185  12.137 -0.5461 -0.1349  1.0332
 3885TIP3    H233147   4.313   5.058  12.133 -1.3308  0.3448  1.5718
 3886TIP3   OH233148   6.111   1.087   2.197 -0.1017  0.6260 -0.0537
 3886TIP3    H133149   6.045   1.068   2.263  1.0535  0.9185  1.2252
 3886TIP3    H233150   6.168   1.010   2.197 -0.0378  0.6669 -0.6554
 3887TIP3   OH233151   4.754   1.785  14.810 -0.3703 -0.1372  0.2954
 3887TIP3    H133152   4.707   1.868  14.797 -1.2170 -0.7443 -0.6978
 3887TIP3    H233153   4.820   1.784  14.741  1.1313  0.6828  1.6520
 3888TIP3   OH233154   0.001   5.123   0.398 -0.0006 -0.6271  0.7122
 3888TIP3    H133155  -0.077   5.177   0.409  1.1720  1.1399  0.8420
 3888TIP3    H233156   0.055   5.142   0.475  0.1928 -2.5247  1.0925
 3889TIP3   OH233157   5.276   4.486  10.056  0.0071  1.0052  0.4789
 3889TIP3    H133158   5.197   4.468  10.108 -1.2983 -1.4616 -2.0909
 3889TIP3    H233159   5.242   4.517   9.972  1.7955  0.1465 -0.5939
 3890TIP3   OH233160   2.283   1.397  10.756  0.0624 -0.3658  0.3791
 3890TIP3    H133161   2.220   1.442  10.811 -0.0442 -0.9376  0.7399
 3890TIP3    H233162   2.365   1.444  10.769 -0.3828  0.6904 -0.4803
 3891TIP3   OH233163   4.427   5.814  12.134  0.1454 -0.1164 -0.5296
 3891TIP3    H133164   4.410   5.855  12.049 -2.1626  0.1385 -0.0161
 3891TIP3    H233165   4.360   5.746  12.142  0.1258  0.0462  1.1731
 3892TIP3   OH233166   2.857   7.123  15.527  0.4406 -0.0296  0.0437
 3892TIP3    H133167   2.885   7.044  15.480 -1.6275 -0.8752  0.1373
 3892TIP3    H233168   2.763   7.112  15.539  0.3569  1.7483  1.4512
 3893TIP3   OH233169   2.887   2.295  13.995 -0.0215 -0.9472  0.1154
 3893TIP3    H133170   2.811   2.269  13.943 -0.2556  2.6769 -1.6295
 3893TIP3    H233171   2.963   2.267  13.943 -0.1588 -1.8112  0.3604
 3894TIP3   OH233172   4.134   1.188  13.804 -0.9472  0.2062  0.3627
 3894TIP3    H133173   4.172   1.158  13.886 -0.8990 -0.6450  0.0482
 3894TIP3    H233174   4.167   1.126  13.738 -0.6785  1.0952 -0.3644
 3895TIP3   OH233175   0.136   4.487  15.390  0.5666 -0.2963  0.5231
 3895TIP3    H133176   0.100   4.549  15.453 -0.0813 -0.0488 -0.0733
 3895TIP3    H233177   0.227   4.515  15.379 -0.0065  1.3008 -0.6018
 3896TIP3   OH233178   6.785   1.843  13.363 -0.7691 -0.1419 -0.1318
 3896TIP3    H133179   6.763   1.874  13.450 -1.5535 -1.0161 -0.0013
 3896TIP3    H233180   6.701   1.820  13.323 -0.2889 -1.4484 -0.4466
 3897TIP3   OH233181   5.773   5.806  13.378  0.3597  0.1915  0.4314
 3897TIP3    H133182   5.705   5.740  13.363  0.4530 -0.3817  2.2880
 3897TIP3    H233183   5.795   5.839  13.291 -0.0282 -1.9019 -0.5046
 3898TIP3   OH233184   2.135   5.818  11.593  0.3767  0.0757 -0.1030
 3898TIP3    H133185   2.179   5.828  11.677  0.5764 -0.7782 -0.0909
 3898TIP3    H233186   2.046   5.790  11.615  0.4432 -0.1963 -0.1662
 3899TIP3   OH233187   6.611   5.576  13.425  0.0046  0.2561 -0.5368
 3899TIP3    H133188   6.559   5.588  13.505 -0.7728 -2.0291 -0.6250
 3899TIP3    H233189   6.573   5.499  13.383 -0.5327  2.1799 -3.8906
 3900TIP3   OH233190   6.659   1.616   1.167 -0.1911 -0.1795  0.5332
 3900TIP3    H133191   6.669   1.711   1.174 -0.0558 -0.1853  0.4229
 3900TIP3    H233192   6.695   1.594   1.082 -0.0764 -0.3498  0.6252
 3901TIP3   OH233193   4.916   0.348   0.687 -0.1149  0.6976 -0.0284
 3901TIP3    H133194   5.005   0.313   0.687  0.0404  1.0313  1.1347
 3901TIP3    H233195   4.926   0.441   0.664 -0.0805  0.8845  0.7143
 3902TIP3   OH233196   5.272   4.500  11.862 -0.7833  0.2004 -0.4082
 3902TIP3    H133197   5.238   4.547  11.787 -1.1113  1.9373  0.7846
 3902TIP3    H233198   5.267   4.562  11.935 -1.3282 -1.7040  1.2712
 3903TIP3   OH233199   1.284   2.572   1.319 -0.2428 -0.0646 -0.1591
 3903TIP3    H133200   1.339   2.496   1.341 -1.6433 -1.0930 -0.0444
 3903TIP3    H233201   1.283   2.624   1.399 -0.4248 -0.6822  0.2515
 3904TIP3   OH233202   0.549   0.931  11.057 -0.6948  0.2766  0.3976
 3904TIP3    H133203   0.519   1.015  11.023  1.0991  0.0909 -1.9044
 3904TIP3    H233204   0.513   0.866  10.997  0.7346 -0.2693  0.0807
 3905TIP3   OH233205   0.837   2.444  10.325  0.0468 -0.0381  0.7895
 3905TIP3    H133206   0.907   2.385  10.354  3.0076  1.6462 -2.2178
 3905TIP3    H233207   0.797   2.400  10.251 -0.4480  0.0567  0.9960
 3906TIP3   OH233208   6.002   6.884  15.015  0.5464 -0.0236 -0.8834
 3906TIP3    H133209   5.990   6.916  14.926 -2.4723  0.2841 -0.4869
 3906TIP3    H233210   6.084   6.923  15.044  0.3399  1.9340 -2.6794
 3907TIP3   OH233211   5.058   6.642  10.248 -0.3863  0.4591 -0.1964
 3907TIP3    H133212   4.999   6.707  10.212 -1.8091 -1.5839 -1.7936
 3907TIP3    H233213   5.052   6.568  10.188  3.0138 -0.2932  0.1627
 3908TIP3   OH233214   5.015   3.560  15.175 -0.0196 -0.2333  0.2009
 3908TIP3    H133215   5.103   3.580  15.205 -0.3387 -0.8220  1.5771
 3908TIP3    H233216   5.008   3.465  15.182 -0.7464 -0.1954  0.0463
 3909TIP3   OH233217   0.681   0.319   9.327 -0.0216  0.1107  0.0669
 3909TIP3    H133218   0.630   0.319   9.408  1.3574  1.6007  1.0176
 3909TIP3    H233219   0.761   0.272   9.349  0.0231 -0.1644 -0.6717
 3910TIP3   OH233220   1.572   3.456  10.953 -0.0534  0.4608  0.5606
 3910TIP3    H133221   1.596   3.442  11.045 -1.7515  0.0196  0.9723
 3910TIP3    H233222   1.484   3.493  10.957 -0.6044 -0.6132 -0.9124
 3911TIP3   OH233223   3.494   1.562  14.565 -0.1249 -0.4442 -0.0571
 3911TIP3    H133224   3.464   1.481  14.606 -0.7789 -0.1839 -0.0229
 3911TIP3    H233225   3.582   1.576  14.601 -0.0168 -1.1292 -0.0583
 3912TIP3   OH233226   0.106   4.488  11.411  0.0948  0.1527 -0.0088
 3912TIP3    H133227   0.189   4.535  11.418  0.7028 -0.5486 -1.9218
 3912TIP3    H233228   0.132   4.396  11.402 -0.7950  0.0584 -2.0082
 3913TIP3   OH233229   3.734   0.718   0.764  0.0096  0.9516  0.1609
 3913TIP3    H133230   3.768   0.724   0.674 -0.8402  1.5311 -0.1323
 3913TIP3    H233231   3.664   0.653   0.758 -0.6749  1.6715  0.1922
 3914TIP3   OH233232   0.589   2.551   0.510 -0.1974  0.6363 -0.0335
 3914TIP3    H133233   0.612   2.601   0.431 -1.3852 -0.4700 -1.1272
 3914TIP3    H233234   0.659   2.485   0.517 -1.0670 -0.4946 -1.3336
 3915TIP3   OH233235   6.179   2.705  12.518  0.1280  0.1470  0.1249
 3915TIP3    H133236   6.154   2.750  12.599 -1.4508 -0.0257 -0.2335
 3915TIP3    H233237   6.109   2.642  12.503  1.8343 -1.8352  0.1189
 3916TIP3   OH233238   1.941   3.765  15.205 -0.1833 -0.1495 -0.7482
 3916TIP3    H133239   1.943   3.703  15.278  0.4527 -0.4620 -1.0285
 3916TIP3    H233240   2.010   3.828  15.226 -0.2174 -0.0555 -0.9197
 3917TIP3   OH233241   6.448   4.900  11.066 -0.2290  0.0786 -0.1371
 3917TIP3    H133242   6.522   4.841  11.052 -1.0473 -0.9816 -0.1211
 3917TIP3    H233243   6.395   4.892  10.987 -0.8076  0.1073  0.2390
 3918TIP3   OH233244   1.662   1.482   5.891  0.6596  0.1237 -0.1600
 3918TIP3    H133245   1.699   1.550   5.946  2.5143 -0.1113 -1.0380
 3918TIP3    H233246   1.724   1.409   5.896  0.0883 -0.4851 -1.3244
 3919TIP3   OH233247   0.722   3.127  13.312  0.2964  0.1861  0.0896
 3919TIP3    H133248   0.628   3.123  13.332 -0.2064 -0.5957 -2.0709
 3919TIP3    H233249   0.737   3.217  13.285  0.2413  0.3959  0.7599
 3920TIP3   OH233250   2.091   6.723  11.122  0.0935  0.4584  0.3301
 3920TIP3    H133251   2.171   6.709  11.173 -0.7884 -0.6677  1.4681
 3920TIP3    H233252   2.069   6.815  11.137  0.4976  0.4494  1.0246
 3921TIP3   OH233253   5.775   0.142  13.884  0.1276 -0.5953  0.4964
 3921TIP3    H133254   5.744   0.087  13.956 -0.3936  0.1420  0.8523
 3921TIP3    H233255   5.789   0.228  13.924  1.5325 -0.6067  0.0925
 3922TIP3   OH233256   0.258   1.721  10.635 -0.2273 -0.1278 -0.6843
 3922TIP3    H133257   0.165   1.740  10.624 -0.1573  0.0356 -1.0099
 3922TIP3    H233258   0.299   1.807  10.639  0.0079 -0.2087 -1.3970
 3923TIP3   OH233259   4.130   6.965  15.075 -0.0569  0.1215  0.2927
 3923TIP3    H133260   4.214   6.964  15.121  1.0357 -1.4424 -1.6049
 3923TIP3    H233261   4.151   6.941  14.985 -2.5129  0.0685 -0.3458
 3924TIP3   OH233262   6.020   1.205  11.025 -0.4622  0.1633  0.0767
 3924TIP3    H133263   6.008   1.212  11.119  0.8663 -0.3557  0.3055
 3924TIP3    H233264   6.031   1.111  11.009 -1.3355  0.1668 -0.7032
 3925TIP3   OH233265   5.937   0.872  11.462 -0.1451 -0.1888 -0.1198
 3925TIP3    H133266   5.986   0.952  11.446  2.1410 -1.8317 -1.9911
 3925TIP3    H233267   5.897   0.851  11.377 -0.5069 -1.1477  0.2743
 3926TIP3   OH233268   4.602   2.749  15.437  0.2925  0.0924  0.3377
 3926TIP3    H133269   4.624   2.808  15.510 -1.1694  1.7037 -0.4352
 3926TIP3    H233270   4.509   2.729  15.450  1.0584 -3.4028  1.4213
 3927TIP3   OH233271   1.316   0.205  14.280  0.1219 -0.0661  0.1956
 3927TIP3    H133272   1.237   0.235  14.235  0.1897 -0.9589 -0.5407
 3927TIP3    H233273   1.348   0.283  14.326 -2.1275 -0.0717  1.9526
 3928TIP3   OH233274   5.574   1.232  12.866  0.8071 -0.2794 -0.6116
 3928TIP3    H133275   5.644   1.183  12.822  2.1166  0.6059  0.3862
 3928TIP3    H233276   5.621   1.298  12.918 -0.7618 -0.0657  0.5940
 3929TIP3   OH233277   4.032   4.948   5.007  0.0685  0.3487 -0.0416
 3929TIP3    H133278   4.072   4.979   5.088 -2.2406  0.9103  0.9656
 3929TIP3    H233279   3.996   5.027   4.967  2.4209  0.3280 -2.4588
 3930TIP3   OH233280   1.083   2.522  12.864  0.2831  0.6152 -0.2171
 3930TIP3    H133281   1.030   2.602  12.867 -0.7855 -0.1051  0.8730
 3930TIP3    H233282   1.155   2.538  12.925  0.5413  1.0589 -0.6347
 3931TIP3   OH233283   1.795   0.134  10.099  0.3284  0.5498 -0.0372
 3931TIP3    H133284   1.882   0.160  10.068 -0.3224  0.8534 -1.6958
 3931TIP3    H233285   1.767   0.065  10.039 -0.1662 -0.2923  1.1187
 3932TIP3   OH233286   5.540   0.087  14.656 -0.1901  0.3311  0.2292
 3932TIP3    H133287   5.465   0.129  14.699  0.3595  1.4827  0.1159
 3932TIP3    H233288   5.587   0.043  14.727 -0.4075  0.4934  0.4765
 3933TIP3   OH233289   5.445   4.908  13.813  0.1246  0.5666  0.4739
 3933TIP3    H133290   5.439   4.990  13.765  1.3133 -0.6451 -1.8864
 3933TIP3    H233291   5.481   4.932  13.898  1.4072  2.3723 -0.5321
 3934TIP3   OH233292   0.379   2.665  13.386 -0.2543 -0.2692  0.3454
 3934TIP3    H133293   0.403   2.745  13.433 -0.0086  0.8983 -1.6710
 3934TIP3    H233294   0.427   2.670  13.303 -1.7485 -1.5475 -0.6585
 3935TIP3   OH233295   2.899   3.481  10.475  0.4435 -0.0655 -0.9691
 3935TIP3    H133296   2.903   3.540  10.400 -0.9196  0.1070 -0.9468
 3935TIP3    H233297   2.940   3.530  10.546 -1.6112  1.3872 -0.6678
 3936TIP3   OH233298   2.070   0.471   9.965  0.5821 -0.3701 -0.2725
 3936TIP3    H133299   2.144   0.409   9.964  0.1703 -0.8862  0.5261
 3936TIP3    H233300   2.106   0.552  10.001  0.7148 -0.6853  0.3134
 3937TIP3   OH233301   5.360   5.126   4.093  0.0292 -0.2472  0.7428
 3937TIP3    H133302   5.359   5.089   4.181 -2.2504  1.0473  1.3413
 3937TIP3    H233303   5.295   5.075   4.044 -0.1370  0.2790  0.3961
 3938TIP3   OH233304   0.377   0.160   3.885  0.6246 -0.6014  0.6894
 3938TIP3    H133305   0.387   0.119   3.971  1.2620 -0.3536  0.7440
 3938TIP3    H233306   0.420   0.100   3.825 -2.5657 -2.4134  0.0052
 3939TIP3   OH233307   1.878   0.295  12.895 -0.3277 -0.3462 -0.0257
 3939TIP3    H133308   1.836   0.209  12.887  0.5860 -0.9353  1.1654
 3939TIP3    H233309   1.918   0.294  12.982  0.0825  1.1265 -0.1697
 3940TIP3   OH233310   2.442   0.804   1.629 -0.0118 -0.1021 -0.2374
 3940TIP3    H133311   2.425   0.895   1.603  0.3495 -0.2563 -1.0223
 3940TIP3    H233312   2.428   0.753   1.550 -1.2451 -0.8741  0.4516
 3941TIP3   OH233313   3.820   6.782  14.654 -0.1000  0.2464 -0.0225
 3941TIP3    H133314   3.830   6.709  14.715 -0.4422  0.3301  0.1382
 3941TIP3    H233315   3.774   6.744  14.579  1.1727 -0.0828 -0.6573
 3942TIP3   OH233316   0.275   2.884   0.415 -0.0171 -0.0200 -0.2936
 3942TIP3    H133317   0.302   2.923   0.498 -0.6362 -2.2559  1.0481
 3942TIP3    H233318   0.346   2.905   0.354  0.3341  1.8846  0.6717
 3943TIP3   OH233319   2.933   2.794  10.568  0.0277  0.4282 -0.4195
 3943TIP3    H133320   3.023   2.826  10.566  0.4756 -0.2540  2.7876
 3943TIP3    H233321   2.939   2.708  10.611 -2.1553  0.5280  0.2257
 3944TIP3   OH233322   6.076   3.840  13.807 -0.4457 -0.0008  0.7709
 3944TIP3    H133323   6.034   3.838  13.893 -0.7759 -0.9388  0.6022
 3944TIP3    H233324   6.004   3.824  13.746  0.1330 -1.7358  0.4809
 3945TIP3   OH233325   5.951   2.594  12.419 -0.1900 -0.2533 -0.2596
 3945TIP3    H133326   5.935   2.500  12.413 -2.3573 -0.0584  1.2238
 3945TIP3    H233327   5.865   2.634  12.405  0.3218  1.3982  1.0079
 3946TIP3   OH233328   6.703   0.491  11.478  0.3023 -0.5484  0.0318
 3946TIP3    H133329   6.728   0.583  11.486 -0.4086 -0.2670 -0.8501
 3946TIP3    H233330   6.786   0.446  11.460  0.5677 -0.0057 -0.1537
 3947TIP3   OH233331   6.734   2.332   3.712 -0.0504 -0.4957 -0.3100
 3947TIP3    H133332   6.816   2.311   3.757  0.0340 -0.9000 -0.6423
 3947TIP3    H233333   6.680   2.254   3.725  0.8348 -1.6320 -2.8919
 3948TIP3   OH233334   1.762   0.142  13.158  0.0779  0.3870 -0.0042
 3948TIP3    H133335   1.807   0.057  13.152  0.6955  0.5879  1.3961
 3948TIP3    H233336   1.721   0.153  13.073  2.1742 -0.1060 -1.1511
 3949TIP3   OH233337   6.070   4.835  12.707 -0.6461  0.4371  0.1641
 3949TIP3    H133338   6.085   4.916  12.756 -1.8017 -0.1481  1.5827
 3949TIP3    H233339   6.093   4.856  12.617 -0.2521  2.1340  0.6349
 3950TIP3   OH233340   5.654   4.500  14.160 -0.1782  0.1036  0.3377
 3950TIP3    H133341   5.686   4.441  14.092  1.3145  0.7364  0.4626
 3950TIP3    H233342   5.605   4.443  14.220 -1.6337 -0.4420 -1.2874
 3951TIP3   OH233343   5.157   4.789  11.078 -0.5039  0.1055 -0.1229
 3951TIP3    H133344   5.229   4.768  11.136 -1.6455 -0.6448  1.0652
 3951TIP3    H233345   5.138   4.881  11.095  0.7788  0.6037 -1.1768
 3952TIP3   OH233346   3.815   5.137  14.024 -0.2950 -0.2980 -0.2060
 3952TIP3    H133347   3.879   5.102  13.961 -1.2656  0.3589 -1.5934
 3952TIP3    H233348   3.780   5.215  13.981 -1.3043 -0.0832  0.9808
 3953TIP3   OH233349   4.272   5.426  10.732  0.6308  0.4271 -0.0587
 3953TIP3    H133350   4.356   5.471  10.743  0.8886 -0.6460  3.9820
 3953TIP3    H233351   4.217   5.461  10.802 -2.2761  0.7743 -2.3140
 3954TIP3   OH233352   5.932   3.842   9.828  0.3260  0.6958  0.0577
 3954TIP3    H133353   5.871   3.916   9.829  1.4985  1.6993 -0.3641
 3954TIP3    H233354   5.905   3.790   9.753 -0.6056  0.5990  0.4441
 3955TIP3   OH233355   4.242   6.390  14.453  0.7791  0.1787 -0.3921
 3955TIP3    H133356   4.306   6.335  14.408  2.3549  2.0069 -0.5237
 3955TIP3    H233357   4.248   6.475  14.409  1.8282  1.8363  2.6643
 3956TIP3   OH233358   2.148   4.204   0.113  0.1186  0.5813  0.6207
 3956TIP3    H133359   2.180   4.280   0.063  2.1390 -0.2708  0.4991
 3956TIP3    H233360   2.217   4.188   0.177  1.1752 -2.7563 -1.1228
 3957TIP3   OH233361   6.203   2.402  11.760 -0.6765  0.0138 -0.0325
 3957TIP3    H133362   6.259   2.329  11.736  1.5860  1.4987  0.4619
 3957TIP3    H233363   6.144   2.413  11.685 -0.0414 -1.3144 -0.7562
 3958TIP3   OH233364   6.646   1.594  15.003  0.5192 -0.2560  0.2537
 3958TIP3    H133365   6.711   1.564  14.939  1.0943 -3.0313  1.9588
 3958TIP3    H233366   6.582   1.522  15.007 -1.7956  1.6687 -0.1451
 3959TIP3   OH233367   4.096   0.699   5.331  0.0289  0.0724 -0.0400
 3959TIP3    H133368   4.158   0.762   5.368 -1.6559  1.4155  0.6444
 3959TIP3    H233369   4.037   0.678   5.404 -0.6819 -0.6890 -0.8115
 3960TIP3   OH233370   5.450   3.248  12.649  0.2124 -0.4063 -0.1864
 3960TIP3    H133371   5.427   3.251  12.742  0.4058  0.2291 -0.1541
 3960TIP3    H233372   5.405   3.171  12.615 -0.1185 -0.4576  0.3677
 3961TIP3   OH233373   3.692   5.029  15.143 -0.5172  0.4576 -0.2415
 3961TIP3    H133374   3.693   5.067  15.230  1.1340  0.6176 -0.2995
 3961TIP3    H233375   3.712   5.101  15.084 -0.6188  0.1564 -0.6533
 3962TIP3   OH233376   1.441   1.556  13.822 -0.5927  0.2353  0.4462
 3962TIP3    H133377   1.357   1.601  13.810 -0.1670  0.7014 -1.0452
 3962TIP3    H233378   1.452   1.551  13.917 -2.6862 -0.5722  0.7068
 3963TIP3   OH233379   1.258   3.508  10.290 -0.4468 -0.4120 -0.3520
 3963TIP3    H133380   1.248   3.572  10.219  1.8396  1.3963  0.8333
 3963TIP3    H233381   1.186   3.445  10.275 -0.7676  0.5008 -3.5473
 3964TIP3   OH233382   2.166   5.099  14.914 -0.2156 -0.0687  0.5484
 3964TIP3    H133383   2.143   5.181  14.958  2.4578  1.5008 -0.6778
 3964TIP3    H233384   2.250   5.074  14.952 -0.4724 -1.6615  0.1259
 3965TIP3   OH233385   6.636   5.148   1.647 -0.2243  0.5791  0.0213
 3965TIP3    H133386   6.713   5.202   1.629 -0.9583  1.1728 -1.4445
 3965TIP3    H233387   6.642   5.075   1.585 -0.8423  0.6441 -0.1251
 3966TIP3   OH233388   4.492   5.043   0.698  0.0711 -0.3890 -0.5489
 3966TIP3    H133389   4.528   5.130   0.719 -0.3583 -0.5592  1.0391
 3966TIP3    H233390   4.494   4.996   0.781 -0.8366 -1.4923 -1.1327
 3967TIP3   OH233391   5.247   4.960  15.171  0.4972 -0.7457 -0.0999
 3967TIP3    H133392   5.302   4.894  15.214  1.3527 -0.3092 -0.5036
 3967TIP3    H233393   5.164   4.955  15.218  1.4354 -0.1882  1.7491
 3968TIP3   OH233394   2.572   2.106  12.607 -0.5763  0.0514  0.3218
 3968TIP3    H133395   2.538   2.026  12.566 -1.7195 -0.2494  1.7925
 3968TIP3    H233396   2.519   2.176  12.569 -0.9052 -0.1089  0.4800
 3969TIP3   OH233397   5.608   4.081   2.355 -0.2428  0.0316  0.0286
 3969TIP3    H133398   5.599   4.127   2.272 -0.2271  1.0061  0.5505
 3969TIP3    H233399   5.664   4.006   2.335 -0.2595  0.2423 -0.8390
 3970TIP3   OH233400   6.381   2.258   1.287 -0.2781  0.2706 -0.1659
 3970TIP3    H133401   6.328   2.182   1.264 -2.1591  1.8147 -1.2085
 3970TIP3    H233402   6.451   2.260   1.222  0.6322 -1.2986  0.7045
 3971TIP3   OH233403   4.962   3.215  10.894 -0.2584 -0.3690 -0.2952
 3971TIP3    H133404   4.971   3.173  10.979 -2.0500 -2.5942 -1.1186
 3971TIP3    H233405   4.967   3.144  10.831 -1.3783  0.8964 -1.9038
 3972TIP3   OH233406   4.898   1.651  12.077  0.5394  0.1895  0.2224
 3972TIP3    H133407   4.915   1.672  11.985  0.4817 -0.8706 -0.0415
 3972TIP3    H233408   4.845   1.572  12.074 -0.3782  0.7520  1.1561
 3973TIP3   OH233409   6.227   2.097  11.379 -0.1865 -0.4094 -0.2568
 3973TIP3    H133410   6.133   2.094  11.360 -0.0983 -0.2113 -0.7539
 3973TIP3    H233411   6.267   2.046  11.309  0.1480  0.2940 -0.5852
 3974TIP3   OH233412   6.927   2.728   1.676 -0.0372  0.1415  0.3905
 3974TIP3    H133413   7.003   2.785   1.671 -0.3971  0.6084  0.1262
 3974TIP3    H233414   6.939   2.679   1.757  0.3206  0.5341  0.5785
 3975TIP3   OH233415   4.912   3.008   0.044  0.1045  0.6331 -0.0998
 3975TIP3    H133416   4.914   2.931   0.100  0.3005  0.6322 -0.1079
 3975TIP3    H233417   4.917   2.973  -0.045 -4.2551  0.3109 -0.4361
 3976TIP3   OH233418   5.129   6.643  12.052 -0.4809 -0.2205  0.3221
 3976TIP3    H133419   5.200   6.579  12.053 -1.1835 -1.0925 -1.2101
 3976TIP3    H233420   5.064   6.608  12.113 -0.3179 -0.3259  0.4346
 3977TIP3   OH233421   4.298   3.381   4.406  0.3779 -0.2182 -0.1495
 3977TIP3    H133422   4.252   3.433   4.341  0.2781  0.9873  0.8381
 3977TIP3    H233423   4.295   3.435   4.486  0.3336 -1.7155  0.9005
 3978TIP3   OH233424   2.320   6.917   2.357 -0.2616  0.0584  0.4085
 3978TIP3    H133425   2.316   6.831   2.400 -1.0922 -0.2128 -0.1883
 3978TIP3    H233426   2.402   6.914   2.307  0.0088 -0.1541  0.8448
 3979TIP3   OH233427   2.864   6.218  14.899  0.1074  0.5861  0.1049
 3979TIP3    H133428   2.957   6.202  14.919  0.2049 -0.1748 -0.9003
 3979TIP3    H233429   2.834   6.137  14.859 -0.2895  1.7111 -2.0131
 3980TIP3   OH233430   4.355   0.957   0.255  0.4813  0.3018 -0.1615
 3980TIP3    H133431   4.326   0.885   0.200 -0.2047  1.7472 -1.7619
 3980TIP3    H233432   4.305   1.033   0.225  1.5857  1.5822  1.0799
 3981TIP3   OH233433   5.923   4.061   9.493  0.4512 -0.4579  0.4031
 3981TIP3    H133434   5.911   4.126   9.424  0.0914  0.0586  0.9493
 3981TIP3    H233435   5.974   4.105   9.560 -0.4832 -0.4695  1.1368
 3982TIP3   OH233436   0.415   0.402  14.778  0.0425 -0.1188  0.3794
 3982TIP3    H133437   0.365   0.370  14.703  0.9331 -2.0151  0.5393
 3982TIP3    H233438   0.358   0.385  14.853  0.1656 -0.5570  0.3759
 3983TIP3   OH233439   3.446   4.981  14.279  0.2084  0.5038  0.6532
 3983TIP3    H133440   3.369   5.025  14.315 -0.1286 -0.3327  0.9963
 3983TIP3    H233441   3.506   4.975  14.353 -0.0477 -0.2620  0.8042
 3984TIP3   OH233442   5.230   3.045  11.333  0.1002  0.3638  0.3812
 3984TIP3    H133443   5.180   3.102  11.391 -0.7491  0.4144 -0.3867
 3984TIP3    H233444   5.258   2.973  11.389 -0.3436  0.6241  0.9468
 3985TIP3   OH233445   4.122   2.365  14.273  0.1003 -0.0020  0.2765
 3985TIP3    H133446   4.196   2.426  14.268  0.0805 -0.0972 -1.5025
 3985TIP3    H233447   4.117   2.325  14.187 -1.4677 -0.6885  0.6489
 3986TIP3   OH233448   3.369   4.097  12.170  0.4115 -0.2851  0.1569
 3986TIP3    H133449   3.316   4.176  12.172  1.0779  0.2732 -1.8875
 3986TIP3    H233450   3.443   4.116  12.227 -0.3009 -0.1297  1.0550
 3987TIP3   OH233451   2.735   4.703   0.467  0.1514  0.1569  0.0113
 3987TIP3    H133452   2.807   4.765   0.454  0.2454  0.2331  0.8766
 3987TIP3    H233453   2.751   4.664   0.553  1.2851 -2.6368 -1.3168
 3988TIP3   OH233454   7.009   6.667  14.187 -0.2768  0.9309  0.2267
 3988TIP3    H133455   7.003   6.746  14.133  1.0592  0.8021 -0.1504
 3988TIP3    H233456   6.918   6.644  14.207 -0.7699  1.3386 -1.4464
 3989TIP3   OH233457   3.590   3.481   1.751  0.3162 -0.0133 -0.5718
 3989TIP3    H133458   3.608   3.402   1.802 -1.5741 -0.9392 -1.2657
 3989TIP3    H233459   3.506   3.465   1.709  0.2305  2.0795 -1.3448
 3990TIP3   OH233460   4.305   2.850  14.288 -0.2437 -0.2454 -0.0518
 3990TIP3    H133461   4.221   2.873  14.249  0.4072  2.4544 -0.1128
 3990TIP3    H233462   4.370   2.889  14.230  0.9025  0.5091  1.6402
 3991TIP3   OH233463   6.935   4.877  11.805 -0.4248  0.0276  0.1018
 3991TIP3    H133464   6.946   4.924  11.887 -0.6571 -0.3735  0.3676
 3991TIP3    H233465   6.918   4.786  11.831 -0.3000 -0.1418 -0.3921
 3992TIP3   OH233466   4.085   1.511  10.131 -0.0149 -0.8268  0.0220
 3992TIP3    H133467   4.092   1.419  10.106 -3.2697 -1.8456  2.3044
 3992TIP3    H233468   4.050   1.510  10.220 -1.0421  2.6427 -0.1960
 3993TIP3   OH233469   1.480   1.254  11.225 -0.0657  0.6188  0.0804
 3993TIP3    H133470   1.530   1.313  11.282 -1.4912  1.4989  0.4741
 3993TIP3    H233471   1.546   1.211  11.171  1.3542 -0.1371  2.2626
 3994TIP3   OH233472   4.710   1.463  12.020 -0.0117  0.0452  0.0132
 3994TIP3    H133473   4.618   1.458  12.044  0.6051 -2.2401  2.3235
 3994TIP3    H233474   4.735   1.372  11.999  1.2180  0.9280 -2.9340
 3995TIP3   OH233475   6.657   1.394  13.585 -0.1379 -0.4652 -0.0854
 3995TIP3    H133476   6.600   1.469  13.569 -1.3593 -1.4679 -0.6766
 3995TIP3    H233477   6.636   1.332  13.515  1.9225 -0.7735 -0.5002
 3996TIP3   OH233478   6.586   2.474  10.410 -0.3964 -0.1039  0.4223
 3996TIP3    H133479   6.554   2.415  10.479 -0.4445 -1.5899 -0.8083
 3996TIP3    H233480   6.681   2.466  10.413 -0.3891 -0.0112  0.4444
 3997TIP3   OH233481   6.347   3.175   1.134 -0.5655 -0.1367 -0.1126
 3997TIP3    H133482   6.413   3.145   1.072 -0.3877 -1.1314  0.5407
 3997TIP3    H233483   6.396   3.218   1.204 -0.7450  0.6918 -0.4763
 3998TIP3   OH233484   1.695   3.355  14.055 -0.6259 -0.2588  0.4249
 3998TIP3    H133485   1.648   3.353  14.139 -2.7620 -1.2695 -0.7190
 3998TIP3    H233486   1.650   3.421  14.003  1.1777  0.9246  0.2773
 3999TIP3   OH233487   5.364   1.035  11.084  0.7522 -0.4161 -0.6256
 3999TIP3    H133488   5.367   1.130  11.066  1.8629 -0.4498 -0.6993
 3999TIP3    H233489   5.308   1.000  11.015 -0.4186  0.2956 -0.0610
 4000TIP3   OH233490   4.773   6.642  10.503 -0.8045 -0.2089  0.1511
 4000TIP3    H133491   4.853   6.694  10.502  0.9010 -2.6791 -0.8762
 4000TIP3    H233492   4.765   6.611  10.593  0.8901 -2.0057 -0.2624
 4001TIP3   OH233493   1.517   5.117  12.356 -0.5044 -0.2831 -0.5792
 4001TIP3    H133494   1.489   5.208  12.344 -0.7298 -0.2001  0.4514
 4001TIP3    H233495   1.603   5.113  12.314  0.2138  0.8410  0.6902
 4002TIP3   OH233496   4.098   0.571   0.023  0.1115  0.4258 -0.3596
 4002TIP3    H133497   4.156   0.506   0.063 -1.3768 -1.5130 -1.1946
 4002TIP3    H233498   4.147   0.653   0.029  3.1526 -1.1387 -1.3749
 4003TIP3   OH233499   3.223   5.854  14.781  0.5167  0.6900  0.1021
 4003TIP3    H133500   3.303   5.806  14.805  0.6794  0.6850 -0.4278
 4003TIP3    H233501   3.237   5.942  14.817  0.3101  0.3993  0.8925
 4004TIP3   OH233502   6.173   6.828   3.236  0.5000 -0.1182 -0.3490
 4004TIP3    H133503   6.225   6.905   3.261 -1.2175  0.9433  0.0995
 4004TIP3    H233504   6.105   6.822   3.303  0.3405 -1.8012 -0.6191
 4005TIP3   OH233505   3.684   3.642   0.339  0.0390 -0.1466 -0.1642
 4005TIP3    H133506   3.685   3.728   0.296 -1.4008  0.5692  1.1018
 4005TIP3    H233507   3.595   3.610   0.324 -0.1713 -0.3364  1.3281
 4006TIP3   OH233508   2.889   5.734  13.763 -0.0022  0.4254  0.1409
 4006TIP3    H133509   2.968   5.709  13.811 -0.1140  0.4912  0.3560
 4006TIP3    H233510   2.921   5.788  13.691  0.2280 -0.1621 -0.2125
 4007TIP3   OH233511   7.092   3.399   3.736  0.1631  0.4819 -0.1556
 4007TIP3    H133512   7.080   3.490   3.763 -1.8279 -0.3943  2.2490
 4007TIP3    H233513   7.146   3.360   3.805 -0.7477 -0.6283 -0.0279
 4008TIP3   OH233514   3.100   4.075  10.286  0.0385  0.5245  0.0245
 4008TIP3    H133515   3.016   4.075  10.239 -0.8981  0.3822  1.6383
 4008TIP3    H233516   3.146   4.152  10.252 -0.7675  0.6540 -0.8248
 4009TIP3   OH233517   5.217   6.165   0.669 -0.5673  0.9793 -0.0619
 4009TIP3    H133518   5.195   6.176   0.577  0.4174  0.9939 -0.3020
 4009TIP3    H233519   5.307   6.197   0.677 -0.5276  0.6761  0.8365
 4010TIP3   OH233520   4.314   1.809  14.452  0.0088 -0.4987 -0.1258
 4010TIP3    H133521   4.271   1.883  14.409 -0.7382 -1.2873 -0.7947
 4010TIP3    H233522   4.354   1.760  14.380 -0.0205 -1.0652  0.2377
 4011TIP3   OH233523   4.934   4.906  13.714  0.3001  0.2549 -0.3271
 4011TIP3    H133524   4.939   4.935  13.623  1.4116  0.2412 -0.2863
 4011TIP3    H233525   5.001   4.957  13.759  0.4577 -0.4689  0.2858
 4012TIP3   OH233526   5.931   1.695   2.283 -0.0438 -0.3935 -0.4915
 4012TIP3    H133527   5.894   1.763   2.339  1.5738 -1.3314  1.8819
 4012TIP3    H233528   5.862   1.675   2.220 -2.5596 -0.2908  2.0604
 4013TIP3   OH233529   3.543   3.953   0.583 -0.4388  0.1735 -0.5544
 4013TIP3    H133530   3.504   3.896   0.649  1.3655 -0.9701 -0.3961
 4013TIP3    H233531   3.616   3.902   0.547 -0.8875  1.0624 -2.8988
 4014TIP3   OH233532   0.821   2.159  10.847 -0.1282  0.1272  0.7545
 4014TIP3    H133533   0.815   2.064  10.838  0.0219  0.1517  0.3770
 4014TIP3    H233534   0.880   2.172  10.922  1.1354 -0.0771 -0.1610
 4015TIP3   OH233535   4.861   2.404   4.964  0.1093 -0.0344  0.4359
 4015TIP3    H133536   4.876   2.498   4.955  2.3144 -0.2183  1.4859
 4015TIP3    H233537   4.866   2.387   5.058 -1.0264 -1.1112  0.3357
 4016TIP3   OH233538   0.374   0.304   4.259  0.6750  0.5160 -0.4191
 4016TIP3    H133539   0.305   0.273   4.201 -0.9101  0.2824  1.5000
 4016TIP3    H233540   0.450   0.250   4.238  1.0609  2.1771 -4.0729
 4017TIP3   OH233541   4.164   0.157  14.236  0.5944 -0.0953  0.1741
 4017TIP3    H133542   4.114   0.127  14.160  1.0935 -0.0687 -0.1723
 4017TIP3    H233543   4.144   0.092  14.304 -0.6311  0.4298  0.3383
 4018TIP3   OH233544   2.584   7.060  10.236 -0.0820 -0.7279  0.0994
 4018TIP3    H133545   2.602   7.154  10.236  0.0096 -0.6651 -2.5320
 4018TIP3    H233546   2.500   7.052  10.282 -1.3744  1.0162 -1.7511
 4019TIP3   OH233547   3.321   3.180  14.046  0.2015  0.1056  0.7946
 4019TIP3    H133548   3.242   3.128  14.058  0.5829 -0.7705 -0.3062
 4019TIP3    H233549   3.291   3.260  14.003  0.0008 -0.5495 -0.3049
 4020TIP3   OH233550   5.795   2.305  13.318 -0.2316  0.2324 -0.0772
 4020TIP3    H133551   5.840   2.358  13.384  0.6531  0.1421 -0.6019
 4020TIP3    H233552   5.703   2.331  13.326 -0.2077 -0.0157  1.4191
 4021TIP3   OH233553   0.568   1.831   3.767  0.7428  0.2162  0.3548
 4021TIP3    H133554   0.529   1.863   3.686 -0.6044 -0.1504  0.8258
 4021TIP3    H233555   0.589   1.910   3.817 -1.9563  0.4612  1.2384
 4022TIP3   OH233556   5.128   1.842  10.323 -0.1759 -0.2234  0.1581
 4022TIP3    H133557   5.088   1.917  10.367 -0.2002 -1.2732  2.0156
 4022TIP3    H233558   5.217   1.837  10.359 -0.2967 -1.2938  0.3553
 4023TIP3   OH233559   3.799   6.949  15.397  0.6040  0.1697  0.1314
 4023TIP3    H133560   3.831   6.960  15.308 -0.3928  0.7415 -0.1680
 4023TIP3    H233561   3.704   6.961  15.391  0.4758 -0.1764  1.2026
 4024TIP3   OH233562   0.745   0.285  10.244 -0.5238 -0.2620  0.5242
 4024TIP3    H133563   0.813   0.352  10.238 -1.2371  0.3824 -1.2654
 4024TIP3    H233564   0.761   0.241  10.327 -0.5567  2.6807  2.2137
 4025TIP3   OH233565   0.025   0.428  12.762  0.7156  0.4930  0.0598
 4025TIP3    H133566   0.060   0.352  12.716  2.1405  2.2869 -2.0728
 4025TIP3    H233567   0.072   0.431  12.845 -0.8180 -1.9942  1.1238
 4026TIP3   OH233568   6.799   0.514   0.793  0.3338  0.0702 -0.3628
 4026TIP3    H133569   6.874   0.570   0.771  2.0813 -1.6364  0.8908
 4026TIP3    H233570   6.823   0.428   0.759 -0.3674 -0.8412  1.3077
 4027TIP3   OH233571   5.422   3.622  10.242 -0.3899 -0.5838 -0.1104
 4027TIP3    H133572   5.334   3.631  10.204 -0.0397 -0.6411 -0.9566
 4027TIP3    H233573   5.478   3.598  10.168  0.5332  0.4654  0.2268
 4028TIP3   OH233574   0.649   6.011  11.256  0.5881 -0.5295  0.2252
 4028TIP3    H133575   0.616   5.968  11.335 -0.4902 -0.8838 -0.4004
 4028TIP3    H233576   0.589   6.084  11.242  0.0546 -1.1557 -0.9068
 4029TIP3   OH233577   5.186   6.975  10.615  0.3196 -0.5023 -0.1854
 4029TIP3    H133578   5.177   6.968  10.520 -0.3399 -1.3745 -0.0692
 4029TIP3    H233579   5.105   6.937  10.649  1.2492 -1.6798  0.7638
 4030TIP3   OH233580   1.905   2.304  15.052 -0.0993  0.9836  0.3829
 4030TIP3    H133581   1.863   2.387  15.076 -2.9459 -0.1409 -0.3210
 4030TIP3    H233582   1.836   2.238  15.062  1.8673 -1.2320  0.2419
 4031TIP3   OH233583   0.409   2.929  10.643  0.2620  0.2151  0.3104
 4031TIP3    H133584   0.430   2.983  10.719  0.2011  0.4216  0.1830
 4031TIP3    H233585   0.493   2.910  10.602  0.1816  1.4663 -0.4911
 4032TIP3   OH233586   3.916   5.310   0.485  0.1773  0.1525  0.3828
 4032TIP3    H133587   3.829   5.343   0.509  0.1056  0.1408  0.1368
 4032TIP3    H233588   3.913   5.218   0.509 -0.6656 -0.4233 -1.6694
 4033TIP3   OH233589   5.496   3.162  10.977  0.2076  0.2440  0.7037
 4033TIP3    H133590   5.456   3.201  11.054  1.3256  1.2877  0.7758
 4033TIP3    H233591   5.477   3.223  10.906 -1.8869 -1.3021 -0.1665
 4034TIP3   OH233592   5.341   3.297   3.620 -0.1675 -0.3046 -0.0666
 4034TIP3    H133593   5.428   3.297   3.579 -0.1205 -0.0181  0.0288
 4034TIP3    H233594   5.305   3.383   3.598  0.4493  0.4499  1.7257
 4035TIP3   OH233595   5.469   5.829  14.691  0.1242 -0.1381 -0.3738
 4035TIP3    H133596   5.517   5.763  14.740 -0.5098  0.6751  1.4298
 4035TIP3    H233597   5.388   5.785  14.665 -0.5890  0.0531  1.3797
 4036TIP3   OH233598   1.179   3.057   9.919  0.4914 -0.1931  0.5906
 4036TIP3    H133599   1.208   3.140   9.957  0.2697  0.5407 -0.7848
 4036TIP3    H233600   1.101   3.079   9.869 -0.5194 -1.5475  1.5148
 4037TIP3   OH233601   1.412   5.613  11.572  0.1479  0.2747 -0.0576
 4037TIP3    H133602   1.354   5.648  11.504 -1.2089  2.3704  2.0286
 4037TIP3    H233603   1.355   5.559  11.626  0.8589 -0.1547  0.2674
 4038TIP3   OH233604   2.285   6.717  10.917  0.0754 -0.3240  0.0226
 4038TIP3    H133605   2.209   6.709  10.974 -0.4374 -1.8699 -0.8388
 4038TIP3    H233606   2.299   6.812  10.910 -0.3099 -0.0632  2.0479
 4039TIP3   OH233607   1.172   6.024   1.431  0.2595  0.1153  0.7919
 4039TIP3    H133608   1.219   6.046   1.511 -0.0672 -0.9486  1.2935
 4039TIP3    H233609   1.193   6.095   1.371  2.4547 -0.2622  1.0208
 4040TIP3   OH233610   3.914   2.004   4.697  0.3917 -0.5606  0.0519
 4040TIP3    H133611   3.938   1.926   4.748 -0.7254 -0.3085  1.0148
 4040TIP3    H233612   3.915   2.075   4.760 -3.3637 -0.6097  0.4179
 4041TIP3   OH233613   4.008   4.410   1.944 -0.0973  0.5642  0.2849
 4041TIP3    H133614   4.058   4.455   1.875 -0.0893  0.5258  0.2652
 4041TIP3    H233615   4.075   4.381   2.006 -0.1675  1.2192  0.6737
 4042TIP3   OH233616   5.817   2.090  10.218 -0.8380 -0.0773 -0.3182
 4042TIP3    H133617   5.786   2.175  10.250 -0.7158  0.2041 -0.9336
 4042TIP3    H233618   5.877   2.112  10.147  0.1159 -0.6384  0.2990
 4043TIP3   OH233619   1.760   2.491   3.354  0.1562 -0.4228  0.1008
 4043TIP3    H133620   1.683   2.505   3.300 -0.1945 -1.2177  0.3764
 4043TIP3    H233621   1.819   2.563   3.331 -0.3802 -0.2002 -0.6159
 4044TIP3   OH233622   1.043   0.548  13.579  0.2177  0.1130  0.4626
 4044TIP3    H133623   1.057   0.640  13.602  1.2825  0.1719 -0.3504
 4044TIP3    H233624   1.056   0.544  13.484  1.0927 -1.0180  0.5985
 4045TIP3   OH233625   4.791   1.579  15.019  0.6995 -0.2636  0.4380
 4045TIP3    H133626   4.860   1.628  15.064 -0.3984  0.7309  1.1040
 4045TIP3    H233627   4.791   1.615  14.930 -0.1170  1.0046  0.9300
 4046TIP3   OH233628   5.502   2.425   3.673 -0.3761  0.6294 -0.0876
 4046TIP3    H133629   5.443   2.485   3.718 -0.3248 -0.9558  2.2667
 4046TIP3    H233630   5.559   2.390   3.742 -0.3698 -2.0586 -1.3135
 4047TIP3   OH233631   0.798   0.467  13.154  0.4713 -0.5172 -0.0356
 4047TIP3    H133632   0.855   0.417  13.212 -0.9420 -1.1245  0.8962
 4047TIP3    H233633   0.817   0.435  13.066  2.1924 -0.0467  0.1400
 4048TIP3   OH233634   1.499   3.298  13.049  0.2786  0.3364  0.6953
 4048TIP3    H133635   1.439   3.259  13.113 -0.8101  0.4672 -0.2242
 4048TIP3    H233636   1.500   3.237  12.976 -0.6538  1.5098 -0.3311
 4049TIP3   OH233637   7.119   1.263  10.419  0.3370  0.6768  0.5108
 4049TIP3    H133638   7.209   1.294  10.412  1.1419 -1.6068  0.0519
 4049TIP3    H233639   7.111   1.232  10.509 -0.3250  1.6884  0.8280
 4050TIP3   OH233640   4.905   0.513  14.980 -0.2401 -0.0435 -0.1494
 4050TIP3    H133641   4.952   0.566  14.916 -0.3490 -0.6858 -0.7795
 4050TIP3    H233642   4.821   0.557  14.992  0.9087  1.7534  1.8474
 4051TIP3   OH233643   6.812   6.336  15.372  0.1423  0.0828  0.5810
 4051TIP3    H133644   6.757   6.336  15.294 -0.1520 -1.4320  0.7565
 4051TIP3    H233645   6.850   6.249  15.375 -1.2288 -0.5483  3.0480
 4052TIP3   OH233646   2.089   6.351  15.332 -0.4364  0.1197 -0.4041
 4052TIP3    H133647   2.183   6.348  15.352 -0.6829  1.6632  1.2633
 4052TIP3    H233648   2.049   6.301  15.403 -0.8487 -1.7079 -1.8413
 4053TIP3   OH233649   2.470   1.379  14.961  0.2398 -0.2276  0.3790
 4053TIP3    H133650   2.433   1.302  15.003  0.6246  0.1719  1.4989
 4053TIP3    H233651   2.549   1.347  14.917 -0.0275 -0.6060  0.1699
 4054TIP3   OH233652   6.729   6.062   9.514 -0.0217 -0.0896 -0.3955
 4054TIP3    H133653   6.677   5.990   9.550 -0.0112 -0.3692 -0.9226
 4054TIP3    H233654   6.817   6.048   9.549 -0.3174  0.4646  0.6104
 4055TIP3   OH233655   7.005   4.985  14.372  0.3306  0.2893  0.1608
 4055TIP3    H133656   6.949   4.913  14.399  0.2367  0.1750 -0.3256
 4055TIP3    H233657   7.080   4.982  14.432  0.9984 -1.0636 -0.6885
 4056TIP3   OH233658   4.120   7.156  14.691  0.3293 -0.9450  0.3307
 4056TIP3    H133659   4.116   7.131  14.599 -0.2200 -0.3804  0.1927
 4056TIP3    H233660   4.213   7.156  14.712  0.4988 -0.4558 -0.3962
 4057TIP3   OH233661   0.502   1.837   5.544  0.6819  0.1376  0.3403
 4057TIP3    H133662   0.566   1.903   5.570  0.0619  0.7586  0.3243
 4057TIP3    H233663   0.456   1.814   5.625  0.7677 -0.1261  0.3129
 4058TIP3   OH233664   1.229   6.596  10.266 -0.0923  0.1033  0.0076
 4058TIP3    H133665   1.150   6.592  10.319  0.9620 -1.3217  1.5555
 4058TIP3    H233666   1.273   6.512  10.280  1.2396  0.4673 -1.5602
 4059TIP3   OH233667   4.664   6.313  11.819 -0.2852  0.4942  0.4558
 4059TIP3    H133668   4.658   6.308  11.724  0.3857 -2.4623  0.4586
 4059TIP3    H233669   4.592   6.369  11.845 -0.5752  1.2513 -1.7631
 4060TIP3   OH233670   1.467   5.052  14.361  0.1967 -1.2866 -0.0170
 4060TIP3    H133671   1.560   5.073  14.361  0.1370 -0.7312 -2.6891
 4060TIP3    H233672   1.431   5.101  14.435  1.6439  0.4190 -0.3908
 4061TIP3   OH233673   1.370   3.638  12.753  0.0674 -0.1098  0.2994
 4061TIP3    H133674   1.305   3.572  12.775 -0.0909  0.5166  1.8657
 4061TIP3    H233675   1.421   3.599  12.682 -1.8181 -0.7130 -0.7827
 4062TIP3   OH233676   6.351   3.632   9.848  0.0109 -0.0970 -0.0914
 4062TIP3    H133677   6.287   3.588   9.792 -0.3927  1.5369 -0.9823
 4062TIP3    H233678   6.434   3.587   9.829 -0.4247 -0.6511 -0.7615
 4063TIP3   OH233679   4.348   2.726  10.454  0.2888 -0.1202  0.9248
 4063TIP3    H133680   4.407   2.757  10.522 -1.9893  1.3987  2.3368
 4063TIP3    H233681   4.391   2.751  10.372  2.5618 -1.0097  1.7409
 4064TIP3   OH233682   3.549   2.448   3.510 -0.0983 -0.2245 -0.2076
 4064TIP3    H133683   3.615   2.509   3.543 -0.6392  0.6526 -0.7222
 4064TIP3    H233684   3.599   2.370   3.486  0.3688 -0.8515  2.4208
 4065TIP3   OH233685   5.163   6.186   2.209  0.1186  0.1778 -0.1190
 4065TIP3    H133686   5.179   6.221   2.297  1.4880  0.9622 -0.6434
 4065TIP3    H233687   5.199   6.098   2.211  2.2283  0.9767 -0.4941
 4066TIP3   OH233688   5.711   6.410  12.803 -0.1491  0.1599 -0.2458
 4066TIP3    H133689   5.772   6.337  12.806 -0.6193 -0.2218  0.0237
 4066TIP3    H233690   5.759   6.479  12.757  0.4600 -0.1578 -0.0956
 4067TIP3   OH233691   0.603   3.129  10.556  0.5072 -0.0909 -0.3484
 4067TIP3    H133692   0.638   3.045  10.526 -1.6952 -1.5540  0.8860
 4067TIP3    H233693   0.521   3.140  10.508 -0.1731  0.3925  0.8777
 4068TIP3   OH233694   2.302   6.035  12.448 -0.1578  0.2523  0.2415
 4068TIP3    H133695   2.316   6.067  12.359 -2.0165 -1.1703 -0.6331
 4068TIP3    H233696   2.374   5.975  12.464  0.1058  0.3970 -0.3699
 4069TIP3   OH233697   4.516   0.847  10.922  0.3327  0.2283 -0.0157
 4069TIP3    H133698   4.542   0.763  10.885 -0.3618  0.4608 -1.0544
 4069TIP3    H233699   4.484   0.898  10.848 -1.4478  0.5719  0.9226
 4070TIP3   OH233700   3.413   5.103   5.456  0.3066  0.4110 -0.3180
 4070TIP3    H133701   3.470   5.096   5.532  0.8684  0.1976 -0.7502
 4070TIP3    H233702   3.457   5.164   5.397  0.0404  0.3241 -0.6131
 4071TIP3   OH233703   2.712   1.683  13.702 -0.3404 -0.0139  0.7073
 4071TIP3    H133704   2.725   1.760  13.647 -2.9562 -0.5566 -0.8519
 4071TIP3    H233705   2.749   1.611  13.652  0.0139 -0.0951  1.0857
 4072TIP3   OH233706   3.970   5.244  10.624  1.0670 -0.0056  0.1273
 4072TIP3    H133707   3.905   5.190  10.668  2.3259 -0.5216  1.4559
 4072TIP3    H233708   3.944   5.243  10.531 -0.7287 -0.2458  0.5988
 4073TIP3   OH233709   5.745   2.583  12.048 -0.1049 -0.4519 -0.3776
 4073TIP3    H133710   5.768   2.673  12.027 -0.5359 -0.0522  0.8025
 4073TIP3    H233711   5.652   2.586  12.071 -0.2242 -1.2651 -0.7228
 4074TIP3   OH233712   3.443   5.115  10.170  0.0849 -0.2869 -0.0347
 4074TIP3    H133713   3.514   5.158  10.123 -1.8464  2.4190 -0.7691
 4074TIP3    H233714   3.450   5.023  10.145  2.1615  0.2127 -1.5756
 4075TIP3   OH233715   5.914   2.822   1.271  0.6766  0.2234  0.6687
 4075TIP3    H133716   6.005   2.817   1.302  1.4863 -0.3764 -1.5933
 4075TIP3    H233717   5.904   2.744   1.216 -0.8627  0.8833 -0.0323
 4076TIP3   OH233718   0.778   1.105   5.388  0.3366  0.1119  0.3415
 4076TIP3    H133719   0.819   1.177   5.340  1.2264 -0.5751  0.0440
 4076TIP3    H233720   0.761   1.142   5.475  0.0711  0.9122 -0.0403
 4077TIP3   OH233721   1.406   7.006  15.384 -0.2495 -0.1831 -0.0173
 4077TIP3    H133722   1.388   6.923  15.340 -0.6799  0.5049 -1.1828
 4077TIP3    H233723   1.351   7.069  15.339 -0.9555  0.5207  1.7255
 4078TIP3   OH233724   6.947   3.906   0.003 -0.6004  0.1601 -0.0829
 4078TIP3    H133725   7.006   3.950  -0.058 -0.7738  1.8435  0.9114
 4078TIP3    H233726   6.860   3.933  -0.025 -0.6825  0.9276  0.8679
 4079TIP3   OH233727   6.495   4.560   1.601 -0.8947  0.2232  0.0005
 4079TIP3    H133728   6.540   4.644   1.600 -2.7545  1.3066  1.4648
 4079TIP3    H233729   6.544   4.506   1.539  0.8463  2.0988 -0.3551
 4080TIP3   OH233730   0.571   3.723  14.073 -0.1104 -0.3364  0.2093
 4080TIP3    H133731   0.606   3.722  14.162 -1.2000  0.1973  0.6676
 4080TIP3    H233732   0.644   3.751  14.018 -0.1539  2.0840  1.2944
 4081TIP3   OH233733   3.242   0.096  14.287  0.6726 -0.1089 -0.4206
 4081TIP3    H133734   3.157   0.069  14.252  0.5259 -1.5762  0.9915
 4081TIP3    H233735   3.228   0.187  14.314 -0.0336  0.1039 -1.4077
 4082TIP3   OH233736   5.744   6.890   2.060  0.2597 -0.5575 -0.0849
 4082TIP3    H133737   5.753   6.966   2.117  0.7195 -1.7161  1.4551
 4082TIP3    H233738   5.655   6.897   2.024 -0.0893  0.1435  0.8742
 4083TIP3   OH233739   2.307   5.961   1.860  0.6587 -0.0182 -0.1425
 4083TIP3    H133740   2.399   5.939   1.869  0.7517  0.3347 -0.2322
 4083TIP3    H233741   2.295   6.040   1.912  0.2841 -0.3686  0.3168
 4084TIP3   OH233742   0.005   0.008  10.667  0.1503 -0.2183 -0.2885
 4084TIP3    H133743  -0.083   0.008  10.629  0.1299 -0.9035 -0.2594
 4084TIP3    H233744   0.016   0.096  10.704 -0.7757 -0.3426  0.2993
 4085TIP3   OH233745   2.740   6.069  12.304 -0.5635 -0.2042  0.7391
 4085TIP3    H133746   2.720   6.132  12.374 -0.2274  0.5827  0.1497
 4085TIP3    H233747   2.723   6.118  12.223  0.5782 -0.5697  0.2558
 4086TIP3   OH233748   5.975   2.062   9.608 -0.3192  0.4052  0.3279
 4086TIP3    H133749   5.906   2.083   9.671  0.1066  0.1861  0.8747
 4086TIP3    H233750   6.053   2.108   9.640  0.0632 -0.2205  0.3160
 4087TIP3   OH233751   2.258   5.832  14.013  0.6790 -0.3793 -0.0777
 4087TIP3    H133752   2.338   5.866  14.053  0.1356  1.9355 -0.7830
 4087TIP3    H233753   2.205   5.801  14.086  0.9199  1.0539  0.7362
 4088TIP3   OH233754   2.559   1.038   2.225  0.1113  0.5770 -0.3767
 4088TIP3    H133755   2.556   1.058   2.319  1.9501 -0.4978 -0.0397
 4088TIP3    H233756   2.573   0.943   2.221  0.5978  0.6850 -1.7306
 4089TIP3   OH233757   6.693   0.954  14.941  0.4006 -0.1049 -0.5609
 4089TIP3    H133758   6.768   1.012  14.929  0.6057 -0.0951  0.7001
 4089TIP3    H233759   6.624   1.010  14.976  0.8403 -0.7192  1.4208
 4090TIP3   OH233760   6.504   0.113   3.123  0.0005 -0.4871  0.2785
 4090TIP3    H133761   6.448   0.043   3.088 -0.1558  0.0163 -0.4962
 4090TIP3    H233762   6.465   0.134   3.208 -1.4544  0.3484 -0.5554
 4091TIP3   OH233763   0.958   6.797  14.162  0.6008  0.1525  0.1095
 4091TIP3    H133764   0.971   6.819  14.070  0.0929 -0.4974 -0.1285
 4091TIP3    H233765   0.995   6.709  14.171  1.9053  0.7381  0.8577
 4092TIP3   OH233766   0.586   3.748   4.940  0.1954 -0.1540  0.0306
 4092TIP3    H133767   0.607   3.721   5.030  1.5746 -0.7213 -0.4304
 4092TIP3    H233768   0.607   3.672   4.887 -3.3807 -0.8876 -0.5425
 4093TIP3   OH233769   5.386   2.917   0.447 -0.0517 -0.4550  0.5945
 4093TIP3    H133770   5.451   2.987   0.448  0.7657 -1.1755 -0.1208
 4093TIP3    H233771   5.412   2.861   0.520 -0.1959 -0.4571  0.6436
 4094TIP3   OH233772   6.199   0.449  11.135 -0.1588 -1.0180 -0.0347
 4094TIP3    H133773   6.287   0.419  11.153 -0.8916 -2.8578  0.7127
 4094TIP3    H233774   6.175   0.501  11.212  0.1487 -0.7755 -0.1018
 4095TIP3   OH233775   2.790   5.195   1.507 -0.1692  0.1915 -0.0307
 4095TIP3    H133776   2.786   5.285   1.539  0.4837  0.3809 -0.4649
 4095TIP3    H233777   2.803   5.142   1.586  1.4693  0.6590  0.0465
 4096TIP3   OH233778   4.778   2.684   1.466 -0.0581  0.2373 -0.2739
 4096TIP3    H133779   4.827   2.643   1.537 -0.1714 -0.3308 -0.5229
 4096TIP3    H233780   4.698   2.633   1.459  0.7195 -0.8499 -1.9853
 4097TIP3   OH233781   2.698   7.003  11.853 -0.4932 -0.4358  0.1601
 4097TIP3    H133782   2.624   6.987  11.912 -1.0788  1.9601  0.1616
 4097TIP3    H233783   2.663   6.985  11.766 -1.4655  1.6387  0.0598
 4098TIP3   OH233784   0.189   3.671   0.037 -0.3719 -0.2693 -0.4619
 4098TIP3    H133785   0.153   3.752   0.074  1.9252  0.1084  1.1806
 4098TIP3    H233786   0.243   3.635   0.107  0.1967 -2.2180 -1.8375
 4099TIP3   OH233787   4.953   3.406  12.728 -0.2146  0.1323 -0.2404
 4099TIP3    H133788   4.963   3.465  12.652  0.2414  1.1367  0.5664
 4099TIP3    H233789   4.931   3.321  12.690 -0.6270  0.7593 -1.4657
 4100TIP3   OH233790   1.151   1.466  12.839 -0.0460  0.0139  0.4281
 4100TIP3    H133791   1.173   1.542  12.894  1.0967 -0.8669  1.2559
 4100TIP3    H233792   1.200   1.480  12.758  1.3520 -0.5235  1.1486
 4101TIP3   OH233793   4.818   3.610  12.050  0.4856 -0.2400 -0.0468
 4101TIP3    H133794   4.748   3.583  12.109 -0.4165  2.8501  0.4779
 4101TIP3    H233795   4.886   3.543  12.060 -1.6249 -2.3779  0.7723
 4102TIP3   OH233796   3.178   1.260   9.890  0.4462  0.2691  0.2057
 4102TIP3    H133797   3.267   1.293   9.896  0.5940 -0.1504  0.3296
 4102TIP3    H233798   3.185   1.166   9.911 -0.1111  0.3597  0.8115
 4103TIP3   OH233799   2.763   0.455  15.448  0.1637 -0.7646 -0.2479
 4103TIP3    H133800   2.820   0.392  15.493  1.0147  0.0429 -0.1612
 4103TIP3    H233801   2.680   0.409  15.438 -0.2594 -0.8363  2.6486
 4104TIP3   OH233802   4.379   7.033  12.559  0.2398  0.0419  0.1706
 4104TIP3    H133803   4.327   7.097  12.609 -0.2580 -0.6459  0.5386
 4104TIP3    H233804   4.386   6.957  12.616  3.0725  0.6960  0.8311
 4105TIP3   OH233805   5.421   1.596   3.284  0.2746 -0.0020  0.1448
 4105TIP3    H133806   5.404   1.529   3.218  1.2806 -0.8386  0.6939
 4105TIP3    H233807   5.501   1.639   3.255 -0.5426  1.2109 -0.3730
 4106TIP3   OH233808   2.892   6.972  14.298 -0.0690  0.0334 -0.3538
 4106TIP3    H133809   2.920   7.056  14.335  1.6667 -0.9304  0.6073
 4106TIP3    H233810   2.901   6.983  14.203  0.0314  0.9522 -0.2485
 4107TIP3   OH233811   3.350   4.323   0.918  0.2454 -0.0291 -0.1667
 4107TIP3    H133812   3.402   4.302   0.840 -1.2561 -0.5159 -1.0737
 4107TIP3    H233813   3.282   4.382   0.886 -1.2883 -1.3905  0.4507
 4108TIP3   OH233814   4.869   4.494  10.589 -0.5269 -0.1367  0.3204
 4108TIP3    H133815   4.893   4.571  10.538  2.1664 -1.2715 -0.2931
 4108TIP3    H233816   4.816   4.442  10.530 -1.3437  0.6659  0.3250
 4109TIP3   OH233817   5.720   6.825   0.475 -0.8893 -0.3544  0.0326
 4109TIP3    H133818   5.650   6.880   0.439 -1.1346 -1.9707 -2.1106
 4109TIP3    H233819   5.751   6.773   0.401  3.6785  1.2760  0.4533
 4110TIP3   OH233820   1.062   0.044  12.505  0.2134 -0.0094  0.4571
 4110TIP3    H133821   0.993   0.077  12.561  1.1462  3.0686 -0.0095
 4110TIP3    H233822   1.017  -0.005  12.436 -1.2762 -0.0582  1.4467
 4111TIP3   OH233823   0.963   5.787  11.467  0.3008  0.2118  0.7152
 4111TIP3    H133824   1.037   5.782  11.406 -1.0227 -1.4165 -0.8476
 4111TIP3    H233825   0.931   5.877  11.458  0.7912  0.3099 -0.1748
 4112TIP3   OH233826   2.607   0.358  10.604 -0.6151  0.1116 -0.6843
 4112TIP3    H133827   2.698   0.381  10.624 -0.6277 -1.2800  1.3583
 4112TIP3    H233828   2.614   0.273  10.559 -0.8768  0.1414 -0.7771
 4113TIP3   OH233829   3.170   5.143  10.768 -0.2137 -0.1302  0.3157
 4113TIP3    H133830   3.088   5.180  10.733  0.5554 -0.6691 -2.2536
 4113TIP3    H233831   3.157   5.142  10.863 -2.7404  0.8373  0.0578
 4114TIP3   OH233832   1.371   2.337  11.761 -0.2802  0.4317  0.5810
 4114TIP3    H133833   1.362   2.319  11.668  0.7708 -1.3715  0.7637
 4114TIP3    H233834   1.446   2.396  11.768 -0.1522  0.3023  0.2984
 4115TIP3   OH233835   0.853   3.165  10.665  0.2806 -0.6057  0.1413
 4115TIP3    H133836   0.768   3.151  10.623  1.1313 -1.2014 -1.4873
 4115TIP3    H233837   0.881   3.251  10.634  0.8068 -0.9440 -0.3540
 4116TIP3   OH233838   5.615   1.967  13.388 -0.1407 -0.2984 -0.2857
 4116TIP3    H133839   5.607   1.875  13.414 -0.1869  0.0377  0.9503
 4116TIP3    H233840   5.525   2.001  13.391  0.0861  0.2523  1.1453
 4117TIP3   OH233841   3.482   6.186  11.958 -0.3680 -0.0504 -0.3307
 4117TIP3    H133842   3.563   6.158  12.001  1.6900  2.4766 -2.2815
 4117TIP3    H233843   3.436   6.104  11.940  1.8739 -1.6197  0.5820
 4118TIP3   OH233844   4.696   3.894   5.666 -0.0054  0.0974  0.0355
 4118TIP3    H133845   4.749   3.928   5.738  0.4648  0.6475 -0.5515
 4118TIP3    H233846   4.761   3.866   5.601 -0.4281 -0.0730 -0.3159
 4119TIP3   OH233847   3.931   0.975  12.794 -0.4046  0.7462 -0.1183
 4119TIP3    H133848   3.903   0.898  12.843  1.4688  0.5546  0.7347
 4119TIP3    H233849   3.853   1.030  12.787 -1.1080  0.0055  1.6349
 4120TIP3   OH233850   5.947   3.292  13.878  0.3138 -0.2172 -0.3195
 4120TIP3    H133851   5.987   3.205  13.879 -1.3781 -1.0302  0.2614
 4120TIP3    H233852   5.989   3.339  13.950  0.4791 -0.9289  0.0588
 4121TIP3   OH233853   2.878   4.022  13.983 -0.4464  0.0141 -0.0292
 4121TIP3    H133854   2.910   4.006  13.894 -1.4649  1.3756 -0.6693
 4121TIP3    H233855   2.926   4.099  14.012 -0.1614 -0.3898  0.5945
 4122TIP3   OH233856   2.698   4.740  11.147  0.0888  0.1284  0.2523
 4122TIP3    H133857   2.730   4.663  11.102  0.7506  1.3179 -1.4223
 4122TIP3    H233858   2.631   4.776  11.089 -0.3045  0.7419  1.0653
 4123TIP3   OH233859   4.769   4.660   2.876 -0.2439  0.0005  0.3234
 4123TIP3    H133860   4.769   4.686   2.968 -1.2384  0.5833  0.1785
 4123TIP3    H233861   4.736   4.570   2.876 -0.8351  0.2123  0.4971
 4124TIP3   OH233862   5.782   3.925  13.818  0.2120  0.2304 -0.2478
 4124TIP3    H133863   5.747   3.933  13.907 -1.6217  2.5664 -1.0647
 4124TIP3    H233864   5.781   3.831  13.800 -0.2487 -0.2252  1.8429
 4125TIP3   OH233865   4.696   2.470  10.378  0.1720  0.3970 -0.1249
 4125TIP3    H133866   4.727   2.555  10.409 -0.2793  0.9549 -1.1657
 4125TIP3    H233867   4.771   2.411  10.388  0.8808  1.2101 -0.5942
 4126TIP3   OH233868   5.767   4.908  12.630 -0.0285  0.2107 -0.7878
 4126TIP3    H133869   5.700   4.910  12.697 -0.0695 -1.4790 -0.7358
 4126TIP3    H233870   5.776   4.816  12.607  0.8542  0.6094 -2.2304
 4127TIP3   OH233871   0.360   6.267  15.015  0.0114  0.2063  0.2138
 4127TIP3    H133872   0.454   6.261  15.001  0.1851 -1.0267  1.5920
 4127TIP3    H233873   0.349   6.335  15.081 -0.2709  1.7459 -1.3606
 4128TIP3   OH233874   0.092   0.839   1.209 -0.5632 -0.2082  0.5116
 4128TIP3    H133875   0.067   0.773   1.274 -3.4506  0.8978  0.6918
 4128TIP3    H233876   0.129   0.788   1.137 -0.6023 -1.8061  1.5598
 4129TIP3   OH233877   4.093   4.669  14.349  0.5368 -0.0636  0.2153
 4129TIP3    H133878   4.121   4.620  14.426 -0.0391 -2.0887 -0.8069
 4129TIP3    H233879   4.071   4.603  14.285 -1.5713  1.5108 -0.8058
 4130TIP3   OH233880   2.735   5.040   0.619  0.2137 -0.2995  0.4959
 4130TIP3    H133881   2.676   5.036   0.544  0.4757 -0.5770  0.3020
 4130TIP3    H233882   2.810   5.092   0.588  0.3920 -0.5420  0.5120
 4131TIP3   OH233883   5.518   5.069   2.129  0.3884 -0.0395  0.3214
 4131TIP3    H133884   5.483   4.982   2.151  0.0642  0.0543  0.1851
 4131TIP3    H233885   5.555   5.059   2.042 -0.7759  0.2678 -0.2220
 4132TIP3   OH233886   2.264   6.921   9.855  0.3077  0.1233 -0.2000
 4132TIP3    H133887   2.357   6.916   9.837  0.4963 -1.5221  1.0230
 4132TIP3    H233888   2.225   6.850   9.803 -0.4597  1.5250 -1.6261
 4133TIP3   OH233889   5.761   5.645   0.707 -0.9860 -0.2856  0.4067
 4133TIP3    H133890   5.799   5.563   0.676 -0.3849 -0.8964  2.5795
 4133TIP3    H233891   5.689   5.662   0.646  1.5953  0.0599 -2.8795
 4134TIP3   OH233892   6.935   0.127   1.332  0.0697  0.5559 -0.3215
 4134TIP3    H133893   7.022   0.143   1.295  0.4519  0.6603  0.5921
 4134TIP3    H233894   6.882   0.099   1.258  1.1802 -0.6271 -0.7016
 4135TIP3   OH233895   3.056   0.068  11.907 -0.1971 -0.9672  0.0528
 4135TIP3    H133896   3.016  -0.018  11.918 -1.2431 -0.5042  0.0106
 4135TIP3    H233897   3.001   0.112  11.843  0.1496 -0.1530  0.2988
 4136TIP3   OH233898   3.623   6.325  10.733  0.0850 -0.3893 -0.5964
 4136TIP3    H133899   3.590   6.359  10.816 -0.8712 -0.7817 -0.7978
 4136TIP3    H233900   3.563   6.254  10.710  0.2083 -0.1572 -1.7323
 4137TIP3   OH233901   3.345   6.129  12.774 -0.0428 -0.1820 -0.5251
 4137TIP3    H133902   3.437   6.142  12.749  0.3062  0.6019  1.0442
 4137TIP3    H233903   3.301   6.207  12.742  0.0691  0.0219 -0.1762
 4138TIP3   OH233904   1.798   2.261  14.209 -0.2572 -0.0041  0.3201
 4138TIP3    H133905   1.868   2.292  14.153 -1.2717  1.7450 -0.0261
 4138TIP3    H233906   1.793   2.325  14.280  0.0674 -1.4129  1.6731
 4139TIP3   OH233907   3.460   0.014  11.927  0.4175  0.8338  0.3984
 4139TIP3    H133908   3.386  -0.036  11.893  1.8276 -0.1579 -1.3202
 4139TIP3    H233909   3.430   0.105  11.924 -1.1872  0.3685  1.0149
 4140TIP3   OH233910   4.256   5.599  12.817  0.3704 -0.0718  0.1921
 4140TIP3    H133911   4.315   5.619  12.890 -0.2398 -2.5365  1.4700
 4140TIP3    H233912   4.308   5.544  12.759  0.2211  0.2087 -0.2098
 4141TIP3   OH233913   3.314   7.101  14.503 -0.1624  0.2348 -0.3631
 4141TIP3    H133914   3.303   7.146  14.419 -1.2546  1.0753  0.2101
 4141TIP3    H233915   3.325   7.008  14.479  1.9750  0.7347 -1.5537
 4142TIP3   OH233916   4.961   5.948  10.414 -0.0927  0.0613  0.0861
 4142TIP3    H133917   5.019   5.901  10.474 -2.1059 -2.8428 -0.0369
 4142TIP3    H233918   5.020   5.992  10.353  1.9641 -0.9580  1.2456
 4143TIP3   OH233919   4.585   6.709  12.683 -0.2744  0.4081 -0.2229
 4143TIP3    H133920   4.513   6.694  12.622  0.6880  0.4307 -1.3969
 4143TIP3    H233921   4.637   6.778  12.642 -0.7325  1.9594  1.6417
 4144TIP3   OH233922   0.806   5.674  11.669 -0.1635  0.1081 -0.0906
 4144TIP3    H133923   0.842   5.667  11.757 -0.7865 -0.6196  0.1239
 4144TIP3    H233924   0.882   5.690  11.613  0.2346  0.5790  0.5768
 4145TIP3   OH233925   1.559   2.186  13.857  0.2771 -0.3442  0.1999
 4145TIP3    H133926   1.614   2.116  13.889  0.7679  0.6209  1.5704
 4145TIP3    H233927   1.556   2.250  13.928 -0.9839  0.5595 -0.5950
 4146TIP3   OH233928   4.118   6.541  14.789 -0.1302  0.4017 -0.0616
 4146TIP3    H133929   4.034   6.519  14.749  0.5137 -0.7348 -0.8769
 4146TIP3    H233930   4.168   6.459  14.784  0.2196  0.3879  2.5542
 4147TIP3   OH233931   7.009   4.871  13.039  0.6117 -0.1254  0.3112
 4147TIP3    H133932   7.079   4.838  12.983  0.9994  0.2978  0.5380
 4147TIP3    H233933   7.007   4.965  13.021  0.0137 -0.1571  0.2119
 4148TIP3   OH233934   0.826   5.783  13.373 -0.6373 -0.0186 -0.6836
 4148TIP3    H133935   0.808   5.714  13.437 -1.7837 -0.5717 -1.5607
 4148TIP3    H233936   0.800   5.745  13.289  1.5136  0.4283 -1.6155
 4149TIP3   OH233937   0.021   0.366  11.579 -0.2813  0.4594 -0.4908
 4149TIP3    H133938   0.061   0.379  11.493  0.7155  0.2697 -0.0700
 4149TIP3    H233939   0.087   0.398  11.641 -0.9973  0.6124  0.2050
 4150TIP3   OH233940   5.479   0.295   1.661 -0.2073  0.5321 -0.2013
 4150TIP3    H133941   5.457   0.205   1.685 -0.7456  0.7008 -0.0547
 4150TIP3    H233942   5.525   0.287   1.578  1.0005  0.0075  0.4893
 4151TIP3   OH233943   7.143   1.107   0.965 -0.1269 -0.0362 -0.0000
 4151TIP3    H133944   7.183   1.188   0.936 -0.6009  0.6213  1.0994
 4151TIP3    H233945   7.088   1.133   1.040  2.0710 -1.7714  2.3960
 4152TIP3   OH233946   3.547   1.667  15.015  0.2651  0.0415 -0.3700
 4152TIP3    H133947   3.583   1.743  14.969  0.6907 -0.4138 -0.8014
 4152TIP3    H233948   3.624   1.617  15.044 -0.0054 -0.0390  0.2376
 4153TIP3   OH233949   6.577   6.445  12.898 -0.3431  0.2298  0.8441
 4153TIP3    H133950   6.516   6.379  12.931  1.1007 -2.7340 -1.8514
 4153TIP3    H233951   6.663   6.413  12.924  0.4698  0.4697 -1.3280
 4154TIP3   OH233952   0.107   0.275   2.746  0.4183  0.0999  0.5252
 4154TIP3    H133953   0.109   0.321   2.661 -0.6995 -1.6842 -0.5345
 4154TIP3    H233954   0.039   0.209   2.735  1.0545 -0.9291  2.4457
 4155TIP3   OH233955   0.824   5.687   4.960  0.4784 -0.1290  0.5151
 4155TIP3    H133956   0.887   5.625   4.924  1.3079  0.9470  0.0436
 4155TIP3    H233957   0.858   5.708   5.047  1.0852  0.8053  0.0855
 4156TIP3   OH233958   1.244   1.238   0.205 -0.1362  0.0875  0.9814
 4156TIP3    H133959   1.312   1.280   0.153 -0.2342 -1.2949 -0.3367
 4156TIP3    H233960   1.161   1.267   0.166 -0.2013 -1.7864 -0.4255
 4157TIP3   OH233961   4.630   0.728  11.900 -0.1984 -0.5942 -0.2664
 4157TIP3    H133962   4.703   0.757  11.956  1.0818 -0.5002 -1.8889
 4157TIP3    H233963   4.673   0.684  11.827 -1.8331 -0.9896 -1.0265
 4158TIP3   OH233964   0.610   6.707  12.108 -0.1829  0.1445 -0.5887
 4158TIP3    H133965   0.685   6.694  12.050 -1.0518  0.8531 -1.9240
 4158TIP3    H233966   0.636   6.778  12.166 -0.3089  1.3432 -1.9568
 4159TIP3   OH233967   2.015   7.047  11.854 -0.6226 -0.1050  1.1727
 4159TIP3    H133968   2.015   7.106  11.929 -0.5704 -0.8508  1.7794
 4159TIP3    H233969   2.104   7.051  11.819 -0.3597 -0.5291  1.7854
 4160TIP3   OH233970   6.332   3.273  11.724 -0.1215 -0.2454  0.2806
 4160TIP3    H133971   6.375   3.343  11.676  1.3331 -1.6510 -0.5639
 4160TIP3    H233972   6.352   3.291  11.816  0.6465  0.1730  0.0375
 4161TIP3   OH233973   6.073   1.348  12.214 -0.5204  0.0370  0.3960
 4161TIP3    H133974   6.048   1.264  12.252  1.7600 -0.6512  0.5131
 4161TIP3    H233975   6.085   1.330  12.121  0.8547 -0.0024  0.5702
 4162TIP3   OH233976   0.662   6.182  12.367  0.0489 -0.7742  0.1461
 4162TIP3    H133977   0.702   6.108  12.322  0.1380 -0.6439  0.0105
 4162TIP3    H233978   0.590   6.208  12.311  1.8903  1.2468 -1.4544
 4163TIP3   OH233979   2.370   1.584  11.061 -0.2299  0.3007 -0.4065
 4163TIP3    H133980   2.424   1.574  10.983 -0.3248 -1.1741 -0.3096
 4163TIP3    H233981   2.432   1.598  11.132 -0.1535  1.9279 -0.7521
 4164TIP3   OH233982   5.538   2.636  15.580 -0.1257  0.5046  0.0975
 4164TIP3    H133983   5.578   2.655  15.665  1.4759 -2.9907  0.3374
 4164TIP3    H233984   5.613   2.625  15.520 -0.9550 -1.0778 -0.7217
 4165TIP3   OH233985   3.069   3.012  14.851  0.3112 -0.3587  0.3073
 4165TIP3    H133986   3.132   3.040  14.784  0.1723 -0.8287 -0.0321
 4165TIP3    H233987   2.983   3.023  14.809  0.1883 -0.0901  0.6257
 4166TIP3   OH233988   3.926   1.546   3.878 -0.2936  0.3543 -0.5100
 4166TIP3    H133989   4.009   1.560   3.924 -0.8956 -1.1434  1.0983
 4166TIP3    H233990   3.869   1.616   3.909 -0.2347  0.2158 -0.0798
 4167TIP3   OH233991   3.469   6.903   0.070  1.0538 -0.1370 -0.1129
 4167TIP3    H133992   3.478   6.915  -0.024  0.1602  2.8977  0.1003
 4167TIP3    H233993   3.390   6.850   0.081  0.4955  0.4882 -1.0551
 4168TIP3   OH233994   1.630   0.605  13.226  0.2417 -0.5035  0.1201
 4168TIP3    H133995   1.599   0.645  13.144 -0.1951 -1.5021 -0.2130
 4168TIP3    H233996   1.565   0.632  13.291 -1.9965 -3.3073 -0.7387
 4169TIP3   OH233997   2.163   1.159  11.936 -0.0514 -0.4467  0.2377
 4169TIP3    H133998   2.198   1.139  11.849  1.5080  1.6164  0.3096
 4169TIP3    H233999   2.231   1.129  11.996  0.1200  0.5831  0.5748
 4170TIP3   OH234000   2.434   6.093   1.027  0.0248 -0.1982 -0.3672
 4170TIP3    H134001   2.393   6.129   0.949 -0.4624 -0.9674 -0.4829
 4170TIP3    H234002   2.412   6.000   1.025  1.1549 -0.4911 -0.0291
 4171TIP3   OH234003   3.121   1.595  14.551 -0.1214  0.2440 -0.2574
 4171TIP3    H134004   3.030   1.621  14.561 -0.2436 -0.5304  0.9995
 4171TIP3    H234005   3.162   1.665  14.500 -1.0317  1.4771  0.6414
 4172TIP3   OH234006   3.202   6.605  13.500 -0.1024 -0.0475  0.0190
 4172TIP3    H134007   3.154   6.679  13.537 -0.5152  0.1621 -0.9041
 4172TIP3    H234008   3.257   6.574  13.572  0.6635  1.6390  0.2093
 4173TIP3   OH234009   0.562   4.953   0.154 -0.5779 -0.4517  0.6801
 4173TIP3    H134010   0.645   4.919   0.124 -1.0708 -0.6089 -0.5504
 4173TIP3    H234011   0.568   4.950   0.250  0.1102 -2.2040  0.6134
 4174TIP3   OH234012   2.108   6.653  12.851 -0.1870  0.3335 -0.1413
 4174TIP3    H134013   2.135   6.628  12.939 -3.3786  1.4029  1.3087
 4174TIP3    H234014   2.126   6.576  12.797 -0.2801 -1.2213  1.9421
 4175TIP3   OH234015   2.654   3.945  13.617 -0.6615 -0.2480  0.2892
 4175TIP3    H134016   2.707   4.016  13.655 -0.2441 -0.6121  0.3961
 4175TIP3    H234017   2.612   3.904  13.693 -1.4674  0.3203  0.1708
 4176TIP3   OH234018   5.915   4.856  15.590  0.5825 -0.3315 -0.3747
 4176TIP3    H134019   5.876   4.858  15.678  0.3112  0.5345 -0.4968
 4176TIP3    H234020   5.884   4.775  15.551 -0.6944  0.0845 -0.2698
 4177TIP3   OH234021   4.754   6.660  12.011 -0.0606  0.0622 -0.3420
 4177TIP3    H134022   4.734   6.610  12.089  0.9248 -0.3031 -0.3124
 4177TIP3    H234023   4.760   6.751  12.041 -3.4580  0.5165 -0.6683
 4178TIP3   OH234024   2.532   0.952  13.906 -0.1308 -0.3384 -0.3490
 4178TIP3    H134025   2.447   0.920  13.876 -0.3512 -1.5895  1.4606
 4178TIP3    H234026   2.592   0.932  13.833 -0.9276 -1.8171 -0.6496
 4179TIP3   OH234027   2.347   2.459  11.237  0.0431 -0.1504  0.1612
 4179TIP3    H134028   2.252   2.472  11.242  0.2925  2.1091  0.2029
 4179TIP3    H234029   2.384   2.544  11.262  2.1451 -1.5583  2.2004
 4180TIP3   OH234030   5.658   3.677   4.892  0.2107  0.5943  0.2668
 4180TIP3    H134031   5.743   3.657   4.852  0.9928  1.0931  1.5987
 4180TIP3    H234032   5.666   3.643   4.982 -1.6891 -1.0243 -0.1164
 4181TIP3   OH234033   2.036   0.568   0.930  0.4436  0.2048  0.3924
 4181TIP3    H134034   2.039   0.500   0.998 -0.9728 -1.3256 -0.9653
 4181TIP3    H234035   2.073   0.526   0.852 -1.8490  0.3806 -0.8995
 4182TIP3   OH234036   7.111   4.494   1.393 -0.4851 -0.3863  0.3452
 4182TIP3    H134037   7.180   4.550   1.356 -0.5900 -0.6610 -0.2843
 4182TIP3    H234038   7.058   4.468   1.317 -1.7889  0.5047  0.9120
 4183TIP3   OH234039   4.400   4.455  15.224 -0.3990  0.7045  0.3315
 4183TIP3    H134040   4.368   4.383  15.168 -0.6870  1.3184 -0.3117
 4183TIP3    H234041   4.494   4.442  15.226 -0.3044  1.0561 -0.8737
 4184TIP3   OH234042   3.965   3.277  13.595  0.6569 -0.4337  0.0918
 4184TIP3    H134043   3.914   3.289  13.514  0.9920  0.7307  0.0427
 4184TIP3    H234044   3.920   3.331  13.660 -0.5517 -2.5753  1.1512
 4185TIP3   OH234045   7.087   0.463  14.508  0.5986 -0.6527  0.4773
 4185TIP3    H134046   7.053   0.507  14.430  1.0626 -2.6754 -0.9459
 4185TIP3    H234047   7.022   0.482  14.576  0.5034  1.6735 -0.1980
 4186TIP3   OH234048   5.321   2.650  14.134  0.3473  0.2900 -0.2198
 4186TIP3    H134049   5.344   2.735  14.097  0.4044  0.0345 -0.7768
 4186TIP3    H234050   5.226   2.646  14.128  0.3566  0.2487 -0.3419
 4187TIP3   OH234051   2.210   4.121  13.182  0.2809 -0.2419 -0.3733
 4187TIP3    H134052   2.261   4.042  13.165 -1.0930 -1.3823  0.5001
 4187TIP3    H234053   2.185   4.152  13.095 -1.4823 -2.4225 -0.7540
 4188TIP3   OH234054   1.114   3.931   4.144 -0.0284  0.9158 -0.3651
 4188TIP3    H134055   1.184   3.967   4.088 -0.0111 -0.2605 -1.1286
 4188TIP3    H234056   1.069   3.868   4.088 -0.8076  0.6159  0.5834
 4189TIP3   OH234057   6.152   1.425   1.089  0.4645 -0.3190  0.7937
 4189TIP3    H134058   6.181   1.364   1.157 -2.2448 -3.8235 -0.8466
 4189TIP3    H234059   6.190   1.391   1.008  0.3456  1.3191  0.0043
 4190TIP3   OH234060   5.571   4.950  12.821 -0.5826  0.5733 -0.2078
 4190TIP3    H134061   5.509   4.889  12.861 -0.0639 -0.0269 -0.3021
 4190TIP3    H234062   5.559   5.031  12.870 -1.1857  0.3616  0.0105
 4191TIP3   OH234063   4.689   1.708   1.846 -0.0439  0.4054  0.5781
 4191TIP3    H134064   4.685   1.803   1.854  0.0460  0.9948 -3.8258
 4191TIP3    H234065   4.597   1.680   1.844 -0.0866  0.5084  1.1691
 4192TIP3   OH234066   7.150   5.312  11.238 -0.0560 -0.4356  0.2282
 4192TIP3    H134067   7.121   5.234  11.285  0.8832 -1.6480 -1.1288
 4192TIP3    H234068   7.136   5.384  11.300 -2.0683 -1.4815  1.0793
 4193TIP3   OH234069   4.926   5.530  10.050 -0.8519  0.1942  0.4076
 4193TIP3    H134070   4.976   5.450  10.038  0.9651  1.1400  1.2230
 4193TIP3    H234071   4.912   5.537  10.144 -2.4145  0.0437  0.2116
 4194TIP3   OH234072   0.060   2.747   3.872 -0.5462  0.3382 -0.1394
 4194TIP3    H134073   0.118   2.676   3.899 -0.0996  0.5889 -0.4167
 4194TIP3    H234074   0.120   2.816   3.842 -0.9735  0.8366  0.1427
 4195TIP3   OH234075   1.271   5.876  10.421 -0.0309  0.3830  0.1410
 4195TIP3    H134076   1.324   5.833  10.354 -0.6153 -0.4218  0.1820
 4195TIP3    H234077   1.313   5.853  10.503  1.0512  1.8816  0.0433
 4196TIP3   OH234078   5.634   5.348  13.197 -0.1657 -0.4936 -0.0137
 4196TIP3    H134079   5.668   5.338  13.109  0.0102  1.6662 -0.2422
 4196TIP3    H234080   5.574   5.274  13.208 -0.5922 -0.5165 -2.1320
 4197TIP3   OH234081   0.259   4.621  13.785 -0.0389 -0.3798 -0.1759
 4197TIP3    H134082   0.347   4.658  13.798 -0.7119  0.9420  0.9072
 4197TIP3    H234083   0.241   4.635  13.692  0.6623 -0.1049 -0.2749
 4198TIP3   OH234084   3.454   0.887  12.477 -0.1318 -0.2097  0.2600
 4198TIP3    H134085   3.502   0.907  12.558  1.6192 -0.6229 -0.6205
 4198TIP3    H234086   3.362   0.904  12.498  0.1624 -1.2500  2.6179
 4199TIP3   OH234087   4.548   3.604   1.295  0.4226  0.2723  0.6721
 4199TIP3    H134088   4.473   3.575   1.243 -1.2499  0.8087  2.6628
 4199TIP3    H234089   4.575   3.686   1.255  1.0717 -0.7293 -1.0628
 4200TIP3   OH234090   3.949   6.222  13.188 -0.4203  0.1446  0.2801
 4200TIP3    H134091   3.942   6.142  13.240  2.0043  0.1685  0.7252
 4200TIP3    H234092   3.968   6.291  13.251 -1.6741  0.9746 -0.2020
 4201TIP3   OH234093   6.360   1.360   0.477  0.1800 -0.1078 -0.3217
 4201TIP3    H134094   6.309   1.282   0.498  0.4631 -0.1311  0.3150
 4201TIP3    H234095   6.435   1.327   0.427  0.6083 -0.3331  0.4431
 4202TIP3   OH234096   6.296   6.649  11.288  0.6621 -0.3861  0.0937
 4202TIP3    H134097   6.343   6.732  11.296  3.0597 -1.4756 -1.6779
 4202TIP3    H234098   6.314   6.604  11.371  1.0167  0.0403  0.2546
 4203TIP3   OH234099   5.956   3.926  12.603 -0.2214  0.0114 -0.2669
 4203TIP3    H134100   5.880   3.960  12.555 -0.9926 -0.6567  0.4416
 4203TIP3    H234101   5.938   3.947  12.694  1.2740  1.3371 -0.2331
 4204TIP3   OH234102   3.181   6.650  10.673 -0.7103 -0.2638 -0.0519
 4204TIP3    H134103   3.096   6.691  10.662 -0.8387 -0.5747 -0.2400
 4204TIP3    H234104   3.166   6.558  10.651  0.0150 -0.0305 -1.6810
 4205TIP3   OH234105   6.458   2.723   2.734  0.1408 -0.6222 -0.3555
 4205TIP3    H134106   6.517   2.713   2.809 -0.5561 -0.6511  0.2018
 4205TIP3    H234107   6.470   2.643   2.683 -1.6507 -2.0852  1.3734
 4206TIP3   OH234108   7.133   6.161  12.700  0.6151  0.0554  0.0041
 4206TIP3    H134109   7.095   6.240  12.738  1.7145  1.5136 -1.7924
 4206TIP3    H234110   7.225   6.164  12.726  1.0063  0.1991 -1.3322
 4207TIP3   OH234111   5.168   3.445  12.394 -0.2709  0.2904  0.4244
 4207TIP3    H134112   5.251   3.465  12.351  0.0084  0.9195  1.2341
 4207TIP3    H234113   5.171   3.351  12.411  0.1228  0.2522  0.1472
 4208TIP3   OH234114   5.930   1.908  13.474  0.4736  0.1960 -0.1427
 4208TIP3    H134115   5.980   1.842  13.426  0.2415  0.4344 -0.7149
 4208TIP3    H234116   5.844   1.909  13.433  0.6063  1.1537 -0.4369
 4209TIP3   OH234117   2.227   5.795   3.559 -0.9366  0.2360  0.5755
 4209TIP3    H134118   2.198   5.736   3.490  0.7223  0.8855 -0.7515
 4209TIP3    H234119   2.195   5.756   3.640  0.2968 -2.6521 -0.1954
 4210TIP3   OH234120   4.797   5.416  11.021  0.1352 -0.2830  0.7875
 4210TIP3    H134121   4.706   5.389  11.009  0.1996 -0.4121  0.5937
 4210TIP3    H234122   4.801   5.503  10.980 -0.1863  0.2428  1.8175
 4211TIP3   OH234123   5.890   4.653  13.470  0.6704  0.1516 -0.6069
 4211TIP3    H134124   5.863   4.697  13.551 -0.9874 -1.2416 -0.3476
 4211TIP3    H234125   5.894   4.560  13.492  3.0621  0.0003 -1.4196
 4212TIP3   OH234126   3.294   0.153  10.643  0.3531  0.0205  0.2347
 4212TIP3    H134127   3.350   0.183  10.714  0.5565  1.8158 -0.6198
 4212TIP3    H234128   3.330   0.069  10.617  1.6169  0.3674  0.8065
 4213TIP3   OH234129   1.706   3.878   2.365 -0.3156 -0.1714 -0.4639
 4213TIP3    H134130   1.637   3.908   2.305  0.2325  0.3356 -0.8559
 4213TIP3    H234131   1.667   3.887   2.452 -0.6318  0.4230 -0.6593
 4214TIP3   OH234132   1.846   0.067  14.530 -0.6996 -0.1925  0.0881
 4214TIP3    H134133   1.932   0.101  14.556  0.3481  0.0619 -3.2249
 4214TIP3    H234134   1.866  -0.015  14.484 -2.0414  0.4886 -1.8214
 4215TIP3   OH234135   6.790   3.614  12.555  0.9655  0.0316 -0.5372
 4215TIP3    H134136   6.812   3.540  12.498  1.1532 -0.5047  0.2125
 4215TIP3    H234137   6.694   3.614  12.558  0.9215  0.5964 -1.5225
 4216TIP3   OH234138   6.098   0.698  11.972  0.2542  0.3109  0.6093
 4216TIP3    H134139   6.102   0.696  11.877  0.7601 -0.4763  0.6319
 4216TIP3    H234140   6.190   0.692  12.000  0.0456 -0.5873  1.1480
 4217TIP3   OH234141   6.713   6.119   1.533 -0.3249  0.2155  0.3067
 4217TIP3    H134142   6.707   6.215   1.530 -0.8269  0.1789 -0.0520
 4217TIP3    H234143   6.665   6.095   1.612  3.3410  0.4868  2.8826
 4218TIP3   OH234144   5.097   2.276   3.388 -0.2666  0.4898  0.2369
 4218TIP3    H134145   5.121   2.197   3.340 -1.0000 -0.1329  0.8669
 4218TIP3    H234146   5.138   2.266   3.474 -0.0982  0.9500  0.2151
 4219TIP3   OH234147   6.028   3.138   0.191 -0.1047 -0.2949  0.2286
 4219TIP3    H134148   6.033   3.227   0.155  1.2194 -0.6736 -0.5885
 4219TIP3    H234149   6.055   3.148   0.282 -1.8094  0.4070  0.7006
 4220TIP3   OH234150   4.075   5.664   1.088 -0.0827 -0.3826 -0.0827
 4220TIP3    H134151   4.041   5.751   1.109  0.7372  0.0432 -0.4673
 4220TIP3    H234152   4.014   5.603   1.130  1.7719  0.3798  4.2449
 4221TIP3   OH234153   6.247   5.811   0.793  0.5836  0.5654 -0.5335
 4221TIP3    H134154   6.211   5.793   0.879  0.9900  1.5215 -0.1423
 4221TIP3    H234155   6.279   5.727   0.762 -1.3580 -0.1719 -0.6212
 4222TIP3   OH234156   6.269   6.712   0.937 -0.8216 -0.2939 -0.2411
 4222TIP3    H134157   6.222   6.757   1.008  1.4596  1.4379  0.3113
 4222TIP3    H234158   6.235   6.753   0.857  0.4049  1.7353  0.2009
 4223TIP3   OH234159   2.783   2.876  12.418  0.3005  0.0878 -0.2927
 4223TIP3    H134160   2.818   2.789  12.398  1.2900  0.1090  1.2361
 4223TIP3    H234161   2.799   2.927  12.338 -0.0383 -1.0325 -1.1099
 4224TIP3   OH234162   4.832   6.898   0.726  0.4586 -0.8075 -0.3051
 4224TIP3    H134163   4.779   6.941   0.660 -0.0249  0.5827  0.9315
 4224TIP3    H234164   4.919   6.891   0.687  0.6263  1.5462 -0.4999
 4225TIP3   OH234165   5.186   1.307  10.159 -0.0707 -0.3373  0.1026
 4225TIP3    H134166   5.125   1.354  10.101 -1.5301 -0.8722  1.1420
 4225TIP3    H234167   5.165   1.215  10.145  0.6869 -0.5475  0.3098
 4226TIP3   OH234168   6.426   1.500   0.915  0.1305 -0.1283  0.5307
 4226TIP3    H134169   6.357   1.437   0.892 -1.4418  1.8875 -0.5959
 4226TIP3    H234170   6.391   1.549   0.989  1.4571 -0.6934  1.5741
 4227TIP3   OH234171   2.111   1.058   0.951  0.3711  0.1028  0.2222
 4227TIP3    H134172   2.105   0.997   1.024  2.6355 -0.1627  0.2639
 4227TIP3    H234173   2.158   1.134   0.987 -0.8925  1.1466 -0.2686
 4228TIP3   OH234174   6.417   2.430  11.966  0.3186 -0.3317  0.0431
 4228TIP3    H134175   6.506   2.419  11.934  0.3980 -0.1602  0.2060
 4228TIP3    H234176   6.368   2.460  11.889  0.5151  0.1060  0.0835
 4229TIP3   OH234177   6.739   2.862  11.836 -0.1500  0.3627 -0.2578
 4229TIP3    H134178   6.652   2.892  11.860 -0.5111  1.7149 -2.9436
 4229TIP3    H234179   6.752   2.782  11.888 -2.1669  1.1507  1.6036
 4230TIP3   OH234180   1.599   0.302   1.878  0.0903  0.1249  0.3517
 4230TIP3    H134181   1.513   0.311   1.837  0.6758 -2.4343 -1.6809
 4230TIP3    H234182   1.653   0.370   1.837  0.0602 -0.9129 -1.4849
 4231TIP3   OH234183   3.920   4.751  13.871  0.1124 -0.2413 -0.1120
 4231TIP3    H134184   3.910   4.709  13.785  1.0388  0.3699 -0.5410
 4231TIP3    H234185   3.840   4.802  13.882  0.3022  0.2569 -0.9535
 4232TIP3   OH234186   7.020   5.305  13.381 -0.3830  0.8906 -0.1700
 4232TIP3    H134187   7.053   5.264  13.461  0.3772  1.0358 -0.3932
 4232TIP3    H234188   6.926   5.290  13.383 -0.3664  0.8490  0.7266
 4233TIP3   OH234189   3.891   3.385   0.765  0.1846  0.4760 -0.3137
 4233TIP3    H134190   3.826   3.329   0.808  1.1915 -1.2982 -0.9860
 4233TIP3    H234191   3.858   3.395   0.676 -0.1129  1.1634 -0.1280
 4234TIP3   OH234192   1.661   5.631  11.432  0.6845  0.0972 -0.4932
 4234TIP3    H134193   1.662   5.546  11.389  0.8134  0.8546 -2.0665
 4234TIP3    H234194   1.576   5.635  11.475  0.6876 -0.8276 -0.3898
 4235TIP3   OH234195   0.749   4.567  15.700  0.1145 -0.3068 -0.5049
 4235TIP3    H134196   0.664   4.524  15.691  0.0689 -0.4534  0.5002
 4235TIP3    H234197   0.795   4.517  15.768  0.8805 -0.0382 -0.8089
 4236TIP3   OH234198   3.913   5.050  12.899  0.5270  0.1805 -0.4008
 4236TIP3    H134199   3.938   5.143  12.905 -0.9282  0.5463  0.3524
 4236TIP3    H234200   3.950   5.011  12.979 -1.1840  0.7198  0.7092
 4237TIP3   OH234201   4.398   0.013  10.686 -0.4640  0.6627 -0.1931
 4237TIP3    H134202   4.466   0.038  10.624 -0.0417 -0.2607 -0.1112
 4237TIP3    H234203   4.330   0.079  10.674 -0.5478  0.3016 -1.8811
 4238TIP3   OH234204   1.318   1.228  10.305  0.5235  0.1718 -0.0826
 4238TIP3    H134205   1.316   1.318  10.273  0.1507  0.4765  0.7494
 4238TIP3    H234206   1.410   1.203  10.300  0.6970  0.7549  0.0675
 4239TIP3   OH234207   0.936   3.495  11.829 -0.0835  0.2195 -0.1226
 4239TIP3    H134208   0.949   3.559  11.758  1.4879 -0.1549 -0.2212
 4239TIP3    H234209   0.883   3.542  11.893 -1.1148  0.7399 -1.3189
 4240TIP3   OH234210   3.824   2.602  11.051 -0.0346 -0.0818  0.2896
 4240TIP3    H134211   3.816   2.672  11.115 -1.7726  1.2733 -1.3066
 4240TIP3    H234212   3.912   2.613  11.014 -0.2394  1.1847  0.1473
 4241TIP3   OH234213   3.191   6.422  11.812 -0.6355 -0.0570 -0.3171
 4241TIP3    H134214   3.109   6.471  11.801 -0.6935  0.1174  0.7640
 4241TIP3    H234215   3.168   6.350  11.870  0.3728  1.1457  1.6917
 4242TIP3   OH234216   1.609   4.806  14.281  0.2853 -0.1072  0.0483
 4242TIP3    H134217   1.611   4.791  14.187  1.5297  1.1457 -0.1425
 4242TIP3    H234218   1.542   4.873  14.293  1.5178  1.2084 -0.1987
 4243TIP3   OH234219   1.602   6.994  13.605  0.1768  0.0901 -0.5361
 4243TIP3    H134220   1.523   7.038  13.637  0.3962 -0.1249  0.3091
 4243TIP3    H234221   1.571   6.907  13.578 -0.2504  0.7085 -2.1795
 4244TIP3   OH234222   1.244   0.378   2.971  0.2899 -0.3697  0.4084
 4244TIP3    H134223   1.186   0.419   3.035 -1.4807  0.3967 -1.5787
 4244TIP3    H234224   1.332   0.390   3.007 -0.5440  1.0834  2.1090
 4245TIP3   OH234225   1.149   5.391  11.614 -0.2229 -0.0932 -0.4000
 4245TIP3    H134226   1.167   5.448  11.688  1.0834  2.0111 -2.1841
 4245TIP3    H234227   1.067   5.347  11.635 -2.0913  3.4901  0.5680
 4246TIP3   OH234228   3.539   3.556  13.654 -0.2082  0.3255 -0.2926
 4246TIP3    H134229   3.496   3.639  13.632 -0.6990  0.3225  0.6020
 4246TIP3    H234230   3.514   3.498  13.583 -2.0899  0.2045  0.3986
 4247TIP3   OH234231   6.244   4.631  12.042  0.7812  1.5178 -0.1132
 4247TIP3    H134232   6.239   4.569  12.115  1.0336  1.3500 -0.2390
 4247TIP3    H234233   6.201   4.710  12.076  0.6041  1.3319  0.1043
 4248TIP3   OH234234   2.890   4.854  14.425 -0.2286  0.0217 -0.1852
 4248TIP3    H134235   2.845   4.876  14.343  2.2523  0.9349 -1.4154
 4248TIP3    H234236   2.852   4.913  14.490 -1.5067  0.0276 -0.8919
 4249TIP3   OH234237   4.498   2.756   0.370 -0.1656  0.1529 -0.6110
 4249TIP3    H134238   4.588   2.774   0.344 -0.3928  1.5090 -0.5294
 4249TIP3    H234239   4.506   2.705   0.451  0.5399  1.0289 -0.1130
 4250TIP3   OH234240   0.423   5.974  14.290 -0.3024  0.3049 -0.4190
 4250TIP3    H134241   0.517   5.985  14.304 -0.4319  1.4118 -0.3287
 4250TIP3    H234242   0.395   6.056  14.249 -1.4033  0.4314  0.5237
 4251TIP3   OH234243   6.145   1.848  12.138 -0.3897  0.0073 -0.3876
 4251TIP3    H134244   6.119   1.939  12.149  1.9508  0.5402  1.6318
 4251TIP3    H234245   6.073   1.808  12.089 -1.3135  2.9824 -1.6703
 4252TIP3   OH234246   6.770   4.874   0.999  0.3175  0.7785 -0.1581
 4252TIP3    H134247   6.713   4.798   1.004  1.0905  0.2286  0.7738
 4252TIP3    H234248   6.856   4.838   0.977  0.5891  1.4283 -0.1878
 4253TIP3   OH234249   6.214   4.710  13.593  0.3851 -0.1388  0.2372
 4253TIP3    H134250   6.163   4.673  13.664 -1.2383 -0.4497 -1.0336
 4253TIP3    H234251   6.176   4.797  13.579 -0.9620 -0.9780 -1.7733
 4254TIP3   OH234252   2.635   5.524   2.138  0.2625 -0.2504 -0.2031
 4254TIP3    H134253   2.627   5.518   2.042 -0.8209 -0.3842 -0.1221
 4254TIP3    H234254   2.544   5.524   2.169  0.4919  2.2518  0.6899
 4255TIP3   OH234255   2.291   2.976  12.052  0.0272  0.2688  0.3477
 4255TIP3    H134256   2.271   2.969  12.145 -0.4250  1.2760  0.3430
 4255TIP3    H234257   2.206   2.977  12.009  0.2392 -0.5480 -0.1238
 4256TIP3   OH234258   4.450   6.214  13.509 -0.0791  0.3567  0.0902
 4256TIP3    H134259   4.516   6.269  13.550 -1.8043  1.2513  1.8101
 4256TIP3    H234260   4.386   6.275  13.474 -0.9551 -0.5050  0.1350
 4257TIP3   OH234261   1.132   6.857  11.318 -0.3437 -0.6473 -0.5552
 4257TIP3    H134262   1.152   6.941  11.276 -0.4159 -1.5292 -2.4604
 4257TIP3    H234263   1.125   6.878  11.411  1.4144  1.1363 -0.7535
 4258TIP3   OH234264   6.367   2.285  14.526  0.2697  0.0576 -0.9229
 4258TIP3    H134265   6.300   2.228  14.487 -1.0708  0.4092  0.7724
 4258TIP3    H234266   6.322   2.368  14.542  1.2274  0.4453 -0.1073
 4259TIP3   OH234267   5.591   5.674  10.285 -0.3119 -0.0079  0.2932
 4259TIP3    H134268   5.604   5.604  10.221 -0.8810 -0.3335  0.5275
 4259TIP3    H234269   5.555   5.630  10.362 -1.9121  0.6915  0.0045
 4260TIP3   OH234270   6.742   3.509  14.625  0.3506  0.2887 -0.3413
 4260TIP3    H134271   6.791   3.587  14.651  1.4572 -0.6455  0.4794
 4260TIP3    H234272   6.651   3.531  14.642  0.6929  1.2391  0.3413
 4261TIP3   OH234273   0.854   5.688  14.893 -0.0186 -0.3623 -0.0538
 4261TIP3    H134274   0.897   5.630  14.956 -0.7840  0.5704  1.3884
 4261TIP3    H234275   0.761   5.674  14.908 -0.2179  0.9794  0.1241
 4262TIP3   OH234276   2.905   5.155   1.014  0.2980  0.2014 -0.5256
 4262TIP3    H134277   2.850   5.185   0.941  0.8240 -1.6173 -1.7242
 4262TIP3    H234278   2.860   5.079   1.049  1.6635 -0.9095 -1.0839
 4263TIP3   OH234279   7.110   5.290  15.612 -0.1052 -0.2750 -0.8518
 4263TIP3    H134280   7.119   5.380  15.643 -0.5350 -0.8193  1.0017
 4263TIP3    H234281   7.036   5.292  15.551 -0.4983  0.5210 -0.3534
 4264TIP3   OH234282   4.277   1.196  15.089 -0.1012 -0.0555  0.8464
 4264TIP3    H134283   4.263   1.243  15.171 -1.2211  0.3471  0.4374
 4264TIP3    H234284   4.277   1.263  15.021  1.7084 -0.2774  0.5631
 4265TIP3   OH234285   2.010   3.162  10.485 -0.0560 -0.3728 -0.2156
 4265TIP3    H134286   2.091   3.120  10.457  0.4602  0.5707 -0.2003
 4265TIP3    H234287   2.016   3.251  10.449 -1.0887 -0.2934 -0.2235
 4266TIP3   OH234288   3.789   3.520  13.374 -0.2970  0.0759  0.5762
 4266TIP3    H134289   3.749   3.603  13.349 -1.4752 -0.6246  0.0187
 4266TIP3    H234290   3.840   3.493  13.298 -0.7611 -0.1933  0.3505
 4267TIP3   OH234291   4.387   3.712  11.555 -0.2435 -0.4077  0.6173
 4267TIP3    H134292   4.439   3.777  11.509  0.5767 -0.4930  1.4055
 4267TIP3    H234293   4.439   3.632  11.550 -1.0536 -0.9133  0.0163
 4268TIP3   OH234294   6.651   4.023  13.904 -0.4347 -0.4153  0.0431
 4268TIP3    H134295   6.701   4.102  13.885 -0.7620 -0.5520 -1.4896
 4268TIP3    H234296   6.714   3.952  13.897 -0.7711 -0.5887 -1.8999
 4269TIP3   OH234297   6.325   5.646   9.587 -0.0198  0.0811  0.0297
 4269TIP3    H134298   6.252   5.590   9.562  0.3065 -0.1149 -0.5024
 4269TIP3    H234299   6.403   5.599   9.557  0.3638  0.0467  1.0331
 4270TIP3   OH234300   4.866   5.606   1.319  0.3424  0.1588 -0.1589
 4270TIP3    H134301   4.942   5.560   1.283  1.2334  1.6015 -0.1977
 4270TIP3    H234302   4.901   5.689   1.351 -0.9023  0.0696  1.5636
 4271TIP3   OH234303   5.978   2.640  11.862  0.2556 -0.0898 -0.1151
 4271TIP3    H134304   6.036   2.621  11.936 -0.8522 -1.3505  0.4647
 4271TIP3    H234305   5.922   2.562  11.855  0.5070 -0.1390 -2.4484
 4272TIP3   OH234306   5.003   4.983  10.848  0.6018 -0.1041  0.2931
 4272TIP3    H134307   4.949   5.061  10.841 -0.0832 -0.6642 -1.2488
 4272TIP3    H234308   4.977   4.942  10.930  0.1360  0.6827  0.5411
 4273TIP3   OH234309   0.247   1.160  14.811  0.2124 -0.1679 -0.0653
 4273TIP3    H134310   0.213   1.230  14.756  1.2162  0.4711  0.1081
 4273TIP3    H234311   0.266   1.088  14.750  1.0004  0.4121 -0.5147
 4274TIP3   OH234312   5.108   2.110  10.903 -0.2957  0.3375 -0.2497
 4274TIP3    H134313   5.053   2.188  10.891 -0.2261  0.4692  0.2736
 4274TIP3    H234314   5.196   2.145  10.920  0.2499  0.1292 -2.3398
 4275TIP3   OH234315   1.315   1.583   5.504 -0.2886  0.4854 -0.2350
 4275TIP3    H134316   1.310   1.493   5.538 -0.7646  0.1884 -1.0778
 4275TIP3    H234317   1.391   1.620   5.549 -0.7995  0.0621  1.0445
 4276TIP3   OH234318   0.364   4.067  12.494 -0.9055 -0.2644  0.2623
 4276TIP3    H134319   0.451   4.027  12.498 -0.6515  0.3221  0.7899
 4276TIP3    H234320   0.348   4.080  12.400 -1.3034 -2.2424  0.0302
 4277TIP3   OH234321   5.744   3.739  14.522 -0.1579  0.4526  0.7445
 4277TIP3    H134322   5.813   3.795  14.486 -0.3968 -0.9477 -2.1121
 4277TIP3    H234323   5.766   3.651  14.493 -2.6659 -0.1671  0.4709
 4278TIP3   OH234324   3.021   6.159  15.750 -0.1430  0.3683  0.4833
 4278TIP3    H134325   2.943   6.104  15.752  0.0256  0.1082 -0.0220
 4278TIP3    H234326   3.088   6.107  15.795 -0.1825  0.4823  0.6796
 4279TIP3   OH234327   4.678   1.127   1.104 -0.2451  1.0236 -0.4920
 4279TIP3    H134328   4.672   1.032   1.092 -0.2962  1.2683 -2.6615
 4279TIP3    H234329   4.771   1.146   1.096 -0.3664  1.2939 -1.3346
 4280TIP3   OH234330   0.340   1.094  13.341  0.2018  0.0251 -0.3036
 4280TIP3    H134331   0.435   1.088  13.338  0.2674 -0.1391  1.1701
 4280TIP3    H234332   0.320   1.183  13.313  0.7044 -0.2807 -1.6653
 4281TIP3   OH234333   2.598   3.864  13.886 -0.2035 -0.0492 -0.0973
 4281TIP3    H134334   2.521   3.812  13.910 -1.3119  0.9240 -1.3925
 4281TIP3    H234335   2.577   3.953  13.914  0.3787  0.2601 -0.6182
 4282TIP3   OH234336   2.025   1.419   4.066 -0.0759 -0.3999 -0.3230
 4282TIP3    H134337   2.120   1.410   4.053 -0.1197  0.0916 -1.0074
 4282TIP3    H234338   2.011   1.512   4.077 -0.5259 -0.4356 -0.5815
 4283TIP3   OH234339   2.334   4.913  11.657  0.1995  0.6892 -0.2619
 4283TIP3    H134340   2.360   5.005  11.660  1.0453  0.4481  0.3563
 4283TIP3    H234341   2.370   4.876  11.738 -1.0118  0.0339  0.0004
 4284TIP3   OH234342   0.608   3.170   1.399  0.0862  0.0044  0.2722
 4284TIP3    H134343   0.560   3.087   1.400  0.2992 -0.1144  1.6384
 4284TIP3    H234344   0.690   3.151   1.443  0.1892  0.9129  0.4958
 4285TIP3   OH234345   2.378   3.226   0.813 -0.5181 -0.0531  0.5222
 4285TIP3    H134346   2.331   3.162   0.760 -0.3163 -2.2044  2.7802
 4285TIP3    H234347   2.459   3.182   0.839  1.2940  2.3807 -0.5670
 4286TIP3   OH234348   4.356   2.649  15.538  0.2908  0.6202  0.3153
 4286TIP3    H134349   4.435   2.599  15.559  0.8507  0.7563 -1.2917
 4286TIP3    H234350   4.285   2.584  15.538  0.3886  0.4960  1.7526
 4287TIP3   OH234351   6.711   2.068   3.555  0.4041 -1.0636  0.3816
 4287TIP3    H134352   6.798   2.106   3.571  0.5058 -0.0409 -2.1745
 4287TIP3    H234353   6.707   1.992   3.613  3.2299 -1.4533  0.2017
 4288TIP3   OH234354   1.727   2.231   1.757  0.0232  0.1556  0.1828
 4288TIP3    H134355   1.746   2.214   1.665 -1.0428 -0.2833  0.0325
 4288TIP3    H234356   1.642   2.275   1.756 -0.5169 -0.8405  1.0281
 4289TIP3   OH234357   2.007   0.070  15.180 -0.2972 -0.0264  0.2326
 4289TIP3    H134358   1.969   0.045  15.096  1.0735  0.3861 -0.5460
 4289TIP3    H234359   1.980   0.161  15.193 -0.7310 -0.1752  0.3666
 4290TIP3   OH234360   4.051   6.965  11.202 -0.1033  0.0337  0.1217
 4290TIP3    H134361   4.032   6.872  11.192 -0.5446  0.2841 -1.5927
 4290TIP3    H234362   3.967   7.004  11.228 -0.3907  0.2107 -1.0376
 4291TIP3   OH234363   0.205   2.080   0.611  0.4825  0.5967  0.0910
 4291TIP3    H134364   0.211   2.172   0.640  1.5426  1.1066 -1.6070
 4291TIP3    H234365   0.111   2.061   0.613  0.3933  0.6179  3.5297
 4292TIP3   OH234366   1.128   6.578  13.808  0.2805 -0.5863 -0.9561
 4292TIP3    H134367   1.204   6.608  13.856 -0.6741  2.1530 -1.0134
 4292TIP3    H234368   1.163   6.517  13.743  2.2193 -0.3702 -0.1759
 4293TIP3   OH234369   2.554   6.565   1.623 -0.1152 -0.2204 -0.0686
 4293TIP3    H134370   2.514   6.486   1.588 -1.0819 -0.2871  1.1193
 4293TIP3    H234371   2.481   6.627   1.633 -0.0523 -0.4316  2.3739
 4294TIP3   OH234372   1.102   2.152  12.204 -0.7732  0.2674 -0.3253
 4294TIP3    H134373   1.055   2.216  12.256  0.2390  0.8403 -0.0759
 4294TIP3    H234374   1.072   2.166  12.115 -0.6228  1.0459 -0.2587
 4295TIP3   OH234375   0.603   3.132  11.516 -0.1876  0.2831 -0.1119
 4295TIP3    H134376   0.565   3.047  11.495 -0.8647  0.2780  1.0398
 4295TIP3    H234377   0.579   3.188  11.442  0.0208 -0.4425 -0.7410
 4296TIP3   OH234378   3.355   6.788   3.986  0.1398 -0.2335  0.4228
 4296TIP3    H134379   3.306   6.812   4.065 -0.2364 -2.7559  1.0606
 4296TIP3    H234380   3.302   6.720   3.946  1.3188 -0.3748 -0.9430
 4297TIP3   OH234381   6.372   1.737   4.465  0.1343  0.1375 -0.1999
 4297TIP3    H134382   6.308   1.808   4.471 -0.6320 -0.6415  1.3567
 4297TIP3    H234383   6.373   1.698   4.552  1.4430 -1.0002 -0.6869
 4298TIP3   OH234384   4.384   2.394  11.020  0.2294  0.1971  0.0353
 4298TIP3    H134385   4.302   2.423  11.059 -0.3337 -0.5666 -0.5517
 4298TIP3    H234386   4.451   2.452  11.058 -0.6078  1.0056  0.3101
 4299TIP3   OH234387   0.822   3.059   2.864  0.2319  0.1748 -0.3044
 4299TIP3    H134388   0.872   3.101   2.794 -1.2992 -1.4867 -2.5400
 4299TIP3    H234389   0.738   3.105   2.865  0.1120 -0.0443  0.2262
 4300TIP3   OH234390   4.026   0.165   9.364  0.1630 -0.4320 -0.3398
 4300TIP3    H134391   3.985   0.242   9.403 -0.5328 -1.1277  0.3254
 4300TIP3    H234392   4.041   0.106   9.437  1.7910 -0.4568 -0.6612
 4301TIP3   OH234393   2.005   4.550   5.574 -0.2835 -0.8492  0.0315
 4301TIP3    H134394   2.028   4.508   5.491  2.2116 -0.2192  0.3171
 4301TIP3    H234395   2.008   4.479   5.639 -0.8902 -1.0821 -0.1838
 4302TIP3   OH234396   5.524   1.184  13.269 -0.0761  0.4021  0.2234
 4302TIP3    H134397   5.468   1.187  13.347 -1.2964 -0.9837 -0.5412
 4302TIP3    H234398   5.467   1.150  13.200  1.7779 -1.3907 -0.5312
 4303TIP3   OH234399   5.024   0.049  12.747  0.1153 -0.1993  0.2619
 4303TIP3    H134400   4.930   0.041  12.759  0.1476  1.2972  1.8876
 4303TIP3    H234401   5.062   0.003  12.822  0.6195  0.7347  0.5905
 4304TIP3   OH234402   2.140   5.952  15.318  0.2610 -0.0218 -0.0550
 4304TIP3    H134403   2.071   6.014  15.297  0.8518  0.2497 -1.3224
 4304TIP3    H234404   2.095   5.879  15.361 -0.2942  1.7418  2.6135
 4305TIP3   OH234405   4.588   4.610   2.658  0.3254  0.0626 -0.5842
 4305TIP3    H134406   4.592   4.701   2.630 -1.2811  0.7392  1.1847
 4305TIP3    H234407   4.587   4.614   2.753  1.0630 -1.8800 -0.4441
 4306TIP3   OH234408   0.756   0.271  14.489 -0.4652  0.3819  0.3286
 4306TIP3    H134409   0.845   0.285  14.523 -0.1576  0.6342 -0.5476
 4306TIP3    H234410   0.712   0.219  14.556  0.8557 -1.1838  0.0286
 4307TIP3   OH234411   1.671   0.686  11.207  0.4286 -0.1728  0.7921
 4307TIP3    H134412   1.658   0.682  11.302  0.6714  0.4567  0.8550
 4307TIP3    H234413   1.596   0.737  11.175  1.5951  1.7474  0.9344
 4308TIP3   OH234414   1.710   5.595  14.381 -0.2611  0.5080  0.1439
 4308TIP3    H134415   1.669   5.532  14.322  0.3459  1.0933 -0.9515
 4308TIP3    H234416   1.758   5.541  14.444 -0.9926 -0.1323  0.1675
 4309TIP3   OH234417   4.840   4.005  13.105 -0.5146 -0.1047 -0.1543
 4309TIP3    H134418   4.901   4.012  13.031  0.3417 -0.4382  0.4989
 4309TIP3    H234419   4.866   3.924  13.150 -1.0221  0.0929  0.5134
 4310TIP3   OH234420   5.256   4.245  13.239  0.5304  0.0169 -0.1629
 4310TIP3    H134421   5.169   4.239  13.200  0.0206  1.0186  0.7508
 4310TIP3    H234422   5.285   4.334  13.219  1.7818 -0.6145 -1.2856
 4311TIP3   OH234423   1.701   5.890   3.177  0.2410  0.0226  0.4807
 4311TIP3    H134424   1.616   5.911   3.138 -0.7009  0.4330  2.6429
 4311TIP3    H234425   1.726   5.806   3.137 -1.6278 -0.5735  0.4888
 4312TIP3   OH234426   0.583   6.244  12.807 -0.0806  0.0024 -0.4396
 4312TIP3    H134427   0.637   6.237  12.729 -0.4885 -1.4486 -0.6298
 4312TIP3    H234428   0.498   6.207  12.781 -0.3826 -0.0436  0.5416
 4313TIP3   OH234429   6.475   2.064   0.182 -0.5786  0.1583  0.1054
 4313TIP3    H134430   6.401   2.059   0.121  0.9166  0.3218 -1.7904
 4313TIP3    H234431   6.498   1.972   0.199  2.2915 -0.1041 -3.8842
 4314TIP3   OH234432   4.286   3.191  11.736 -0.4799  0.3362  0.1608
 4314TIP3    H134433   4.241   3.242  11.804 -0.0569  0.5677  0.2654
 4314TIP3    H234434   4.353   3.249  11.702 -0.4391  0.0854 -0.1929
 4315TIP3   OH234435   4.989   4.084  11.316  0.0065  0.3993 -0.2566
 4315TIP3    H134436   4.917   4.103  11.376  0.8418 -1.4081  1.4234
 4315TIP3    H234437   5.068   4.104  11.365  0.7301  2.4862 -2.1159
 4316TIP3   OH234438   6.443   0.107  12.414  0.2235  0.0417 -0.5172
 4316TIP3    H134439   6.400   0.158  12.345 -0.4823 -0.7740 -0.6909
 4316TIP3    H234440   6.403   0.021  12.408  2.3155 -0.9436 -1.1003
 4317TIP3   OH234441   1.011   5.246   9.539 -0.3948  0.1679 -0.1290
 4317TIP3    H134442   1.002   5.328   9.490  0.2041  1.0229  1.1314
 4317TIP3    H234443   1.102   5.219   9.526 -0.6581 -0.4415 -0.7445
 4318TIP3   OH234444   4.348   0.889   9.782 -0.0860 -0.1585 -0.4449
 4318TIP3    H134445   4.271   0.896   9.726  0.6467  2.5127 -1.2537
 4318TIP3    H234446   4.320   0.926   9.866 -0.6984 -2.6553  0.5483
 4319TIP3   OH234447   6.201   1.435  12.438 -0.1492 -1.0316  0.1243
 4319TIP3    H134448   6.176   1.425  12.346 -0.3965  0.6743 -0.0299
 4319TIP3    H234449   6.233   1.348  12.464 -3.1055 -2.4608 -0.6030
 4320TIP3   OH234450   0.051   4.860  11.634 -0.1466 -0.7873  0.5076
 4320TIP3    H134451   0.079   4.951  11.628  0.7412 -1.0921 -0.3652
 4320TIP3    H234452  -0.034   4.858  11.589 -0.0017 -0.4521  0.2110
 4321TIP3   OH234453   4.777   6.793   4.340  0.1310 -0.2110  0.1344
 4321TIP3    H134454   4.770   6.835   4.426 -0.2652 -0.5082  0.2495
 4321TIP3    H234455   4.754   6.702   4.356 -3.2604  0.3352 -0.8085
 4322TIP3   OH234456   5.858   0.560  15.329  0.5481  0.0751  0.1549
 4322TIP3    H134457   5.825   0.649  15.314  0.7781  0.0820 -0.3450
 4322TIP3    H234458   5.823   0.535  15.414 -1.6780 -0.3497 -0.8279
 4323TIP3   OH234459   6.524   6.549   9.693  0.1766 -0.1522 -0.0369
 4323TIP3    H134460   6.574   6.469   9.674  0.7170  0.2937 -0.5217
 4323TIP3    H234461   6.509   6.588   9.607  1.0899  0.9747  0.2954
 4324TIP3   OH234462   5.456   5.192  13.701 -0.5124 -0.0457 -0.0035
 4324TIP3    H134463   5.442   5.201  13.607 -1.7826 -0.6453  0.1002
 4324TIP3    H234464   5.475   5.281  13.731  0.0503  0.1256 -0.8377
 4325TIP3   OH234465   1.059   3.035  10.779  0.1072  0.2843 -0.1591
 4325TIP3    H134466   1.060   2.985  10.697 -1.8192 -1.1018  0.5855
 4325TIP3    H234467   1.011   3.115  10.758 -0.5887 -0.1727 -0.3697
 4326TIP3   OH234468   1.885   0.524  11.609 -0.0016 -0.3782 -0.1353
 4326TIP3    H134469   1.979   0.524  11.595 -0.0499 -0.2955 -0.4708
 4326TIP3    H234470   1.853   0.454  11.551 -0.0672 -0.8951  0.5161
 4327TIP3   OH234471   3.044   5.533  11.153 -0.3166 -0.0655 -0.6146
 4327TIP3    H134472   3.066   5.452  11.199  1.0067 -0.4331 -1.8485
 4327TIP3    H234473   3.090   5.602  11.201 -2.0282  0.1239  0.8840
 4328TIP3   OH234474   4.971   3.053  10.659 -0.0414  0.0851 -0.2027
 4328TIP3    H134475   4.880   3.034  10.636 -0.7456  1.3244  1.4026
 4328TIP3    H234476   4.991   3.135  10.614 -0.9024  1.6584  2.1025
 4329TIP3   OH234477   3.545   6.615  13.510  0.0534 -0.6695 -0.8740
 4329TIP3    H134478   3.477   6.607  13.576  1.1472 -0.0753  0.3826
 4329TIP3    H234479   3.590   6.531  13.512  3.3729  0.8409  3.0258
 4330TIP3   OH234480   6.669   0.320   0.167 -0.1907 -0.3407 -0.1022
 4330TIP3    H134481   6.749   0.328   0.115 -0.6536 -1.0523 -0.9585
 4330TIP3    H234482   6.678   0.237   0.214  0.2080  0.2804  0.9573
 4331TIP3   OH234483   0.621   2.255  13.034 -0.2312  0.0395  0.0268
 4331TIP3    H134484   0.599   2.301  13.115 -0.6845  0.8414 -0.5317
 4331TIP3    H234485   0.713   2.230  13.045 -0.3803 -0.1632  0.9162
 4332TIP3   OH234486   5.642   4.069   2.878  0.5434 -0.5084  0.5334
 4332TIP3    H134487   5.696   4.146   2.860 -1.5450  0.8232 -0.4063
 4332TIP3    H234488   5.662   4.008   2.807  1.6739 -0.5520  0.8758
 4333TIP3   OH234489   6.187   4.009  11.224 -1.0050 -0.2706  0.5410
 4333TIP3    H134490   6.266   3.960  11.201 -1.2993 -0.5166  0.0539
 4333TIP3    H234491   6.214   4.101  11.221 -0.3422 -0.3926  1.8488
 4334TIP3   OH234492   2.704   3.504  14.950  0.5393 -0.5743  0.3050
 4334TIP3    H134493   2.703   3.522  14.856  0.2880 -2.0784 -0.0011
 4334TIP3    H234494   2.786   3.457  14.965 -0.0603 -1.5666  0.5733
 4335TIP3   OH234495   3.555   1.073  13.073 -0.1672  0.1901  0.1437
 4335TIP3    H134496   3.557   1.093  13.166 -1.6985  3.2211 -0.3419
 4335TIP3    H234497   3.471   1.107  13.043  0.9393  0.7936 -2.6040
 4336TIP3   OH234498   2.530   4.815  12.458 -0.2876 -0.8803 -0.2271
 4336TIP3    H134499   2.608   4.868  12.441 -0.4000 -0.6206  0.0493
 4336TIP3    H234500   2.563   4.725  12.464  0.0902 -0.7040  0.5267
 4337TIP3   OH234501   0.662   5.234  12.829  0.4541  0.1121 -0.0752
 4337TIP3    H134502   0.747   5.223  12.871  0.3685  0.3635  0.1637
 4337TIP3    H234503   0.613   5.289  12.888  0.5461  1.0053 -0.8103
 4338TIP3   OH234504   4.535   4.066  13.226 -0.2260 -0.3631 -0.1328
 4338TIP3    H134505   4.581   4.098  13.303  0.1517 -0.6527 -0.2342
 4338TIP3    H234506   4.602   4.062  13.157 -0.7824  0.8992 -0.7774
 4339TIP3   OH234507   0.295   6.655  10.682  0.6216 -0.2176  0.2305
 4339TIP3    H134508   0.201   6.671  10.677  0.4719 -0.9706  0.5517
 4339TIP3    H234509   0.305   6.592  10.753  1.3516 -0.2967  0.0672
 4340TIP3   OH234510   4.983   0.384   4.553 -0.3848 -1.0452  0.5855
 4340TIP3    H134511   4.955   0.473   4.570  0.1504 -0.8135  0.2841
 4340TIP3    H234512   5.016   0.385   4.463  2.0785 -0.8898  1.4001
 4341TIP3   OH234513   1.972   1.320  11.669 -0.2958 -0.3724 -0.0651
 4341TIP3    H134514   1.922   1.248  11.708 -0.6728 -0.1891 -0.2010
 4341TIP3    H234515   2.050   1.279  11.632  0.6742 -0.4126  1.8903
 4342TIP3   OH234516   2.853   6.373  10.200 -0.1259 -0.6362 -0.6817
 4342TIP3    H134517   2.892   6.294  10.237 -1.4696 -1.0095  0.0110
 4342TIP3    H234518   2.779   6.341  10.148 -2.6390  0.2526  2.0897
 4343TIP3   OH234519   5.548   7.069  12.934  0.0208  0.1973  0.3055
 4343TIP3    H134520   5.637   7.103  12.928 -0.2153  1.0552  1.3811
 4343TIP3    H234521   5.496   7.143  12.966 -0.5047 -1.0989  2.7610
 4344TIP3   OH234522   1.627   1.713  10.347 -0.1525 -0.0661 -0.2067
 4344TIP3    H134523   1.608   1.801  10.316  0.3449  0.1033 -0.0397
 4344TIP3    H234524   1.575   1.703  10.426 -0.2644  0.0492 -0.2645
 4345TIP3   OH234525   6.730   2.110  10.828  0.4079  0.4486 -0.0756
 4345TIP3    H134526   6.762   2.169  10.896  0.9173  0.4794 -0.3352
 4345TIP3    H234527   6.796   2.040  10.825 -0.8998 -0.9195  1.2249
 4346TIP3   OH234528   5.752   1.350  12.042 -0.4046  0.2164 -0.0020
 4346TIP3    H134529   5.744   1.395  12.126 -0.3937 -1.7423  1.0899
 4346TIP3    H234530   5.821   1.398  11.995  0.4283  0.6139  1.5781
 4347TIP3   OH234531   6.119   1.150   1.156 -0.3148  0.3762  0.1324
 4347TIP3    H134532   6.052   1.172   1.092 -0.2181 -0.5652 -0.3195
 4347TIP3    H234533   6.130   1.055   1.147 -0.0369  0.2813  1.2892
 4348TIP3   OH234534   4.361   2.869  12.684  0.3638 -0.1496 -0.2753
 4348TIP3    H134535   4.377   2.900  12.773  0.7602  0.6062 -0.5969
 4348TIP3    H234536   4.331   2.779  12.694  3.0164 -1.0480  0.5045
 4349TIP3   OH234537   1.587   3.452  12.618 -0.3199 -0.1928 -0.2229
 4349TIP3    H134538   1.605   3.520  12.554 -2.2746  0.4439 -0.1596
 4349TIP3    H234539   1.582   3.498  12.702 -0.0701 -0.6602  0.0533
 4350TIP3   OH234540   4.300   1.975   3.775 -0.8263  0.5446 -0.6108
 4350TIP3    H134541   4.304   2.070   3.766  2.0838  0.3654 -2.1222
 4350TIP3    H234542   4.330   1.958   3.865  1.6834  0.9803 -1.3081
 4351TIP3   OH234543   0.797   0.428  14.284  0.9321  0.0905 -0.1163
 4351TIP3    H134544   0.825   0.368  14.214 -0.3736 -0.3614 -0.2792
 4351TIP3    H234545   0.782   0.372  14.359  0.1895  0.2699 -0.1217
 4352TIP3   OH234546   5.815   7.037  13.493 -0.0779  0.1009  0.2476
 4352TIP3    H134547   5.825   7.035  13.398  1.0479 -0.4576  0.3558
 4352TIP3    H234548   5.831   7.128  13.517  1.6763 -0.1185  0.0640
 4353TIP3   OH234549   0.517   7.062   2.222 -0.9151  0.5277  0.0541
 4353TIP3    H134550   0.496   7.155   2.227 -0.3789  0.6075  0.9631
 4353TIP3    H234551   0.532   7.036   2.313  0.5945 -0.0505 -0.3353
 4354TIP3   OH234552   3.163   2.752  11.169  0.0266 -0.2292  0.7772
 4354TIP3    H134553   3.096   2.810  11.204 -0.9282 -1.0697  0.4064
 4354TIP3    H234554   3.232   2.751  11.235 -0.7474 -0.0708  1.5996
 4355TIP3   OH234555   2.252   2.822  10.011  0.1339  0.3620 -0.1455
 4355TIP3    H134556   2.174   2.776   9.981 -0.0555  0.5638  0.0374
 4355TIP3    H234557   2.309   2.825   9.934  0.0889 -0.0485 -0.1975
 4356TIP3   OH234558   4.637   6.380   9.491  0.1892 -0.0456 -0.9532
 4356TIP3    H134559   4.623   6.459   9.542 -1.2030 -0.8485 -0.0400
 4356TIP3    H234560   4.612   6.404   9.402 -0.1579  0.5578 -0.6963
 4357TIP3   OH234561   2.089   0.166  11.470  0.1156  0.3405  0.0757
 4357TIP3    H134562   2.135   0.231  11.523 -0.9166  2.1478 -1.1450
 4357TIP3    H234563   2.009   0.148  11.519  0.0747  0.5314  0.0820
 4358TIP3   OH234564   0.534   6.861  10.237  0.1958  0.0739  0.0435
 4358TIP3    H134565   0.462   6.834  10.179 -0.5431  1.2443  0.3992
 4358TIP3    H234566   0.521   6.810  10.317 -0.2433  0.2727  0.1037
 4359TIP3   OH234567   1.724   5.496  15.087 -0.2851  0.5017  0.5015
 4359TIP3    H134568   1.749   5.586  15.069 -1.1226  0.3868 -1.4037
 4359TIP3    H234569   1.641   5.503  15.134 -0.6845  0.7080 -0.2357
 4360TIP3   OH234570   4.868   0.410  13.830 -0.0121  0.2346  0.4953
 4360TIP3    H134571   4.887   0.405  13.924  2.1007 -0.9507  0.0674
 4360TIP3    H234572   4.952   0.430  13.790 -0.9258  0.9365 -1.1479
 4361TIP3   OH234573   2.001   0.800  15.381  0.5199  0.1884  0.4742
 4361TIP3    H134574   1.969   0.885  15.412 -1.0935 -1.0741  2.5097
 4361TIP3    H234575   2.071   0.778  15.442 -1.2220 -1.3252  2.0501
 4362TIP3   OH234576   1.999   0.522  11.124  0.5373 -0.2012  0.1911
 4362TIP3    H134577   1.982   0.568  11.042 -0.8106  0.3359  0.7379
 4362TIP3    H234578   1.924   0.462  11.134  1.3930 -1.2663  0.3515
 4363TIP3   OH234579   2.307   0.179  12.628  0.4121  0.7735 -0.7361
 4363TIP3    H134580   2.389   0.187  12.580  0.9971 -1.8742 -0.3584
 4363TIP3    H234581   2.329   0.202  12.718  0.4747  1.0682 -0.8252
 4364TIP3   OH234582   5.876   5.924   2.250 -0.2743  0.3943 -0.1410
 4364TIP3    H134583   5.822   5.911   2.172  0.6363 -0.4018 -0.6628
 4364TIP3    H234584   5.928   6.002   2.230  1.6931 -1.1145 -1.4180
 4365TIP3   OH234585   4.369   2.571  15.192 -0.0107  0.3095 -0.7507
 4365TIP3    H134586   4.428   2.600  15.122  2.0633 -1.8889 -0.0522
 4365TIP3    H234587   4.417   2.501  15.237 -2.1396  0.1569  1.5371
 4366TIP3   OH234588   5.762   3.647   0.325  0.3049 -0.1767  0.1686
 4366TIP3    H134589   5.733   3.563   0.289  1.9692 -0.9668  0.5848
 4366TIP3    H234590   5.688   3.705   0.312 -0.1600 -1.1593 -2.0134
 4367TIP3   OH234591   0.644   5.984  13.023 -0.2097  0.5243  0.5128
 4367TIP3    H134592   0.637   6.078  13.008  1.0853  0.5852  0.1309
 4367TIP3    H234593   0.661   5.975  13.117 -1.5485  0.5688  0.7868
 4368TIP3   OH234594   4.766   1.493  11.693  0.2584 -0.0955 -0.8905
 4368TIP3    H134595   4.738   1.428  11.758  0.1463 -1.0696 -1.8901
 4368TIP3    H234596   4.859   1.476  11.680  0.0424 -0.6185 -1.7796
 4369TIP3   OH234597   3.384   6.412  13.279 -0.1477  0.0030  1.0180
 4369TIP3    H134598   3.472   6.385  13.302 -0.2317 -0.7611  0.4986
 4369TIP3    H234599   3.337   6.415  13.362  0.8320  2.2914  1.5459
 4370TIP3   OH234600   2.338   1.374   1.682  0.4302 -0.1203 -0.2096
 4370TIP3    H134601   2.406   1.311   1.706  0.4971  0.2327  0.5752
 4370TIP3    H234602   2.332   1.432   1.758 -0.2552  0.2778 -0.5596
 4371TIP3   OH234603   6.987   6.804  15.172 -0.6004  0.1405 -0.3813
 4371TIP3    H134604   6.964   6.720  15.213 -1.2331  0.2289 -0.5447
 4371TIP3    H234605   6.918   6.864  15.200  0.4292  0.9029  0.6401
 4372TIP3   OH234606   4.065   2.395  11.925 -0.5844  0.6744 -0.6455
 4372TIP3    H134607   3.977   2.365  11.903  1.2745 -3.0813 -4.2810
 4372TIP3    H234608   4.069   2.485  11.894 -2.5254  0.1720 -2.5419
 4373TIP3   OH234609   6.048   6.219  14.652  0.2531 -0.2615 -0.3158
 4373TIP3    H134610   5.953   6.232  14.658  0.3905  2.0003 -2.0267
 4373TIP3    H234611   6.079   6.228  14.742 -1.1293 -1.3026  0.3176
 4374TIP3   OH234612   5.175   4.119  14.320  0.1264 -0.4308 -0.3614
 4374TIP3    H134613   5.212   4.161  14.397  1.5233 -0.8103 -0.8071
 4374TIP3    H234614   5.136   4.191  14.270 -0.0367 -0.0687  0.2808
 4375TIP3   OH234615   5.696   5.903   2.010 -0.2645 -0.6743 -0.2607
 4375TIP3    H134616   5.650   5.900   1.926  1.4862 -1.9421 -1.2455
 4375TIP3    H234617   5.687   5.815   2.046 -0.2074 -0.4044  0.4271
 4376TIP3   OH234618   6.863   1.630  11.393  0.4253 -0.0119 -1.5195
 4376TIP3    H134619   6.773   1.651  11.417  0.6217 -1.1497  0.4816
 4376TIP3    H234620   6.914   1.651  11.472  1.3174 -3.0156 -1.2016
 4377TIP3   OH234621   2.324   2.490   9.901  0.0773 -0.3107 -0.5435
 4377TIP3    H134622   2.259   2.515   9.968  1.6237  0.0267  0.8875
 4377TIP3    H234623   2.293   2.406   9.868 -0.0052 -1.1853  1.6273
 4378TIP3   OH234624   4.179   0.868  10.987  0.0825 -0.4315 -0.4758
 4378TIP3    H134625   4.243   0.898  10.923 -0.6441 -2.4535 -2.2576
 4378TIP3    H234626   4.204   0.778  11.007 -0.8442 -0.4838  0.6227
 4379TIP3   OH234627   6.162   5.069  10.809 -0.0011 -0.2305 -0.3457
 4379TIP3    H134628   6.228   5.136  10.788  0.2803 -0.1578  0.7156
 4379TIP3    H234629   6.105   5.067  10.731 -0.5511  1.8915 -0.0739
 4380TIP3   OH234630   4.306   3.930  13.272 -0.0090 -0.4888 -0.4499
 4380TIP3    H134631   4.276   4.001  13.328 -2.9859 -2.1497  0.2731
 4380TIP3    H234632   4.385   3.964  13.229 -1.9362  3.7022 -1.1432
 4381TIP3   OH234633   6.716   1.187  11.055 -0.0050 -0.2127  0.4367
 4381TIP3    H134634   6.811   1.182  11.045  0.0864  1.1257  0.4604
 4381TIP3    H234635   6.684   1.107  11.015  1.1168 -0.5324  0.1297
 4382TIP3   OH234636   4.776   4.894  10.628 -0.0692 -0.3250  0.1472
 4382TIP3    H134637   4.810   4.939  10.551 -2.5898  0.7253 -0.4359
 4382TIP3    H234638   4.850   4.891  10.689  1.4809  0.3732 -1.6181
 4383TIP3   OH234639   3.594   2.028   3.540 -0.4239  0.5795  0.4029
 4383TIP3    H134640   3.680   2.003   3.573  0.0025 -0.0368 -1.0689
 4383TIP3    H234641   3.605   2.118   3.510  1.2748 -0.8834 -4.3243
 4384TIP3   OH234642   1.469   6.732   9.811 -0.5638 -0.1608  0.0334
 4384TIP3    H134643   1.378   6.703   9.817  0.2787 -2.8132  1.9683
 4384TIP3    H234644   1.467   6.823   9.842 -2.5739  0.0644 -0.5583
 4385TIP3   OH234645   0.865   2.319   3.643 -0.1937 -0.9129 -0.3222
 4385TIP3    H134646   0.891   2.229   3.661 -0.3478 -0.6383  1.4453
 4385TIP3    H234647   0.945   2.370   3.654 -0.2252 -0.7722 -0.7476
 4386TIP3   OH234648   3.874   5.401  10.871 -0.6495 -0.0824  0.2705
 4386TIP3    H134649   3.949   5.442  10.913 -0.2040 -1.1305  0.5367
 4386TIP3    H234650   3.911   5.327  10.822 -1.6263 -1.4343  1.4862
 4387TIP3   OH234651   4.374   4.164  12.404  0.0838  0.1009  0.3228
 4387TIP3    H134652   4.359   4.219  12.481  0.1434  0.9130 -0.2268
 4387TIP3    H234653   4.411   4.224  12.339 -0.1156 -0.5344 -0.3895
 4388TIP3   OH234654   1.165   0.592  11.703 -0.4915 -0.0879 -0.2418
 4388TIP3    H134655   1.168   0.686  11.724  0.3615 -0.0186 -0.6159
 4388TIP3    H234656   1.087   0.582  11.649 -0.8521  0.3204  0.1954
 4389TIP3   OH234657   4.946   6.100  15.043 -0.3306 -0.1927 -0.5068
 4389TIP3    H134658   4.918   6.063  15.126 -2.4980  3.4469  0.6313
 4389TIP3    H234659   5.040   6.115  15.054 -0.3251 -0.9816  0.7236
 4390TIP3   OH234660   4.041   6.784  14.226  0.0330 -0.3222 -0.0282
 4390TIP3    H134661   4.116   6.764  14.170 -0.9658 -0.6791 -1.2667
 4390TIP3    H234662   3.968   6.736  14.187 -1.2446  1.4170  0.1125
 4391TIP3   OH234663   4.039   0.389  12.078  0.0052  0.3788 -0.4129
 4391TIP3    H134664   4.109   0.324  12.083  0.2535  0.3730 -2.8258
 4391TIP3    H234665   3.979   0.366  12.149  1.9438 -0.1870  1.1229
 4392TIP3   OH234666   4.783   0.915  11.562 -0.0546  0.1181 -0.1919
 4392TIP3    H134667   4.803   0.828  11.598  1.8974  0.4146 -0.4280
 4392TIP3    H234668   4.766   0.898  11.469 -0.6203 -0.1051 -0.0546
 4393TIP3   OH234669   0.937   6.339   0.130  0.4775  0.5715  0.5558
 4393TIP3    H134670   0.881   6.394   0.075  1.0353 -0.0758 -0.7278
 4393TIP3    H234671   1.008   6.312   0.071  0.9020 -0.4635  1.5072
 4394TIP3   OH234672   3.807   1.003  14.523  0.1261  0.3524  0.8438
 4394TIP3    H134673   3.786   1.082  14.473 -1.7046 -0.6675 -0.0925
 4394TIP3    H234674   3.885   0.968  14.480  0.1462  0.9339  0.3985
 4395TIP3   OH234675   1.726   2.206   9.835 -0.3985 -0.0588  0.2084
 4395TIP3    H134676   1.747   2.113   9.823 -2.4245 -0.6826  1.0276
 4395TIP3    H234677   1.724   2.242   9.746 -1.3215 -1.2396 -0.2834
 4396TIP3   OH234678   0.649   6.066   5.351 -0.3873 -0.5706  0.2815
 4396TIP3    H134679   0.571   6.120   5.361 -1.1417 -1.5138 -0.4023
 4396TIP3    H234680   0.617   5.982   5.318  0.6106 -1.8561  2.3290
 4397TIP3   OH234681   2.073   1.880  11.116  0.1964  0.2373 -0.0515
 4397TIP3    H134682   2.023   1.808  11.077 -1.6333  1.9316 -0.9575
 4397TIP3    H234683   2.105   1.844  11.198 -0.9712 -1.5117 -0.3011
 4398TIP3   OH234684   4.914   0.402   3.919  0.5743 -0.1716  0.1079
 4398TIP3    H134685   4.996   0.357   3.900  0.4696 -0.2951 -0.0498
 4398TIP3    H234686   4.921   0.485   3.871  0.7028 -0.0831  0.2777
 4399TIP3   OH234687   1.205   7.091  15.217 -0.6362  0.1898 -0.6647
 4399TIP3    H134688   1.144   7.085  15.290 -1.1012  1.4647 -0.9146
 4399TIP3    H234689   1.178   7.170  15.170  0.5563  0.2001 -1.3779
 4400TIP3   OH234690   5.778   6.787  10.811 -0.0481 -0.2329  0.0983
 4400TIP3    H134691   5.740   6.736  10.739  0.9431 -1.1380  0.1855
 4400TIP3    H234692   5.775   6.877  10.780 -0.4881 -0.5033 -0.6934
 4401TIP3   OH234693   5.334   5.058  11.746  0.1738 -0.0957 -0.0451
 4401TIP3    H134694   5.335   4.984  11.807 -1.2584 -0.3875 -0.3396
 4401TIP3    H234695   5.243   5.088  11.747  0.6401  1.3857 -0.2805
 4402TIP3   OH234696   5.708   3.072  12.834  0.2717  0.3462 -0.4746
 4402TIP3    H134697   5.700   3.166  12.816 -1.6599  0.2111 -0.4966
 4402TIP3    H234698   5.667   3.029  12.759 -0.2245 -0.4629  0.2421
 4403TIP3   OH234699   0.163   5.136  12.163 -0.0859 -0.0194  0.3039
 4403TIP3    H134700   0.227   5.092  12.220 -1.0433  0.3369  1.7156
 4403TIP3    H234701   0.107   5.066  12.132  0.7846 -0.2944 -0.7036
 4404TIP3   OH234702   6.216   6.308  13.228 -0.4876  0.4564 -0.3123
 4404TIP3    H134703   6.222   6.215  13.247  0.4475  0.0073 -2.5239
 4404TIP3    H234704   6.123   6.325  13.220 -0.8434  0.3072  2.4668
 4405TIP3   OH234705   4.646   5.868   3.652  0.3115 -0.7141  0.1286
 4405TIP3    H134706   4.564   5.913   3.671  0.4366 -0.2458 -0.4162
 4405TIP3    H234707   4.714   5.927   3.683  0.5231  0.1226 -1.8219
 4406TIP3   OH234708   5.830   0.797  10.991 -0.2199  0.2095 -0.3864
 4406TIP3    H134709   5.869   0.710  10.995 -0.5134  0.0319 -1.2467
 4406TIP3    H234710   5.882   0.849  11.053  0.7303 -0.2744 -0.7540
 4407TIP3   OH234711   6.419   4.763  15.373 -0.4382 -0.0239  0.7147
 4407TIP3    H134712   6.415   4.687  15.315  1.6388  0.9885 -0.9194
 4407TIP3    H234713   6.334   4.806  15.362 -0.4570 -0.3858 -0.8959
 4408TIP3   OH234714   0.878   3.934  13.703  0.5786 -0.0829 -0.1392
 4408TIP3    H134715   0.804   3.916  13.762 -0.1414  3.0155  0.0728
 4408TIP3    H234716   0.913   4.017  13.735  1.9576  0.2653 -2.3983
 4409TIP3   OH234717   6.676   1.734  11.791  0.4288 -0.4366 -0.0488
 4409TIP3    H134718   6.663   1.828  11.804 -0.5767 -0.8806  2.9216
 4409TIP3    H234719   6.608   1.709  11.728 -0.3722  0.5782  0.3729
 4410TIP3   OH234720   2.758   0.200  10.799 -0.4360 -0.8378  0.1408
 4410TIP3    H134721   2.829   0.239  10.749  0.2122 -2.7625 -0.5303
 4410TIP3    H234722   2.732   0.268  10.861  2.3724 -0.2477  0.8055
 4411TIP3   OH234723   0.476   5.056  12.074 -0.1276 -0.1827 -0.0127
 4411TIP3    H134724   0.564   5.027  12.097  0.1278 -0.7578 -1.5467
 4411TIP3    H234725   0.489   5.110  11.996 -0.7794  2.7468  1.7665
 4412TIP3   OH234726   2.488   2.352   1.294  0.1190  0.6243 -0.2392
 4412TIP3    H134727   2.403   2.393   1.280  0.4556  1.2199 -0.6173
 4412TIP3    H234728   2.544   2.391   1.226  0.6571  0.1500 -0.0729
 4413TIP3   OH234729   3.244   2.532  10.872 -0.4713 -0.0669  0.3599
 4413TIP3    H134730   3.184   2.537  10.946 -0.8218 -0.1773  0.0870
 4413TIP3    H234731   3.232   2.444  10.836  0.5704 -0.4442  0.8875
 4414TIP3   OH234732   2.966   0.917  12.510  0.3126 -0.0390  0.3365
 4414TIP3    H134733   2.914   0.844  12.545 -1.1770 -0.6341 -2.7905
 4414TIP3    H234734   2.905   0.968  12.457  2.1905  1.2181 -0.7567
 4415TIP3   OH234735   5.104   3.329  13.520 -0.5615 -0.4371 -0.0309
 4415TIP3    H134736   5.163   3.305  13.592  0.1419  0.8438 -0.1373
 4415TIP3    H234737   5.018   3.335  13.561 -0.3930 -1.0000  0.4206
 4416TIP3   OH234738   2.276   1.788  13.347  0.2644  0.5756 -0.2637
 4416TIP3    H134739   2.328   1.869  13.350 -0.7751  1.2864 -0.7235
 4416TIP3    H234740   2.332   1.722  13.388  0.6802  1.7746  1.1764
 4417TIP3   OH234741   5.456   1.259  12.072  1.0375  0.0764 -0.1100
 4417TIP3    H134742   5.551   1.262  12.066  1.2136  0.3271  2.1051
 4417TIP3    H234743   5.437   1.180  12.123  0.0663  0.1793 -0.2863
 4418TIP3   OH234744   6.983   5.448  10.910 -0.0704  0.4885 -0.0601
 4418TIP3    H134745   7.021   5.453  10.822  2.0837  0.6678  0.8065
 4418TIP3    H234746   7.052   5.482  10.967 -2.1618  2.3808  1.5293
 4419TIP3   OH234747   3.782   6.415   1.259  0.4766 -0.1879  0.0461
 4419TIP3    H134748   3.711   6.477   1.279 -0.4133 -1.2937  0.4077
 4419TIP3    H234749   3.752   6.332   1.294  1.0766 -1.1318 -1.5761
 4420TIP3   OH234750   5.855   6.847   3.342 -0.2937  0.5102  0.0808
 4420TIP3    H134751   5.889   6.936   3.333 -2.1432  1.1931 -0.7376
 4420TIP3    H234752   5.803   6.849   3.422 -0.9620  0.3955 -0.3422
 4421TIP3   OH234753   0.586   0.805  14.725  0.3206  0.7453  0.9924
 4421TIP3    H134754   0.519   0.793  14.658  1.5092  0.7199 -0.2420
 4421TIP3    H234755   0.611   0.717  14.752  0.9482  0.7041  0.3039
 4422TIP3   OH234756   5.796   1.249   0.710 -0.2271 -0.4614 -0.4201
 4422TIP3    H134757   5.735   1.183   0.677  1.0622 -0.3861 -3.2660
 4422TIP3    H234758   5.772   1.329   0.663 -0.2662  0.5354  1.2226
 4423TIP3   OH234759   2.248   1.931   1.626  0.0122  0.0822  0.2625
 4423TIP3    H134760   2.184   1.871   1.586  0.9992 -1.8519  1.4233
 4423TIP3    H234761   2.253   1.903   1.717  0.6913  1.8416  0.7919
 4424TIP3   OH234762   0.175   1.170   4.037  0.3007 -0.4771 -0.3105
 4424TIP3    H134763   0.105   1.170   4.101 -0.0840  0.8186 -0.7093
 4424TIP3    H234764   0.255   1.172   4.089 -0.0167  2.0212  0.1785
 4425TIP3   OH234765   5.823   6.404  12.450  0.8798 -0.0395 -0.2042
 4425TIP3    H134766   5.795   6.494  12.469 -0.0699 -0.4712  0.4982
 4425TIP3    H234767   5.742   6.353  12.450  1.4327 -0.9395 -0.4049
 4426TIP3   OH234768   5.276   7.083  12.200 -0.0627 -0.2020  0.3335
 4426TIP3    H134769   5.196   7.036  12.223  0.4894 -0.6655  1.4244
 4426TIP3    H234770   5.285   7.071  12.106 -2.1336  1.2690 -0.1265
 4427TIP3   OH234771   0.338   1.426   3.004 -0.4280  0.6257  0.6298
 4427TIP3    H134772   0.420   1.451   3.046  0.1886 -0.3733  0.0692
 4427TIP3    H234773   0.319   1.496   2.942  0.3810  0.5180  0.2554
 4428TIP3   OH234774   5.426   2.034  13.681 -0.0378 -0.6831  0.7298
 4428TIP3    H134775   5.396   2.035  13.772 -0.3440 -0.7567  0.6291
 4428TIP3    H234776   5.470   2.119  13.670 -0.9756 -0.2059  0.6186
 4429TIP3   OH234777   3.613   6.397  12.978  0.1003  0.6898  0.2983
 4429TIP3    H134778   3.568   6.482  12.980 -0.8148  0.2130  0.6979
 4429TIP3    H234779   3.546   6.335  12.950  1.5880  0.5349 -3.4033
 4430TIP3   OH234780   7.039   1.137  12.290  0.6316  0.5163  0.4133
 4430TIP3    H134781   6.976   1.190  12.339 -0.2933 -0.4366  0.2688
 4430TIP3    H234782   7.013   1.047  12.306  1.2872  0.1403 -0.5447
 4431TIP3   OH234783   2.084   4.414   3.274 -0.0244 -0.0051  0.3075
 4431TIP3    H134784   2.094   4.344   3.339 -0.3644  0.6718  1.1137
 4431TIP3    H234785   2.162   4.469   3.286 -0.0372  0.0651  0.0670
 4432TIP3   OH234786   6.005   4.381   5.260 -0.8542 -0.2361 -0.1230
 4432TIP3    H134787   5.919   4.419   5.243 -0.3208  0.1584 -2.1656
 4432TIP3    H234788   6.042   4.435   5.330 -1.1687  1.3670 -1.1591
 4433TIP3   OH234789   1.526   2.649  15.266  0.4437  0.3716 -0.1770
 4433TIP3    H134790   1.499   2.562  15.295  2.2045 -0.1765 -0.0653
 4433TIP3    H234791   1.482   2.709  15.326  1.7866 -0.6237  1.9352
 4434TIP3   OH234792   5.227   6.310  12.896  0.0429  0.1129 -0.0742
 4434TIP3    H134793   5.149   6.359  12.923 -1.0337 -1.5928  0.0912
 4434TIP3    H234794   5.246   6.252  12.970  1.8530  0.8745  0.1187
 4435TIP3   OH234795   1.427   1.574  10.749 -0.4714 -0.1774 -0.0723
 4435TIP3    H134796   1.522   1.570  10.741 -0.4566  1.8125 -1.7955
 4435TIP3    H234797   1.395   1.495  10.705  0.3525 -1.4478  1.5069
 4436TIP3   OH234798   6.822   2.539  14.848  0.5762  0.3595  0.5072
 4436TIP3    H134799   6.734   2.573  14.860  0.2143 -0.3548 -0.0750
 4436TIP3    H234800   6.863   2.598  14.785  0.5568  0.7476  0.8519
 4437TIP3   OH234801   3.602   0.187  13.697  0.3947  0.5674  0.1540
 4437TIP3    H134802   3.560   0.189  13.783  0.4328 -1.1057  0.2398
 4437TIP3    H234803   3.693   0.163  13.716  0.2699 -0.3576 -0.3902
 4438TIP3   OH234804   3.820   2.972  14.081  0.4599 -0.2206 -0.1419
 4438TIP3    H134805   3.823   3.043  14.018  1.0538  1.1262  1.3322
 4438TIP3    H234806   3.768   3.006  14.154  1.2118 -1.0707  0.8399
 4439TIP3   OH234807   6.376   4.734   2.546 -0.4907  0.1652 -0.8776
 4439TIP3    H134808   6.323   4.787   2.606  1.0151 -0.0354  0.7176
 4439TIP3    H234809   6.386   4.789   2.469 -1.5326  0.9198 -0.5088
 4440TIP3   OH234810   2.383   0.671   1.384  0.6096  0.1144  0.3511
 4440TIP3    H134811   2.445   0.646   1.315 -0.5058 -0.3179 -0.5313
 4440TIP3    H234812   2.302   0.627   1.360 -0.3346  1.4622  0.9105
 4441TIP3   OH234813   6.749   2.861  13.868  0.3535 -0.3746 -0.2127
 4441TIP3    H134814   6.733   2.942  13.820 -0.1331 -1.3581 -1.7933
 4441TIP3    H234815   6.720   2.792  13.808  0.3422 -1.7012  1.2595
 4442TIP3   OH234816   0.867   1.786  11.913  0.8005  0.5519 -0.2702
 4442TIP3    H134817   0.941   1.764  11.857  0.8209  0.4165 -0.1912
 4442TIP3    H234818   0.794   1.737  11.876  0.3683  1.9382 -1.3246
 4443TIP3   OH234819   4.088   2.984  14.177 -0.2702 -0.5889  0.0740
 4443TIP3    H134820   4.007   2.954  14.136 -0.3517  0.9908 -1.0131
 4443TIP3    H234821   4.060   3.052  14.239  0.1898 -0.2168 -0.1193
 4444TIP3   OH234822   4.811   1.174   0.254 -0.0453 -0.1466 -0.3038
 4444TIP3    H134823   4.756   1.108   0.295 -0.7826  0.5192 -0.2081
 4444TIP3    H234824   4.829   1.237   0.325 -0.2973  0.3537 -0.6770
 4445TIP3   OH234825   2.015   3.839  10.905 -0.0375  0.2517  0.2803
 4445TIP3    H134826   2.030   3.921  10.859 -1.8067  0.8752  0.7571
 4445TIP3    H234827   2.043   3.857  10.995  1.4920 -0.3407 -0.0360
 4446TIP3   OH234828   5.413   4.732   0.986 -0.4095  0.5512  0.5639
 4446TIP3    H134829   5.344   4.737   0.919 -0.4366  0.5931  0.5952
 4446TIP3    H234830   5.469   4.807   0.967  1.4478 -1.2075 -1.4701
 4447TIP3   OH234831   4.454   1.117   3.259 -0.7054  0.2721 -0.0532
 4447TIP3    H134832   4.496   1.131   3.343 -0.6036 -1.3422  0.1914
 4447TIP3    H234833   4.406   1.198   3.242  1.7614  1.8545  0.0529
 4448TIP3   OH234834   4.557   4.136   1.819  0.5500  0.0106  0.0203
 4448TIP3    H134835   4.470   4.167   1.843  0.9676  0.0293  1.5710
 4448TIP3    H234836   4.605   4.215   1.793  0.9673  0.4503  1.9615
 4449TIP3   OH234837   6.144   2.122   9.987  0.7227  0.1442 -0.0076
 4449TIP3    H134838   6.056   2.157   9.996  0.4250 -0.5474 -0.1418
 4449TIP3    H234839   6.201   2.199   9.988  0.1912  0.5392  0.9617
 4450TIP3   OH234840   6.615   4.113  11.164 -0.2340 -0.1720 -0.4268
 4450TIP3    H134841   6.677   4.120  11.091 -1.7392 -2.7708 -2.0573
 4450TIP3    H234842   6.541   4.065  11.129 -0.9436 -1.7572  2.8955
 4451TIP3   OH234843   3.148   4.659  15.485  0.3242  0.1065 -0.0925
 4451TIP3    H134844   3.087   4.718  15.442 -1.6438 -2.1929 -0.6852
 4451TIP3    H234845   3.232   4.676  15.442  0.3622  3.7072  1.0887
 4452TIP3   OH234846   0.039   3.881   0.182 -0.1084  0.0456 -0.1097
 4452TIP3    H134847  -0.051   3.900   0.208 -0.9599 -2.0064 -1.3383
 4452TIP3    H234848   0.073   3.823   0.251 -0.1310 -0.1243 -0.2409
 4453TIP3   OH234849   2.458   7.023  11.117  0.2281  1.1814  0.2363
 4453TIP3    H134850   2.427   7.111  11.141 -1.5737  0.5330  0.4165
 4453TIP3    H234851   2.434   7.013  11.025  0.6360  0.9510  0.1517
 4454TIP3   OH234852   1.666   5.615   3.335 -0.4346  0.3697  0.5795
 4454TIP3    H134853   1.573   5.633   3.354 -0.9077  0.9008 -1.8898
 4454TIP3    H234854   1.663   5.548   3.266  1.0226  0.5159  0.3629
 4455TIP3   OH234855   5.700   0.079   0.728 -0.5557 -0.0038 -0.1740
 4455TIP3    H134856   5.636   0.085   0.657 -1.0860 -2.3542  0.0166
 4455TIP3    H234857   5.691   0.161   0.776 -2.6392  0.1936 -0.8282
 4456TIP3   OH234858   4.203   2.821  11.217  0.3650 -0.0970  0.3814
 4456TIP3    H134859   4.183   2.862  11.301 -0.5928  1.1027 -0.3860
 4456TIP3    H234860   4.289   2.782  11.229  0.2881  0.1331  1.8829
 4457TIP3   OH234861   1.171   5.257  13.201 -0.3771 -0.3217 -0.3262
 4457TIP3    H134862   1.216   5.321  13.146 -0.6477 -1.2916 -1.7187
 4457TIP3    H234863   1.242   5.207  13.242 -0.1657 -0.2888 -0.6442
 4458TIP3   OH234864   6.142   0.095   4.236 -0.5486 -0.5501  0.2707
 4458TIP3    H134865   6.091   0.176   4.228 -2.7593 -1.8146  0.7143
 4458TIP3    H234866   6.138   0.055   4.150 -1.2124 -1.1508  0.5719
 4459TIP3   OH234867   6.031   0.598  13.999  0.1903  0.3566  0.5571
 4459TIP3    H134868   6.036   0.662  14.069  0.1452  0.5677  0.3684
 4459TIP3    H234869   6.122   0.569  13.986  0.2002  0.3294  0.6893
 4460TIP3   OH234870   0.126   6.833   1.831  0.3442 -0.0945  0.0781
 4460TIP3    H134871   0.186   6.904   1.854  0.4242 -0.1399  0.0064
 4460TIP3    H234872   0.098   6.854   1.742 -1.3180  1.0473  0.8133
 4461TIP3   OH234873   7.113   2.121  11.143  0.2576  0.0945  0.1588
 4461TIP3    H134874   7.103   2.189  11.077 -0.0358  0.3099  0.4206
 4461TIP3    H234875   7.128   2.170  11.225  0.8898 -0.1715  0.2052
 4462TIP3   OH234876   4.464   0.915  13.299 -0.1056 -0.0567 -0.0150
 4462TIP3    H134877   4.493   0.866  13.223 -1.8338 -1.1868 -0.0247
 4462TIP3    H234878   4.389   0.865  13.332  1.4064 -0.4212  3.2858
 4463TIP3   OH234879   6.817   6.098  12.127  0.5288 -0.6074 -0.6708
 4463TIP3    H134880   6.847   6.063  12.043 -0.1783 -1.7039 -0.4855
 4463TIP3    H234881   6.728   6.127  12.110  1.3718  1.9912 -1.0373
 4464TIP3   OH234882   3.958   6.085  11.248  0.4180 -0.5799 -0.8495
 4464TIP3    H134883   3.990   6.158  11.301  0.2119 -1.3378  0.3702
 4464TIP3    H234884   3.917   6.026  11.312 -0.9364 -0.9476 -2.0199
 4465TIP3   OH234885   3.390   0.299   5.347  0.4271 -0.4974 -0.5290
 4465TIP3    H134886   3.455   0.251   5.297  0.5642  1.7306 -2.6960
 4465TIP3    H234887   3.412   0.391   5.333 -0.8414  0.2881  1.9742
 4466TIP3   OH234888   6.296   6.763   5.092 -0.0790  0.4425 -0.1737
 4466TIP3    H134889   6.372   6.818   5.075 -0.0437  0.3018 -0.4863
 4466TIP3    H234890   6.224   6.807   5.047 -0.4568  1.2461  1.1564
 4467TIP3   OH234891   5.714   5.485   3.493 -0.2376 -0.2907 -0.4984
 4467TIP3    H134892   5.639   5.543   3.478  0.3703  0.6110 -0.1311
 4467TIP3    H234893   5.714   5.470   3.587 -0.0564 -0.4307 -0.5211
 4468TIP3   OH234894   2.262   2.097  14.062 -0.5471  0.1747 -0.1362
 4468TIP3    H134895   2.352   2.065  14.062 -0.3151  0.8000 -0.2526
 4468TIP3    H234896   2.249   2.132  13.974 -0.7758  0.4227 -0.0053
 4469TIP3   OH234897   5.554   3.873  14.336 -0.3281  0.4874  0.2473
 4469TIP3    H134898   5.584   3.892  14.425 -0.1740  0.9160  0.1054
 4469TIP3    H234899   5.466   3.912  14.332 -0.1718  0.8253  0.0832
 4470TIP3   OH234900   3.345   1.663  11.328  0.2273 -0.0031 -0.4668
 4470TIP3    H134901   3.275   1.668  11.393  0.0039 -1.5976 -0.5470
 4470TIP3    H234902   3.424   1.690  11.377  0.0256 -0.9576  0.4341
 4471TIP3   OH234903   4.510   7.145  12.345  0.5257  0.4040  0.4505
 4471TIP3    H134904   4.489   7.102  12.428  0.9364 -0.0519  0.3243
 4471TIP3    H234905   4.530   7.236  12.370  0.9060  0.2072  0.8882
 4472TIP3   OH234906   5.970   1.741  10.479 -0.1810  0.0202 -0.2868
 4472TIP3    H134907   6.020   1.797  10.539  1.5537 -1.3455 -0.3404
 4472TIP3    H234908   5.916   1.687  10.537  0.8455 -0.6990  0.0323
 4473TIP3   OH234909   0.184   7.127   6.240  0.0136  0.0666 -0.5990
 4473TIP3    H134910   0.124   7.190   6.278  2.2905  0.9245  1.8770
 4473TIP3    H234911   0.146   7.041   6.262 -1.6703  0.5195 -1.5691
 4474TIP3   OH234912   7.146   3.346  13.923  0.0423  0.0402  0.7916
 4474TIP3    H134913   7.235   3.320  13.946 -0.3042 -0.7813  1.2481
 4474TIP3    H234914   7.099   3.350  14.007 -0.2354  0.9442  0.6075
 4475TIP3   OH234915   1.148   2.035   2.209  0.4761  0.2949  1.0377
 4475TIP3    H134916   1.225   1.981   2.224 -0.0288 -0.9708 -0.7093
 4475TIP3    H234917   1.153   2.060   2.117 -0.2086  1.8172  1.3780
 4476TIP3   OH234918   5.289   3.472  15.204  0.3497  0.0805 -0.1188
 4476TIP3    H134919   5.296   3.410  15.276 -0.8272 -0.3780 -0.3673
 4476TIP3    H234920   5.292   3.418  15.125 -0.8525  0.2829 -0.3344
 4477TIP3   OH234921   0.573   6.685   1.094  0.1311 -0.3128 -0.3093
 4477TIP3    H134922   0.566   6.720   1.005  0.8867 -0.5897 -0.4840
 4477TIP3    H234923   0.632   6.745   1.138  0.3034 -0.5675 -0.1950
 4478TIP3   OH234924   3.083   0.101  11.445  0.0814 -0.0177  0.4353
 4478TIP3    H134925   3.042   0.101  11.531  0.8127  0.8135  0.8000
 4478TIP3    H234926   3.078   0.010  11.416 -1.7642 -0.0046  0.5642
 4479TIP3   OH234927   5.403   6.972  10.234 -0.3821  0.0644  0.6964
 4479TIP3    H134928   5.410   6.991  10.141 -0.8620 -0.5453  0.5257
 4479TIP3    H234929   5.409   6.876  10.239 -1.7359 -0.0165  1.1533
 4480TIP3   OH234930   4.830   2.714  10.977  0.2454 -0.1686 -0.2570
 4480TIP3    H134931   4.867   2.679  10.897  0.9700 -1.6876  0.7056
 4480TIP3    H234932   4.904   2.722  11.037 -0.7572 -2.4766  1.4310
 4481TIP3   OH234933   1.011   3.152  14.708 -0.4053 -0.2217 -0.6529
 4481TIP3    H134934   1.070   3.144  14.632 -1.0227 -2.4022 -0.9740
 4481TIP3    H234935   0.948   3.082  14.696 -0.2420 -0.9502  2.1395
 4482TIP3   OH234936   5.181   0.986  12.197  0.1504 -0.0059  0.9141
 4482TIP3    H134937   5.274   0.974  12.215  0.6694  0.4352 -1.2074
 4482TIP3    H234938   5.178   1.041  12.118 -1.9012 -0.0562  0.8858
 4483TIP3   OH234939   4.275   2.481  10.569  0.1585  0.1984  0.4486
 4483TIP3    H134940   4.302   2.557  10.517 -0.4529  1.2398  1.5978
 4483TIP3    H234941   4.354   2.429  10.578  1.0351  1.5426  0.9962
 4484TIP3   OH234942   0.274   7.073  12.650 -0.1739 -0.2433 -0.2077
 4484TIP3    H134943   0.267   7.003  12.715  0.1527 -0.7636 -0.7266
 4484TIP3    H234944   0.351   7.124  12.678 -0.3100 -0.1927  0.0744
 4485TIP3   OH234945   3.771   1.895  12.749 -0.0424 -0.0738 -0.7425
 4485TIP3    H134946   3.783   1.964  12.684  1.2994  1.5776  1.1098
 4485TIP3    H234947   3.858   1.884  12.788 -1.1847  0.6815  2.3102
 4486TIP3   OH234948   6.455   4.892  13.640  0.0524  0.5531 -0.6362
 4486TIP3    H134949   6.493   4.835  13.707 -0.3512 -0.0758 -0.9229
 4486TIP3    H234950   6.365   4.859  13.629  0.6072 -0.4876 -2.6725
 4487TIP3   OH234951   7.004   6.293   1.413  0.0480  0.1312 -0.0638
 4487TIP3    H134952   6.981   6.355   1.481  0.6236  0.2052  0.0631
 4487TIP3    H234953   6.970   6.209   1.445  0.9374  0.0317  0.6513
 4488TIP3   OH234954   5.906   4.946   1.068 -0.0367 -0.3724  0.0354
 4488TIP3    H134955   5.900   4.879   1.000 -0.7203  0.1371 -0.4155
 4488TIP3    H234956   5.955   5.018   1.027 -0.5090 -0.0384  0.0507
 4489TIP3   OH234957   4.659   1.735  10.434 -0.1830 -0.5259  0.1966
 4489TIP3    H134958   4.710   1.781  10.501 -0.1716 -1.0483  0.5525
 4489TIP3    H234959   4.716   1.662  10.408 -0.0993 -0.2072 -0.5357
 4490TIP3   OH234960   6.173   6.181  10.542  0.9174 -0.1014 -0.1567
 4490TIP3    H134961   6.090   6.186  10.591  0.4128  0.0822 -1.0067
 4490TIP3    H234962   6.240   6.199  10.607  0.2616  0.1053  0.4786
 4491TIP3   OH234963   6.523   2.661  11.651  0.2750  0.1687 -0.6451
 4491TIP3    H134964   6.437   2.690  11.681 -1.3321 -2.5643 -2.1273
 4491TIP3    H234965   6.573   2.741  11.636 -1.7361  1.8183  0.9483
 4492TIP3   OH234966   1.813   6.553   2.565  0.0561 -0.3386 -0.4264
 4492TIP3    H134967   1.730   6.504   2.561 -0.7339  0.9034  0.2243
 4492TIP3    H234968   1.853   6.524   2.647  0.0139 -0.5453 -0.4772
 4493TIP3   OH234969   2.362   5.486  14.888 -0.0739 -0.0267 -0.0322
 4493TIP3    H134970   2.332   5.552  14.825 -0.6674 -1.0873 -0.8953
 4493TIP3    H234971   2.315   5.506  14.969 -0.4099  0.4713 -0.3514
 4494TIP3   OH234972   7.127   6.841  11.578  0.2347 -0.4292  0.2891
 4494TIP3    H134973   7.115   6.893  11.658  0.3459 -1.4283  0.9869
 4494TIP3    H234974   7.048   6.787  11.573  0.5666 -0.9127  0.1509
 4495TIP3   OH234975   4.941   3.013   9.784  0.4295 -0.1991  0.6797
 4495TIP3    H134976   4.846   3.015   9.791  0.1867  0.0328 -1.7976
 4495TIP3    H234977   4.961   2.925   9.753  1.2666 -0.9117  2.9909
 4496TIP3   OH234978   5.522   2.016  12.323 -0.2976 -0.3764 -0.6278
 4496TIP3    H134979   5.468   2.068  12.382 -0.3421 -0.4759 -0.5792
 4496TIP3    H234980   5.612   2.041  12.343 -0.3707  1.4133 -2.1963
 4497TIP3   OH234981   1.017   5.335   9.885 -0.0668 -0.5955  0.3338
 4497TIP3    H134982   1.044   5.244   9.898  0.2685 -0.8804 -1.9072
 4497TIP3    H234983   0.921   5.333   9.884 -0.0619 -0.8737  0.5917
 4498TIP3   OH234984   0.536   6.459  11.985 -0.2680  0.0584 -0.6233
 4498TIP3    H134985   0.570   6.522  11.922  1.5213 -0.0271  0.2017
 4498TIP3    H234986   0.491   6.393  11.931  1.0060  0.1114 -1.7911
 4499TIP3   OH234987   1.406   2.816   0.765  0.4720 -0.4639  0.3354
 4499TIP3    H134988   1.333   2.779   0.815 -0.9580 -0.4966 -1.6437
 4499TIP3    H234989   1.453   2.740   0.730 -1.2173 -0.5637 -1.9818
 4500TIP3   OH234990   0.887   0.377   0.814  0.3549 -0.5283  0.0497
 4500TIP3    H134991   0.931   0.448   0.861 -2.3047  2.8402 -1.9567
 4500TIP3    H234992   0.809   0.358   0.867 -0.8041  0.7559 -1.1016
 4501TIP3   OH234993   3.564   3.564   0.879  0.2375 -0.3944 -1.4538
 4501TIP3    H134994   3.503   3.517   0.936  1.0712 -1.1553 -1.1731
 4501TIP3    H234995   3.635   3.591   0.937  1.0322 -1.0549 -2.1050
 4502TIP3   OH234996   3.116   0.132  12.257  0.4654 -0.4093  0.0340
 4502TIP3    H134997   3.191   0.078  12.280 -0.5413 -2.0756 -0.4316
 4502TIP3    H234998   3.121   0.142  12.162 -0.0920 -0.8550 -0.0483
 4503TIP3   OH234999   0.137   0.571  11.102 -0.6128  0.5818 -0.4329
 4503TIP3    H135000   0.195   0.559  11.027  1.3147  1.6267  0.7978
 4503TIP3    H235001   0.137   0.666  11.118 -0.7004  0.3678  1.0568
 4504TIP3   OH235002   6.308   0.772  14.291  0.0290 -0.6813 -0.0520
 4504TIP3    H135003   6.374   0.775  14.222  0.2143  1.4071  0.1492
 4504TIP3    H235004   6.228   0.805  14.249 -0.5431 -1.8351  0.0850
 4505TIP3   OH235005   2.850   0.503  14.177  0.4363 -0.5401  0.1577
 4505TIP3    H135006   2.858   0.485  14.083 -3.0264  0.8834 -0.5818
 4505TIP3    H235007   2.774   0.560  14.183  0.2298 -1.0011  3.9251
 4506TIP3   OH235008   2.937   1.904   0.911 -0.1390  0.3357 -0.3366
 4506TIP3    H135009   2.910   1.970   0.975 -1.2264 -1.1365  0.8211
 4506TIP3    H235010   3.001   1.850   0.958 -1.1736 -0.9446 -0.3006
 4507TIP3   OH235011   1.338   2.105  14.868  0.1190 -0.0177  0.6743
 4507TIP3    H135012   1.256   2.065  14.837 -0.0520 -0.8169  2.1104
 4507TIP3    H235013   1.406   2.045  14.840  0.1670  0.3104  0.0649
 4508TIP3   OH235014   6.716   5.165  11.707  0.0976  0.2010  0.3807
 4508TIP3    H135015   6.678   5.103  11.644 -0.3829  0.1256  0.7406
 4508TIP3    H235016   6.809   5.169  11.683  0.3054 -1.2790  0.8505
 4509TIP3   OH235017   0.803   4.914  15.365 -0.9833 -0.0753 -0.0547
 4509TIP3    H135018   0.757   4.862  15.432  0.7725 -1.6363  0.0233
 4509TIP3    H235019   0.828   4.850  15.298  0.8578  0.7218 -0.1854
 4510TIP3   OH235020   6.969   3.878   4.779  0.2430  0.2898 -0.0219
 4510TIP3    H135021   7.060   3.855   4.762  0.2837 -0.0727  0.6366
 4510TIP3    H235022   6.961   3.968   4.748  0.8463  0.3524 -0.0162
 4511TIP3   OH235023   1.911   6.189  11.538 -0.1267 -0.4904  0.2345
 4511TIP3    H135024   1.826   6.145  11.538  0.4193 -1.6795  2.3889
 4511TIP3    H235025   1.914   6.237  11.621  0.8515  0.5090 -0.3490
 4512TIP3   OH235026   0.021   4.502  11.689  0.7068 -0.5587  0.2370
 4512TIP3    H135027  -0.052   4.447  11.662 -1.4126  1.8946  0.6453
 4512TIP3    H235028   0.066   4.524  11.607  0.5521 -1.4404 -0.1016
 4513TIP3   OH235029   2.990   4.938   1.854 -0.2458  0.2151  0.3965
 4513TIP3    H135030   2.930   4.884   1.803  0.2073 -0.2167  0.3102
 4513TIP3    H235031   3.068   4.883   1.866  0.6720  1.2327 -0.6310
 4514TIP3   OH235032   2.323   0.226   3.655 -0.1572  0.7793 -0.3208
 4514TIP3    H135033   2.290   0.255   3.740 -3.4820  1.3376 -1.6330
 4514TIP3    H235034   2.352   0.306   3.612 -0.5660  0.8331 -0.5032
 4515TIP3   OH235035   1.297   4.397  11.128  0.0112  0.3050 -0.8934
 4515TIP3    H135036   1.393   4.394  11.126  0.0134 -2.3291 -0.3406
 4515TIP3    H235037   1.276   4.441  11.209  0.8359 -1.1775  0.1865
 4516TIP3   OH235038   5.538   6.533  12.609 -0.1326  0.4354  0.2952
 4516TIP3    H135039   5.513   6.565  12.696  2.0032 -1.7969  1.8555
 4516TIP3    H235040   5.623   6.574  12.592 -0.6518  1.0532 -0.8904
 4517TIP3   OH235041   2.263   3.513  12.007  0.0324 -0.1087 -0.6992
 4517TIP3    H135042   2.312   3.552  12.079 -2.7275  1.3780  0.5482
 4517TIP3    H235043   2.304   3.547  11.927  1.8463 -0.0993  0.1992
 4518TIP3   OH235044   3.383   0.489   1.681  0.0845 -0.1829  0.8014
 4518TIP3    H135045   3.464   0.519   1.640 -0.6995  0.7177 -0.1760
 4518TIP3    H235046   3.401   0.491   1.775  1.8630 -2.0909  0.5648
 4519TIP3   OH235047   4.896   4.967   5.061 -0.4424 -0.4768 -0.1647
 4519TIP3    H135048   4.846   4.886   5.069 -1.0001  0.0453  2.7751
 4519TIP3    H235049   4.983   4.946   5.097 -0.3562  0.0207 -0.0682
 4520TIP3   OH235050   5.453   5.953   0.821  0.6578  0.2132 -0.3259
 4520TIP3    H135051   5.470   5.896   0.746 -0.7068 -0.1754 -0.3641
 4520TIP3    H235052   5.420   6.035   0.783 -0.8579 -0.2881 -0.1414
 4521TIP3   OH235053   4.259   3.108  11.094 -0.0315 -0.7715  0.2544
 4521TIP3    H135054   4.186   3.154  11.135 -0.0053  0.2637 -0.8170
 4521TIP3    H235055   4.248   3.016  11.122 -1.6743 -0.6193  0.1867
 4522TIP3   OH235056   4.908   3.786  11.167  0.0188 -0.3584 -0.2328
 4522TIP3    H135057   4.924   3.726  11.094  3.4096  1.9726 -1.6565
 4522TIP3    H235058   4.912   3.873  11.128  0.9033  0.9758  2.5495
 4523TIP3   OH235059   6.308   1.250   2.991  0.0690 -1.0698  0.2082
 4523TIP3    H135060   6.366   1.175   3.003  0.4032 -0.9647 -0.6703
 4523TIP3    H235061   6.368   1.324   2.975 -0.2899 -1.1957 -2.0292
 4524TIP3   OH235062   2.618   3.798   2.897 -0.2775 -0.0729  0.4153
 4524TIP3    H135063   2.654   3.815   2.983  3.4204  2.1066 -1.3229
 4524TIP3    H235064   2.569   3.878   2.876 -1.0833 -0.5536  0.4233
 4525TIP3   OH235065   2.348   6.880  13.751 -0.4511  0.1206  0.0347
 4525TIP3    H135066   2.273   6.934  13.727 -1.1265 -1.0913 -0.6951
 4525TIP3    H235067   2.408   6.888  13.677  0.0215  0.8681  0.4930
 4526TIP3   OH235068   0.054   3.759  14.097  0.0693  0.2991 -0.2437
 4526TIP3    H135069  -0.011   3.701  14.057  0.7068 -1.0702  0.6153
 4526TIP3    H235070   0.013   3.785  14.180 -0.2574  1.1926 -0.6728
 4527TIP3   OH235071   6.247   4.794   0.456 -0.1932  0.3255  0.1087
 4527TIP3    H135072   6.325   4.839   0.423  1.1410  0.0617  2.5829
 4527TIP3    H235073   6.182   4.863   0.469  0.2867  0.8489 -0.2393
 4528TIP3   OH235074   5.777   4.718   9.519  0.1261  0.4368  0.8383
 4528TIP3    H135075   5.797   4.635   9.477 -0.3288  0.7302  0.0207
 4528TIP3    H235076   5.761   4.779   9.447 -0.1060  1.0923  1.4272
 4529TIP3   OH235077   6.858   0.435  15.660  0.0049  0.3111 -0.1079
 4529TIP3    H135078   6.885   0.484  15.737 -1.3867 -0.7690  1.1127
 4529TIP3    H235079   6.777   0.477  15.632  0.6730  0.9199 -1.2547
 4530TIP3   OH235080   5.194   6.411  11.059  0.6696 -0.2114  0.3560
 4530TIP3    H135081   5.216   6.479  11.122  2.0465 -0.1135 -0.1917
 4530TIP3    H235082   5.256   6.340  11.077  0.5770 -0.4962 -0.3837
 4531TIP3   OH235083   0.345   4.742  15.174  0.5485 -0.1984 -0.0905
 4531TIP3    H135084   0.318   4.699  15.256  0.4589  0.5016  0.2503
 4531TIP3    H235085   0.356   4.834  15.197 -0.2955  0.1663 -1.0571
 4532TIP3   OH235086   3.944   2.492   0.172  1.3505  0.1570 -0.8754
 4532TIP3    H135087   3.995   2.566   0.141  0.0987  1.0891 -0.7750
 4532TIP3    H235088   3.899   2.459   0.094 -1.0063  1.8725 -0.3461
 4533TIP3   OH235089   1.256   4.393  11.578  0.2314 -0.1857  0.0347
 4533TIP3    H135090   1.202   4.331  11.529  1.7363 -0.8317 -0.8624
 4533TIP3    H235091   1.295   4.449  11.510  0.1846  0.6829  0.7115
 4534TIP3   OH235092   2.076   6.972  13.679 -0.3592  0.1112  0.4842
 4534TIP3    H135093   2.003   7.033  13.688 -1.4796 -1.0917 -0.1735
 4534TIP3    H235094   2.056   6.922  13.601 -0.6226 -2.5712  2.1459
 4535TIP3   OH235095   5.255   0.580   3.853 -0.1693 -0.9167 -0.1547
 4535TIP3    H135096   5.255   0.577   3.758  0.4546  0.5566 -0.2167
 4535TIP3    H235097   5.228   0.669   3.875 -0.6744 -1.3455  1.0586
 4536TIP3   OH235098   1.960   6.890   6.182 -0.4588 -0.2694 -0.5164
 4536TIP3    H135099   1.908   6.837   6.242  0.2635 -0.9483 -0.4740
 4536TIP3    H235100   1.895   6.941   6.132 -1.0538  2.3202  2.5537
 4537TIP3   OH235101   3.869   4.045   2.176 -0.1481  0.0894 -0.7119
 4537TIP3    H135102   3.896   3.997   2.254 -1.6355  1.1153  0.4931
 4537TIP3    H235103   3.782   4.010   2.155 -0.6490  1.2686 -0.6512
 4538TIP3   OH235104   3.852   5.659  12.298 -0.4577 -0.4486 -0.3368
 4538TIP3    H135105   3.830   5.567  12.308  1.1880 -1.0185 -1.4967
 4538TIP3    H235106   3.909   5.662  12.221  2.1349  1.0342  1.4821
 4539TIP3   OH235107   5.760   6.213  15.572 -0.4360 -0.1877  0.3279
 4539TIP3    H135108   5.778   6.163  15.493 -1.3591 -0.6777  0.4245
 4539TIP3    H235109   5.820   6.177  15.638  1.3574  1.1546 -0.4630
 4540TIP3   OH235110   3.769   3.967   9.825 -0.1292 -0.2146  0.0447
 4540TIP3    H135111   3.858   3.941   9.849 -0.0758  0.1539  0.2596
 4540TIP3    H235112   3.760   4.055   9.861 -0.8305 -0.5217  0.6502
 4541TIP3   OH235113   0.833   0.342  14.007  0.3406 -0.6759 -0.6070
 4541TIP3    H135114   0.758   0.287  13.984 -0.1214 -0.7303  0.9522
 4541TIP3    H235115   0.873   0.362  13.922 -0.5965 -1.8081 -1.3689
 4542TIP3   OH235116   0.663   2.420   2.450 -0.6878 -0.3304 -0.2858
 4542TIP3    H135117   0.697   2.331   2.451  2.1356  0.6583 -0.4275
 4542TIP3    H235118   0.594   2.420   2.516  0.0158 -2.3322  0.5305
 4543TIP3   OH235119   3.387   2.614  13.311  0.3258 -0.0824  0.0357
 4543TIP3    H135120   3.306   2.609  13.260  0.1281 -1.1850  0.4302
 4543TIP3    H235121   3.402   2.524  13.340  0.7058  0.4279  1.4983
 4544TIP3   OH235122   6.520   1.172  11.775 -1.0945 -0.2472  0.1168
 4544TIP3    H135123   6.492   1.192  11.685  0.9944  1.8211 -0.1938
 4544TIP3    H235124   6.478   1.239  11.829  0.6320  0.9645  0.0576
 4545TIP3   OH235125   4.995   3.692  15.508  0.2085  0.2638 -0.2078
 4545TIP3    H135126   4.960   3.747  15.438  0.5827 -1.6776 -2.0288
 4545TIP3    H235127   4.933   3.619  15.514  1.0704 -0.4363  0.3155
 4546TIP3   OH235128   4.150   3.794  13.081  0.2435  0.5612 -0.2179
 4546TIP3    H135129   4.208   3.746  13.022 -0.9145 -0.4796 -0.5661
 4546TIP3    H235130   4.209   3.840  13.140  1.4487 -1.0370 -0.0870
 4547TIP3   OH235131   4.502   5.130  12.426  0.2160 -0.2436  0.2655
 4547TIP3    H135132   4.481   5.090  12.341 -3.1152 -0.6237  1.1163
 4547TIP3    H235133   4.580   5.085  12.455 -0.3383 -2.3421 -1.2416
 4548TIP3   OH235134   5.299   4.967   3.403  0.4691 -0.3571  0.4196
 4548TIP3    H135135   5.319   4.878   3.432  1.5798  0.5521  2.6999
 4548TIP3    H235136   5.373   4.992   3.348 -1.2375 -1.7778 -2.8381
 4549TIP3   OH235137   4.418   1.942  12.668  0.3877 -0.3504  0.2196
 4549TIP3    H135138   4.335   1.983  12.645  1.1401  1.3391  0.3602
 4549TIP3    H235139   4.470   1.945  12.587  1.1056  0.6899  0.6949
 4550TIP3   OH235140   0.723   2.857  13.507 -0.2996 -0.1680 -0.2046
 4550TIP3    H135141   0.793   2.898  13.457  0.2779 -0.7562  0.1213
 4550TIP3    H235142   0.708   2.773  13.464 -1.5638  0.3885 -0.9445
 4551TIP3   OH235143   3.634   4.531  13.892 -0.1382 -0.8161 -0.2129
 4551TIP3    H135144   3.632   4.610  13.839 -1.0436 -0.1314  0.7908
 4551TIP3    H235145   3.631   4.562  13.982  0.0312 -1.9859  0.2219
 4552TIP3   OH235146   2.599   6.111  12.855 -0.1163  0.2178 -0.2100
 4552TIP3    H135147   2.599   6.051  12.780  0.0272  0.1444 -0.1527
 4552TIP3    H235148   2.638   6.192  12.821 -2.5715  1.1601 -0.9614
 4553TIP3   OH235149   0.564   1.468   2.323  0.2548 -0.0138 -0.2876
 4553TIP3    H135150   0.580   1.375   2.337  1.8393  0.4732  1.4622
 4553TIP3    H235151   0.625   1.493   2.254  0.5264 -0.0750 -0.0719
 4554TIP3   OH235152   3.408   1.752  10.561  0.1544  0.2066  0.3964
 4554TIP3    H135153   3.336   1.693  10.581  1.1457 -0.9757  0.5310
 4554TIP3    H235154   3.429   1.793  10.644  0.1697 -0.0429  0.5158
 4555TIP3   OH235155   1.634   6.515   0.301  0.8145 -0.0572  0.2970
 4555TIP3    H135156   1.566   6.577   0.274  1.1593  0.7226  1.1661
 4555TIP3    H235157   1.587   6.447   0.348  0.3751 -0.7225 -1.0502
 4556TIP3   OH235158   2.664   0.661  14.402  0.0377  0.0444 -0.3904
 4556TIP3    H135159   2.608   0.738  14.391  0.3244  0.3684  0.3379
 4556TIP3    H235160   2.713   0.679  14.482 -2.1985 -2.3030  1.6742
 4557TIP3   OH235161   0.453   3.464   3.204  0.4911 -0.1736 -0.3227
 4557TIP3    H135162   0.385   3.471   3.137 -0.5269 -1.6665  0.5049
 4557TIP3    H235163   0.441   3.541   3.259 -1.7427 -1.2543  0.8484
 4558TIP3   OH235164   2.681   1.832   2.665 -0.0202  0.1520 -0.1412
 4558TIP3    H135165   2.669   1.926   2.677 -0.7184 -0.0361  0.8307
 4558TIP3    H235166   2.597   1.794   2.692  0.3651 -0.7672 -0.2107
 4559TIP3   OH235167   2.752   5.816  12.257 -0.3004 -0.2353 -0.3702
 4559TIP3    H135168   2.765   5.910  12.268  0.7101 -0.4378  0.2392
 4559TIP3    H235169   2.785   5.797  12.169 -2.6317  0.3345 -1.4505
 4560TIP3   OH235170   2.020   6.341  13.016 -0.4144  0.4280  0.0570
 4560TIP3    H135171   2.080   6.404  13.056 -0.8898  0.7304  0.3173
 4560TIP3    H235172   1.944   6.394  12.992 -0.2164  0.2130 -1.0830
 4561TIP3   OH235173   3.816   6.952  12.763  0.0895  0.5000  0.0469
 4561TIP3    H135174   3.814   6.928  12.855  0.9300 -0.1622 -0.0919
 4561TIP3    H235175   3.906   6.933  12.735 -0.8996 -2.4352 -1.6749
 4562TIP3   OH235176   5.789   7.075   1.099  0.1921 -0.2511 -0.4637
 4562TIP3    H135177   5.725   7.026   1.048  0.7478 -1.2192 -0.2733
 4562TIP3    H235178   5.873   7.055   1.058  0.7352 -1.6228  1.2044
 4563TIP3   OH235179   3.625   4.101  14.496  0.0333  0.2831 -0.0591
 4563TIP3    H135180   3.541   4.103  14.449 -0.4977  0.8441  0.8678
 4563TIP3    H235181   3.691   4.093  14.427 -0.8491 -2.5776 -0.6985
 4564TIP3   OH235182   0.906   4.115   0.048 -0.1696  0.2202  0.2851
 4564TIP3    H135183   0.904   4.209   0.031 -1.4402  0.3842  1.2038
 4564TIP3    H235184   0.983   4.103   0.105  0.4856  0.5603 -0.5105
 4565TIP3   OH235185   3.720   6.630  10.196  0.3116  0.4493 -0.1473
 4565TIP3    H135186   3.632   6.656  10.223  0.5086  0.9452  0.0303
 4565TIP3    H235187   3.736   6.547  10.241  0.8068  1.4730  1.6466
 4566TIP3   OH235188   4.992   2.816   1.264  0.0139 -0.1812  0.3629
 4566TIP3    H135189   5.034   2.798   1.180 -0.2367  0.3957  0.1075
 4566TIP3    H235190   5.043   2.766   1.327  1.5331  1.0252  0.1616
 4567TIP3   OH235191   4.007   6.373  11.626  0.2217 -0.0081 -0.0333
 4567TIP3    H135192   3.915   6.400  11.618  0.4034  0.1186 -2.0306
 4567TIP3    H235193   4.043   6.435  11.690 -1.0008  0.1164  0.5786
 4568TIP3   OH235194   2.879   0.406  12.047 -0.6748  0.0922 -0.6587
 4568TIP3    H135195   2.919   0.430  11.964 -1.2988 -2.3574 -1.7406
 4568TIP3    H235196   2.802   0.354  12.024 -1.9047  0.8332  1.4369
 4569TIP3   OH235197   1.952   5.893  13.608 -0.1947  0.0718 -0.1507
 4569TIP3    H135198   1.913   5.926  13.689 -3.4258 -0.5420 -1.3291
 4569TIP3    H235199   2.014   5.826  13.637 -1.3453 -0.2148  1.8370
 4570TIP3   OH235200   5.304   0.851  13.805 -0.3890  0.0437 -0.0261
 4570TIP3    H135201   5.315   0.756  13.806 -1.6560 -0.1140  0.2976
 4570TIP3    H235202   5.363   0.881  13.736  0.6795 -0.8772  0.4517
 4571TIP3   OH235203   4.348   5.241  13.943 -0.2086 -0.0227  0.3244
 4571TIP3    H135204   4.283   5.201  13.886  2.8472 -0.8172 -2.9041
 4571TIP3    H235205   4.351   5.184  14.020 -0.2115 -2.5957 -1.4755
 4572TIP3   OH235206   0.338   3.166   3.212  0.2067  0.3456 -0.0854
 4572TIP3    H135207   0.250   3.136   3.189 -0.2557 -0.1750  2.1264
 4572TIP3    H235208   0.341   3.257   3.183  0.3369 -0.6048 -3.5704
 4573TIP3   OH235209   1.122   1.271  15.538 -0.5875 -0.2987 -0.6016
 4573TIP3    H135210   1.216   1.287  15.548 -0.3395 -1.8037 -0.3663
 4573TIP3    H235211   1.104   1.199  15.598 -1.7625 -0.5053 -1.1847
 4574TIP3   OH235212   1.098   5.605   2.289 -0.4098 -0.0383  0.2606
 4574TIP3    H135213   1.057   5.567   2.367 -0.2738  1.0779  0.8958
 4574TIP3    H235214   1.191   5.584   2.298 -0.2507  0.8814  0.8918
 4575TIP3   OH235215   6.433   1.650   1.551 -0.0675  0.2159  0.0706
 4575TIP3    H135216   6.455   1.578   1.609  1.3085  1.0074  0.5781
 4575TIP3    H235217   6.371   1.703   1.601  0.4740  0.4510  0.5005
 4576TIP3   OH235218   4.300   4.185  13.942  0.0469 -0.6389  0.2971
 4576TIP3    H135219   4.245   4.152  14.013  1.1289 -2.0847  0.5097
 4576TIP3    H235220   4.276   4.132  13.866 -0.2606  0.0939 -0.1269
 4577TIP3   OH235221   1.502   2.216  11.517 -0.3954  1.0242 -0.5788
 4577TIP3    H135222   1.507   2.140  11.459  0.2582  0.9124 -0.3919
 4577TIP3    H235223   1.548   2.187  11.596  0.1512  1.7316 -0.6340
 4578TIP3   OH235224   1.439   6.079   5.142  0.4681  0.9135  0.1255
 4578TIP3    H135225   1.522   6.070   5.189  0.8141 -0.1726 -0.6561
 4578TIP3    H235226   1.462   6.068   5.050 -0.6182  0.0033 -0.0613
 4579TIP3   OH235227   5.185   3.673  11.837  0.3985 -0.0905 -0.0032
 4579TIP3    H135228   5.160   3.718  11.757 -0.2409  0.5159  0.5346
 4579TIP3    H235229   5.163   3.733  11.907 -2.4584 -1.9767  0.9078
 4580TIP3   OH235230   1.595   1.137  10.431 -0.1878  0.1921  0.0401
 4580TIP3    H135231   1.690   1.141  10.424 -0.0393 -1.8306  0.2858
 4580TIP3    H235232   1.575   1.044  10.440 -2.3894  0.2294 -2.8193
 4581TIP3   OH235233   2.184   0.855  10.807  0.0383 -0.1125  0.0478
 4581TIP3    H135234   2.155   0.917  10.739 -0.6138 -0.3551  0.0931
 4581TIP3    H235235   2.279   0.860  10.805  0.0312 -0.0928 -0.8771
 4582TIP3   OH235236   1.376   1.458  11.460 -0.6666 -0.0988  0.0636
 4582TIP3    H135237   1.453   1.439  11.513  0.1501  1.7252 -0.4037
 4582TIP3    H235238   1.411   1.486  11.375 -1.8174  0.8872 -0.1111
 4583TIP3   OH235239   5.745   6.604  14.479 -0.3474 -0.5662  0.3443
 4583TIP3    H135240   5.689   6.551  14.535 -0.3108 -0.9861 -0.0163
 4583TIP3    H235241   5.796   6.658  14.539  0.6841 -1.9767  0.7890
 4584TIP3   OH235242   2.356   2.552  13.083 -0.5547  0.0833  0.1495
 4584TIP3    H135243   2.362   2.606  13.161 -1.6436  0.9591 -0.3414
 4584TIP3    H235244   2.393   2.607  13.013 -3.2120  0.9600 -0.6811
 4585TIP3   OH235245   0.181   2.453  13.718 -0.1492  0.5424 -0.1670
 4585TIP3    H135246   0.165   2.465  13.625  0.6050 -2.4251 -0.7728
 4585TIP3    H235247   0.110   2.395  13.747  0.4438  0.2582  0.7516
 4586TIP3   OH235248   5.976   0.610   2.226  0.1575  0.1098 -0.1548
 4586TIP3    H135249   5.938   0.608   2.139 -0.0585 -0.6132 -0.0460
 4586TIP3    H235250   6.055   0.556   2.219  1.1997  1.5625 -0.3754
 4587TIP3   OH235251   5.189   2.748   1.474 -0.7021 -0.4266  0.4002
 4587TIP3    H135252   5.209   2.661   1.439 -1.2928 -0.4479  0.1090
 4587TIP3    H235253   5.215   2.808   1.404  1.1855 -0.2464  1.1978
 4588TIP3   OH235254   6.965   1.519  12.970  0.1358 -0.2452 -0.0894
 4588TIP3    H135255   7.024   1.465  13.022 -0.0914  0.1469  0.5932
 4588TIP3    H235256   6.891   1.537  13.028  0.4596  1.2518 -0.0938
 4589TIP3   OH235257   1.130   6.586  12.222 -0.2468 -0.9716 -0.2257
 4589TIP3    H135258   1.120   6.681  12.230 -0.8952 -0.9898 -0.7316
 4589TIP3    H235259   1.153   6.571  12.131  0.8462 -1.2379  0.0750
 4590TIP3   OH235260   4.059   3.716  11.335  0.3728 -0.9357 -0.2820
 4590TIP3    H135261   4.144   3.718  11.290  0.7111 -1.8038  0.3006
 4590TIP3    H235262   4.080   3.690  11.424 -0.4317 -0.3941  0.0766
 4591TIP3   OH235263   1.367   3.239  10.316 -0.2629  0.0510 -0.6719
 4591TIP3    H135264   1.348   3.329  10.342 -0.6532 -0.3331  0.4399
 4591TIP3    H235265   1.408   3.247  10.230  0.4600  1.3437 -0.2306
 4592TIP3   OH235266   5.301   0.823   4.743 -0.4543 -0.5410  0.1626
 4592TIP3    H135267   5.217   0.835   4.787  0.0182 -1.4886  1.3427
 4592TIP3    H235268   5.342   0.910   4.746 -1.5094  0.0319 -0.7628
 4593TIP3   OH235269   2.844   0.473   0.301  0.4057 -0.5890 -0.0893
 4593TIP3    H135270   2.800   0.483   0.386  0.9571  2.3627 -0.0253
 4593TIP3    H235271   2.910   0.406   0.316  0.3255 -0.3169  1.7654
 4594TIP3   OH235272   3.598   0.585   1.528  0.4313  0.0845 -0.3593
 4594TIP3    H135273   3.649   0.666   1.524  0.5796 -0.0191 -0.5289
 4594TIP3    H235274   3.652   0.519   1.486  0.4339 -0.1703  0.0332
 4595TIP3   OH235275   6.836   1.982   0.532  0.0123 -0.2727 -0.2273
 4595TIP3    H135276   6.862   1.905   0.581 -0.8083 -1.0692 -0.9939
 4595TIP3    H235277   6.777   1.949   0.464  0.7328  0.8428 -1.4581
 4596TIP3   OH235278   1.494   2.665  11.271  0.2868  0.0896 -0.6408
 4596TIP3    H135279   1.545   2.663  11.190 -0.7123 -1.0448 -1.2777
 4596TIP3    H235280   1.517   2.584  11.317  0.0002  0.1785 -0.3314
 4597TIP3   OH235281   6.957   5.716  14.568 -0.7006  0.2335  0.3103
 4597TIP3    H135282   7.036   5.757  14.532  0.1849 -0.7164  1.0877
 4597TIP3    H235283   6.887   5.741  14.508  0.2562  0.8184 -0.5973
 4598TIP3   OH235284   3.424   0.397  14.322  0.3540  0.0121 -0.3834
 4598TIP3    H135285   3.337   0.359  14.337  0.7369 -1.1089 -0.8739
 4598TIP3    H235286   3.406   0.483  14.284 -0.5432  0.5830  1.2137
 4599TIP3   OH235287   5.137   4.188   3.760  0.2830  0.2203 -0.2512
 4599TIP3    H135288   5.098   4.268   3.726  1.1022  1.2818  1.1906
 4599TIP3    H235289   5.152   4.134   3.683 -1.4660  0.8945 -1.1212
 4600TIP3   OH235290   5.190   1.140  11.973 -0.9327 -0.0316 -0.2970
 4600TIP3    H135291   5.251   1.186  11.915 -0.6563 -0.7063 -0.5510
 4600TIP3    H235292   5.119   1.203  11.987 -0.7567  0.3266 -0.9620
 4601TIP3   OH235293   0.629   0.830   3.713 -0.0632  0.4590 -0.0475
 4601TIP3    H135294   0.630   0.889   3.638  0.0302 -1.3867 -1.5894
 4601TIP3    H235295   0.540   0.792   3.712  0.4601 -0.8205 -0.2933
 4602TIP3   OH235296   1.841   7.098  13.657 -0.0149  0.0002  0.2287
 4602TIP3    H135297   1.771   7.042  13.623 -0.2465  1.5956 -2.1486
 4602TIP3    H235298   1.802   7.143  13.732 -1.1402 -0.0637 -0.2934
 4603TIP3   OH235299   0.459   2.619  14.256 -0.3766 -0.1415  0.0769
 4603TIP3    H135300   0.487   2.634  14.166 -1.1690 -0.8064 -0.2921
 4603TIP3    H235301   0.467   2.524  14.269 -1.1259 -0.1663  0.4063
 4604TIP3   OH235302   4.317   6.724  12.184  0.0930 -0.6323  0.5999
 4604TIP3    H135303   4.305   6.630  12.180 -0.2593 -0.5531 -0.8875
 4604TIP3    H235304   4.230   6.761  12.167  0.1487 -0.0291  1.5353
 4605TIP3   OH235305   1.154   0.796  12.255 -0.4064  0.7028  0.4958
 4605TIP3    H135306   1.189   0.882  12.279  2.4310  0.3619 -1.9194
 4605TIP3    H235307   1.229   0.748  12.220 -2.6560 -1.4075 -1.8104
 4606TIP3   OH235308   3.163   2.267  10.787 -0.9296 -0.0918  0.7568
 4606TIP3    H135309   3.092   2.204  10.799  0.0811 -1.1824  1.1306
 4606TIP3    H235310   3.186   2.261  10.695  0.1145 -1.3323  1.0781
 4607TIP3   OH235311   6.837   3.718   3.310  0.1720 -0.2696 -0.5678
 4607TIP3    H135312   6.877   3.755   3.231  0.4387  1.8881  0.5087
 4607TIP3    H235313   6.910   3.675   3.356  0.3595 -0.0803 -0.6858
 4608TIP3   OH235314   4.173   0.419  14.862  0.1291  0.0315 -0.2058
 4608TIP3    H135315   4.161   0.512  14.843  0.5924  0.0914 -0.2132
 4608TIP3    H235316   4.232   0.388  14.794  1.9351  0.2814  1.1724
 4609TIP3   OH235317   6.368   0.743  11.972  0.3742 -0.2505  0.1285
 4609TIP3    H135318   6.330   0.823  11.936  1.8374  1.5185  2.2537
 4609TIP3    H235319   6.449   0.731  11.921  1.8475  1.5980  1.8442
 4610TIP3   OH235320   3.157   6.339   3.507 -0.2433 -0.1635  0.7240
 4610TIP3    H135321   3.074   6.356   3.462  0.5219  3.0737  0.2640
 4610TIP3    H235322   3.139   6.359   3.599 -0.1895 -0.3145  0.7674
 4611TIP3   OH235323   1.926   6.371   2.342 -0.0432  0.3108  0.1215
 4611TIP3    H135324   1.836   6.342   2.337 -0.0485  0.2728  0.4606
 4611TIP3    H235325   1.970   6.307   2.398  0.1173  0.5168  0.2336
 4612TIP3   OH235326   6.620   2.202  14.120  1.0884  0.1029  0.1921
 4612TIP3    H135327   6.665   2.144  14.182  0.6187 -1.2217 -0.6665
 4612TIP3    H235328   6.545   2.151  14.090  0.4565  1.3096 -0.3244
 4613TIP3   OH235329   5.390   1.888  10.782 -0.3377 -0.1205  0.6280
 4613TIP3    H135330   5.320   1.925  10.836 -0.9678 -0.6443  0.1839
 4613TIP3    H235331   5.344   1.835  10.717  0.5041 -1.0294  0.7565
 4614TIP3   OH235332   5.464   0.879   1.113  0.2408 -0.5127 -0.1031
 4614TIP3    H135333   5.531   0.920   1.057 -0.4105 -1.1190 -1.3550
 4614TIP3    H235334   5.486   0.786   1.113 -1.0821 -0.8475 -1.2360
 4615TIP3   OH235335   7.150   0.328  13.353  0.2584  0.1035 -0.1154
 4615TIP3    H135336   7.130   0.314  13.446 -0.7640 -1.5477 -0.5320
 4615TIP3    H235337   7.209   0.403  13.352  2.5142 -1.4495  2.1102
 4616TIP3   OH235338   3.175   5.854  10.373 -0.2768 -0.5353  0.1459
 4616TIP3    H135339   3.211   5.942  10.367  0.5711 -0.7605  1.4506
 4616TIP3    H235340   3.126   5.842  10.291  0.8508  0.5735 -0.7291
 4617TIP3   OH235341   0.840   3.538  12.074  0.3080 -0.4514 -0.4637
 4617TIP3    H135342   0.815   3.585  12.153  0.7518  0.8093 -1.0527
 4617TIP3    H235343   0.933   3.558  12.062  0.6033 -1.7677 -0.5417
 4618TIP3   OH235344   6.711   0.585  13.493 -0.9119  0.1030  0.4861
 4618TIP3    H135345   6.621   0.552  13.502 -0.9391  0.1679  0.4544
 4618TIP3    H235346   6.766   0.507  13.495 -1.0716 -0.0787 -1.0676
 4619TIP3   OH235347   0.751   1.820  11.083  0.5823 -0.3707  0.0825
 4619TIP3    H135348   0.784   1.821  11.173 -1.2507  2.5784  0.8496
 4619TIP3    H235349   0.820   1.861  11.031 -0.1097  2.1002  0.9966
 4620TIP3   OH235350   6.850   4.956   9.995  0.7551  0.9021  0.8053
 4620TIP3    H135351   6.890   5.022  10.052  0.4488  3.4331 -1.7034
 4620TIP3    H235352   6.924   4.917   9.948  0.8212  0.3267  1.3661
 4621TIP3   OH235353   5.895   1.255  10.680 -0.2590  0.1881  0.3724
 4621TIP3    H135354   5.962   1.254  10.748 -0.7539 -1.0010  0.8711
 4621TIP3    H235355   5.817   1.220  10.723 -0.6722 -0.2605 -0.7093
 4622TIP3   OH235356   5.068   0.165  13.725 -0.2854 -0.9475  0.1538
 4622TIP3    H135357   5.106   0.147  13.639 -0.7957  0.0782 -0.3071
 4622TIP3    H235358   5.066   0.080  13.769 -2.4247 -2.0296 -1.8239
 4623TIP3   OH235359   5.582   6.593  11.486  0.4256 -0.1228 -0.1169
 4623TIP3    H135360   5.552   6.649  11.414  1.3225  0.7131  0.1317
 4623TIP3    H235361   5.507   6.585  11.543  0.5336  1.6604  0.3302
 4624TIP3   OH235362   4.406   0.316  13.379  0.7164 -0.3835 -0.2871
 4624TIP3    H135363   4.434   0.298  13.289  1.1371 -0.5370 -0.1274
 4624TIP3    H235364   4.475   0.371  13.416  0.0554  0.5236 -0.3703
 4625TIP3   OH235365   4.653   3.019   2.441  0.4292 -0.6676  0.6301
 4625TIP3    H135366   4.584   3.085   2.451  0.3080  0.2793 -4.1136
 4625TIP3    H235367   4.608   2.935   2.454 -0.3716 -0.0118  2.4943
 4626TIP3   OH235368   6.173   4.527  13.402  0.2118 -0.2051 -0.2833
 4626TIP3    H135369   6.169   4.586  13.476  0.3183  1.0438 -1.2441
 4626TIP3    H235370   6.232   4.570  13.340 -0.1773 -1.0236 -1.2567
 4627TIP3   OH235371   3.706   1.175  12.830 -0.1469  0.1737  0.5093
 4627TIP3    H135372   3.670   1.251  12.784 -0.3229 -0.4689 -0.4439
 4627TIP3    H235373   3.662   1.176  12.915  0.7338  1.8058  0.9846
 4628TIP3   OH235374   2.335   3.953  14.435  0.1861  0.4080 -0.0086
 4628TIP3    H135375   2.313   4.020  14.371  0.3773  0.7411  0.2719
 4628TIP3    H235376   2.396   3.995  14.495  0.4170 -0.0577  0.0939
 4629TIP3   OH235377   1.143   2.074   1.934 -0.0889 -0.1739  0.0390
 4629TIP3    H135378   1.116   2.164   1.915  0.9306  0.0552 -0.3587
 4629TIP3    H235379   1.118   2.024   1.856  0.4722  0.0050 -0.2577
 4630TIP3   OH235380   1.227   1.205   4.354 -0.0301 -0.5362 -0.1125
 4630TIP3    H135381   1.217   1.203   4.259 -1.6240 -0.8820  0.0298
 4630TIP3    H235382   1.143   1.175   4.388 -0.3619  1.8360  1.4512
 4631TIP3   OH235383   4.804   3.372  13.211  0.1186 -0.2276  0.0600
 4631TIP3    H135384   4.724   3.369  13.158  0.6038 -0.4502 -0.6721
 4631TIP3    H235385   4.874   3.385  13.147  0.6535  0.1229  0.7130
 4632TIP3   OH235386   6.542   2.940  14.742  0.1613  0.2034  0.3134
 4632TIP3    H135387   6.604   2.957  14.671  1.4888 -3.6390  0.3087
 4632TIP3    H235388   6.471   2.892  14.702 -0.2831  0.1094  1.1816
 4633TIP3   OH235389   1.363   0.203  13.715  0.2299  0.0022  0.4632
 4633TIP3    H135390   1.355   0.234  13.805  1.2293  1.8213 -0.0065
 4633TIP3    H235391   1.456   0.183  13.705  0.6445  2.1848 -0.7940
 4634TIP3   OH235392   6.841   6.200   0.048 -0.3405  0.4861 -0.1677
 4634TIP3    H135393   6.839   6.114   0.091  1.1661  0.3654 -0.3092
 4634TIP3    H235394   6.762   6.244   0.081  0.0659 -0.0928  1.7261
 4635TIP3   OH235395   0.431   1.887  12.271  0.1190 -0.1063  0.3480
 4635TIP3    H135396   0.405   1.835  12.347  1.1851 -0.1916  0.6739
 4635TIP3    H235397   0.518   1.922  12.294  0.0735  0.5867 -0.4726
 4636TIP3   OH235398   0.246   1.590  12.408  0.0469 -0.0754  0.5306
 4636TIP3    H135399   0.185   1.648  12.453 -1.7379 -0.0077 -1.7516
 4636TIP3    H235400   0.237   1.614  12.315 -0.6053 -3.7983 -0.5151
 4637TIP3   OH235401   6.325   0.838  12.222  0.5112 -0.3811 -0.7158
 4637TIP3    H135402   6.257   0.783  12.262  0.9897 -0.0693  0.5529
 4637TIP3    H235403   6.334   0.804  12.133 -1.5810 -0.1835 -1.0523
 4638TIP3   OH235404   2.320   3.565  10.026 -0.5487  0.3918  0.1453
 4638TIP3    H135405   2.362   3.482  10.004 -0.4828 -0.1128  2.0330
 4638TIP3    H235406   2.238   3.540  10.068 -0.5097  1.2833  0.7810
 4639TIP3   OH235407   5.072   7.107  15.409 -0.3116 -0.5175  0.2070
 4639TIP3    H135408   5.004   7.171  15.431 -0.3972 -0.6460  0.3201
 4639TIP3    H235409   5.023   7.031  15.378 -0.1732  0.0209 -1.4198
 4640TIP3   OH235410   0.080   0.272  10.697 -0.6216  0.2653  0.5034
 4640TIP3    H135411   0.118   0.267  10.609 -1.4653  1.2845  0.0587
 4640TIP3    H235412   0.089   0.364  10.722 -0.2644 -0.0482  1.5465
 4641TIP3   OH235413   1.571   6.424   2.629 -0.1830  0.6674 -0.4585
 4641TIP3    H135414   1.605   6.339   2.658 -0.7484  0.5743 -0.0509
 4641TIP3    H235415   1.524   6.406   2.548 -0.0975  0.6352 -0.5014
 4642TIP3   OH235416   6.961   5.499  15.236  0.4300  0.2147  0.2341
 4642TIP3    H135417   6.940   5.423  15.183  0.8072  1.0695 -1.1859
 4642TIP3    H235418   6.891   5.562  15.217  0.1672  0.2699  1.3219
 4643TIP3   OH235419   3.816   3.432  15.448 -0.0752  0.3171 -0.6408
 4643TIP3    H135420   3.906   3.462  15.457  0.0528 -0.6152  1.8855
 4643TIP3    H235421   3.823   3.341  15.419 -0.1712  0.0675  0.1073
 4644TIP3   OH235422   6.791   7.001  11.914  1.0187 -0.3763  0.0064
 4644TIP3    H135423   6.776   6.913  11.948 -0.4258 -0.2997 -0.3895
 4644TIP3    H235424   6.783   7.058  11.991  0.9288 -0.4948  0.0855
 4645TIP3   OH235425   1.064   0.401   2.464 -0.0178  0.3708  0.2396
 4645TIP3    H135426   1.004   0.371   2.532  0.4428  1.4821  1.1618
 4645TIP3    H235427   1.030   0.487   2.438 -0.2682 -0.0918 -1.0580
 4646TIP3   OH235428   1.338   5.762   1.029  0.0541 -0.1331  0.0070
 4646TIP3    H135429   1.264   5.818   1.052 -0.1181 -0.1805 -0.4178
 4646TIP3    H235430   1.359   5.785   0.939 -1.2244 -2.0269 -0.8489
 4647TIP3   OH235431   2.718   3.201   3.721 -0.3661  0.0301  0.3734
 4647TIP3    H135432   2.781   3.198   3.793 -0.7167 -0.0750  0.6786
 4647TIP3    H235433   2.634   3.213   3.764 -0.6126 -0.3397 -0.0013
 4648TIP3   OH235434   0.868   6.442  10.599  0.0377 -0.4827  0.0292
 4648TIP3    H135435   0.793   6.424  10.543 -1.0726  2.4783  0.3914
 4648TIP3    H235436   0.848   6.395  10.680 -0.7174 -0.8887 -0.3788
 4649TIP3   OH235437   6.080   4.534   4.615 -0.0073  0.1871 -0.3249
 4649TIP3    H135438   6.059   4.596   4.545 -1.7684  1.6616  1.4109
 4649TIP3    H235439   6.156   4.572   4.659  1.1430 -0.7751 -1.3877
 4650TIP3   OH235440   6.515   1.859   2.191 -0.7341 -0.3190 -0.1775
 4650TIP3    H135441   6.454   1.928   2.164  0.3246  0.8035  0.1932
 4650TIP3    H235442   6.591   1.870   2.133 -0.3943 -0.9193  0.1459
 4651TIP3   OH235443   5.819   4.309  15.246  0.4829  0.6155  0.0014
 4651TIP3    H135444   5.743   4.291  15.301  0.0322  1.8282 -0.1814
 4651TIP3    H235445   5.783   4.322  15.158  0.9886  0.4161 -0.2354
 4652TIP3   OH235446   6.609   6.220  12.686  0.0830  0.1526 -0.2184
 4652TIP3    H135447   6.675   6.208  12.755 -0.2848  1.6740  0.4245
 4652TIP3    H235448   6.525   6.209  12.730 -0.1326  0.0355 -0.6539
 4653TIP3   OH235449   4.667   1.428  10.778 -0.5384  0.4117  0.0503
 4653TIP3    H135450   4.735   1.379  10.733 -1.3167  0.0455 -0.7431
 4653TIP3    H235451   4.613   1.466  10.708  0.3241  2.8472  0.6039
 4654TIP3   OH235452   1.003   6.262  12.058 -0.5840 -0.7236  0.2141
 4654TIP3    H135453   1.057   6.318  12.002  0.3481 -2.3947 -0.6129
 4654TIP3    H235454   0.933   6.320  12.089 -0.4086  0.5606 -1.6607
 4655TIP3   OH235455   3.453   5.518   3.703  0.3628  0.5854 -1.0255
 4655TIP3    H135456   3.427   5.460   3.774  0.4495 -0.0612 -1.5139
 4655TIP3    H235457   3.536   5.556   3.733  0.4358  0.2643 -0.8089
 4656TIP3   OH235458   2.114   1.553  14.687  1.0090 -0.5577  0.8334
 4656TIP3    H135459   2.135   1.461  14.705 -1.4562 -1.1254  1.1813
 4656TIP3    H235460   2.066   1.551  14.604  2.4655  0.6693 -0.0783
 4657TIP3   OH235461   4.296   3.015  10.840 -0.2688 -0.0071  0.2619
 4657TIP3    H135462   4.294   3.033  10.934  0.9805  0.5767  0.2040
 4657TIP3    H235463   4.338   3.092  10.802  1.1500 -1.1021 -0.5121
 4658TIP3   OH235464   2.986   3.796  14.100 -0.7179  0.3768 -0.0119
 4658TIP3    H135465   3.020   3.732  14.037  0.0544  0.3825  0.3952
 4658TIP3    H235466   2.943   3.862  14.045 -0.0796  0.3673 -0.5347
 4659TIP3   OH235467   3.116   4.983  14.755  0.7629  0.3569  0.0073
 4659TIP3    H135468   3.135   5.075  14.769  0.7476  0.1606  1.5184
 4659TIP3    H235469   3.132   4.968  14.662  0.3260  1.9723 -0.3440
 4660TIP3   OH235470   4.246   1.750   3.029  0.0195  0.2796  0.0113
 4660TIP3    H135471   4.323   1.700   3.004 -1.1410 -1.9223  0.5992
 4660TIP3    H235472   4.172   1.691   3.012 -1.4451  1.7945  0.7673
 4661TIP3   OH235473   3.549   1.983  13.982  0.3544  0.0921  0.1255
 4661TIP3    H135474   3.492   2.057  13.962  1.2331  0.2480 -2.0793
 4661TIP3    H235475   3.517   1.913  13.926 -0.6819 -1.4084  2.4259
 4662TIP3   OH235476   2.055   4.074   0.607 -0.2167 -0.3258 -0.2578
 4662TIP3    H135477   2.009   4.157   0.592  0.0154 -0.4517 -1.8294
 4662TIP3    H235478   2.139   4.085   0.562  0.5718 -0.7751  1.0257
 4663TIP3   OH235479   6.594   3.657  11.041  0.2155  0.4053 -0.5359
 4663TIP3    H135480   6.588   3.589  10.975 -0.7588 -1.4662  1.3723
 4663TIP3    H235481   6.657   3.623  11.105  1.5759  2.4156 -0.7015
 4664TIP3   OH235482   6.111   4.094   1.994 -0.0559  0.1696 -0.0677
 4664TIP3    H135483   6.086   4.071   1.904 -1.5294  1.8931 -0.1436
 4664TIP3    H235484   6.204   4.116   1.987  0.0569 -0.5091 -0.9911
 4665TIP3   OH235485   4.393   0.130  14.891 -0.3991  0.1323 -0.4859
 4665TIP3    H135486   4.332   0.150  14.962  1.7843  0.3354  1.4720
 4665TIP3    H235487   4.389   0.206  14.833 -0.2213  1.3114  0.9719
 4666TIP3   OH235488   5.308   3.754   9.792 -0.2619  0.7702 -0.2434
 4666TIP3    H135489   5.265   3.805   9.724  1.2385  2.9590  0.3494
 4666TIP3    H235490   5.400   3.753   9.767 -0.0778 -0.6195  0.4269
 4667TIP3   OH235491   3.963   5.395  14.214  0.0787  0.0088  0.4435
 4667TIP3    H135492   3.911   5.322  14.246  0.1585  0.7652  2.4539
 4667TIP3    H235493   4.035   5.403  14.276  1.3142  0.4486 -0.9746
 4668TIP3   OH235494   5.588   4.670  11.077 -0.1787 -0.0326 -0.3586
 4668TIP3    H135495   5.523   4.622  11.026 -1.9963  0.7209  1.1443
 4668TIP3    H235496   5.672   4.630  11.053 -1.2986 -1.8652 -1.4325
 4669TIP3   OH235497   2.006   2.994  11.558 -0.3388 -0.3782 -0.0512
 4669TIP3    H135498   1.926   2.960  11.518  0.8857 -1.7830 -1.3857
 4669TIP3    H235499   1.976   3.036  11.639 -2.3975 -0.9831 -0.4524
 4670TIP3   OH235500   1.150   1.718   3.790  0.2632 -0.1349 -0.6152
 4670TIP3    H135501   1.245   1.708   3.798  0.4918  2.0584 -0.1360
 4670TIP3    H235502   1.136   1.748   3.700  0.2378  1.3667 -0.1363
 4671TIP3   OH235503   0.312   2.551  15.730  0.3391 -0.5255  0.3397
 4671TIP3    H135504   0.253   2.476  15.719 -0.3013  0.1810 -1.4726
 4671TIP3    H235505   0.394   2.523  15.690  0.0647 -0.2454 -0.4388
 4672TIP3   OH235506   0.054   0.740  10.339 -0.1171  0.0635 -0.1817
 4672TIP3    H135507   0.006   0.796  10.279 -0.2510  0.1348 -0.0083
 4672TIP3    H235508   0.030   0.651  10.313 -0.7981  0.1032  0.2664
 4673TIP3   OH235509   2.164   5.043  12.578  0.6625 -0.2953 -0.2548
 4673TIP3    H135510   2.127   5.031  12.666  0.5536 -0.5346 -0.3316
 4673TIP3    H235511   2.257   5.061  12.593  0.9609 -1.8290 -0.1608
 4674TIP3   OH235512   2.543   1.477  11.754  0.1127  0.0419 -0.4905
 4674TIP3    H135513   2.532   1.559  11.803  0.7801  1.1346 -2.0534
 4674TIP3    H235514   2.555   1.410  11.821 -1.3106  1.0668  0.8639
 4675TIP3   OH235515   0.979   5.394  15.301 -0.1883 -0.3561  0.1305
 4675TIP3    H135516   1.071   5.417  15.288  0.3704 -1.9194  1.0255
 4675TIP3    H235517   0.934   5.434  15.227  1.4071 -0.7498 -1.1163
 4676TIP3   OH235518   3.921   1.783  11.233 -0.8796 -0.1915  0.4647
 4676TIP3    H135519   3.938   1.871  11.199  0.8387 -0.7629 -0.2509
 4676TIP3    H235520   3.874   1.739  11.161  1.2343 -0.8591 -0.5930
 4677TIP3   OH235521   1.639   2.574  13.945 -0.1998 -0.4300 -0.1630
 4677TIP3    H135522   1.697   2.624  14.002  0.5485 -0.3544 -0.9613
 4677TIP3    H235523   1.584   2.639  13.902 -0.0867 -0.3975 -0.2600
 4678TIP3   OH235524   3.266   5.522  12.084 -0.0810  0.6466 -0.0598
 4678TIP3    H135525   3.211   5.569  12.146 -1.2357 -0.0751 -0.4867
 4678TIP3    H235526   3.234   5.550  11.998 -0.5345 -0.5734 -0.3185
 4679TIP3   OH235527   1.772   1.016  12.815  0.2944  0.0192 -0.1742
 4679TIP3    H135528   1.788   0.969  12.733  0.2296 -2.2660  1.0528
 4679TIP3    H235529   1.686   1.057  12.803  0.7260  0.5690 -1.5854
 4680TIP3   OH235530   0.780   0.246   2.451 -0.0201 -0.4746  0.0177
 4680TIP3    H135531   0.818   0.236   2.364  0.5751  0.1668  0.2004
 4680TIP3    H235532   0.792   0.160   2.492 -0.4419 -0.8286 -0.5756
 4681TIP3   OH235533   4.856   4.134  12.429  0.3394 -0.0713 -0.1870
 4681TIP3    H135534   4.932   4.168  12.382  0.2699  1.0854  0.5197
 4681TIP3    H235535   4.814   4.074  12.367  2.4604 -1.6624 -0.1910
 4682TIP3   OH235536   2.632   1.366  10.596  0.1320 -0.3561  0.5891
 4682TIP3    H135537   2.579   1.306  10.543 -0.6797  1.2630 -0.5301
 4682TIP3    H235538   2.722   1.350  10.569 -0.2637  0.3701 -1.2829
 4683TIP3   OH235539   0.620   4.599   0.719 -0.3610 -0.0578  0.4056
 4683TIP3    H135540   0.642   4.507   0.704  2.2828  0.6644 -0.7521
 4683TIP3    H235541   0.530   4.607   0.687  0.3523 -1.6532 -2.4052
 4684TIP3   OH235542   1.065   1.695  12.582  0.3351  0.1898 -0.4946
 4684TIP3    H135543   1.041   1.682  12.490 -0.4185 -1.3899 -0.1104
 4684TIP3    H235544   1.143   1.641  12.594  0.9454  1.0852 -0.4145
 4685TIP3   OH235545   2.261   2.653  15.580  0.5254  0.3425  0.2337
 4685TIP3    H135546   2.214   2.611  15.652  1.1147  2.9310  2.3232
 4685TIP3    H235547   2.297   2.581  15.529 -2.4776 -1.6652  0.7211
 4686TIP3   OH235548   2.195   1.143   2.312 -0.0607 -0.1036  0.2787
 4686TIP3    H135549   2.153   1.124   2.396 -0.4369  1.8044  0.5686
 4686TIP3    H235550   2.141   1.098   2.247 -0.6966 -0.2912  0.9303
 4687TIP3   OH235551   4.817   1.279  14.182 -0.7148 -0.3721 -0.3445
 4687TIP3    H135552   4.809   1.194  14.140 -1.4024 -0.4830  0.0003
 4687TIP3    H235553   4.763   1.272  14.261  1.6636 -0.6638  1.3620
 4688TIP3   OH235554   6.231   6.120  11.361 -0.7945 -0.0147  0.1429
 4688TIP3    H135555   6.140   6.093  11.375 -1.3456  0.9999 -1.2631
 4688TIP3    H235556   6.260   6.069  11.286  0.5273 -1.8362  1.7768
 4689TIP3   OH235557   4.804   6.750   2.369  0.7880  0.0495 -0.2184
 4689TIP3    H135558   4.743   6.690   2.326 -0.7942 -1.6814  3.9122
 4689TIP3    H235559   4.748   6.819   2.406  2.0586  1.5117 -0.9236
 4690TIP3   OH235560   1.776   5.245  12.233 -0.0919  0.0045  0.0310
 4690TIP3    H135561   1.767   5.191  12.154 -0.7811  1.2246 -0.7625
 4690TIP3    H235562   1.855   5.214  12.276  0.8100 -0.0682 -1.6378
 4691TIP3   OH235563   1.997   4.765  12.604 -0.0565 -0.6860  0.1202
 4691TIP3    H135564   1.989   4.752  12.510  0.5741 -0.3326  0.0108
 4691TIP3    H235565   2.064   4.703  12.631 -0.2977 -0.8474  0.3502
 4692TIP3   OH235566   6.891   3.019   1.610 -0.2514 -0.1341  0.0732
 4692TIP3    H135567   6.972   3.063   1.581 -0.1720 -0.2716  0.0876
 4692TIP3    H235568   6.922   2.942   1.658 -0.3951 -0.3035 -0.1056
 4693TIP3   OH235569   5.603   2.791   0.072 -0.3406 -0.1283 -0.2556
 4693TIP3    H135570   5.570   2.729   0.137 -1.3848  1.2678  0.6078
 4693TIP3    H235571   5.659   2.851   0.122 -0.7159  0.6415 -0.7326
 4694TIP3   OH235572   1.375   1.983  13.904 -0.0749  0.2288 -0.1140
 4694TIP3    H135573   1.362   2.065  13.952 -2.6261  0.4094 -0.9925
 4694TIP3    H235574   1.399   2.011  13.816  0.8845 -0.0396  0.0494
 4695TIP3   OH235575   4.654   7.158  12.070  0.4669  0.4897 -0.0791
 4695TIP3    H135576   4.611   7.143  12.153  1.9229  0.0318  0.6267
 4695TIP3    H235577   4.665   7.253  12.065  1.6561  0.4301  0.9544
 4696TIP3   OH235578   2.896   2.259  13.033 -0.5332 -0.3082  0.6163
 4696TIP3    H135579   2.871   2.198  12.964  1.8900 -0.5636 -0.0921
 4696TIP3    H235580   2.822   2.319  13.039 -1.1727 -0.7838 -1.6004
 4697TIP3   OH235581   3.085   0.111   1.750 -0.6318 -0.1929  0.1309
 4697TIP3    H135582   3.065   0.204   1.756  3.2788  0.9729 -1.9415
 4697TIP3    H235583   3.017   0.075   1.693 -0.5755  2.0463 -1.4569
 4698TIP3   OH235584   2.165   5.119  11.093 -0.4558  0.3747 -0.0713
 4698TIP3    H135585   2.159   5.032  11.132 -1.8773 -0.8140 -2.6524
 4698TIP3    H235586   2.225   5.167  11.150  2.2355 -2.9675  0.2375
 4699TIP3   OH235587   3.209   1.609  15.551  0.8328  0.2617  0.4340
 4699TIP3    H135588   3.267   1.534  15.566 -0.2728 -0.8469 -0.6085
 4699TIP3    H235589   3.156   1.614  15.631  0.7212 -0.2680  0.4018
 4700TIP3   OH235590   3.090   0.428  13.750 -0.1654 -0.2857 -0.5369
 4700TIP3    H135591   3.126   0.449  13.664 -0.2914 -0.7192 -0.6949
 4700TIP3    H235592   3.047   0.509  13.778  0.4661  0.0699 -0.5787
 4701TIP3   OH235593   4.148   3.088  13.580 -0.0573  0.0102 -0.3462
 4701TIP3    H135594   4.088   3.145  13.628 -0.2000 -0.1847 -0.2917
 4701TIP3    H235595   4.228   3.087  13.632 -0.8805 -1.8128  0.9871
 4702TIP3   OH235596   1.835   5.850  12.816  0.3885  0.3737 -0.0971
 4702TIP3    H135597   1.864   5.906  12.889  1.4721  0.4459 -0.5652
 4702TIP3    H235598   1.740   5.852  12.821  0.4447  0.3446  1.3468
 4703TIP3   OH235599   3.715   3.945  12.503 -0.1931 -0.2349  0.3021
 4703TIP3    H135600   3.654   3.963  12.431 -0.6282 -0.7436  0.5370
 4703TIP3    H235601   3.694   3.856  12.530  0.7003 -0.4455  0.3511
 4704TIP3   OH235602   3.226   6.377  11.516 -0.1416  0.7034 -0.2706
 4704TIP3    H135603   3.262   6.400  11.602  0.1092 -1.4111  0.2309
 4704TIP3    H235604   3.171   6.301  11.532 -0.6272  0.6680 -1.9045
 4705TIP3   OH235605   4.736   4.733   1.819  0.2560  0.0213 -0.2900
 4705TIP3    H135606   4.777   4.661   1.771 -0.5722 -1.5817  1.2901
 4705TIP3    H235607   4.745   4.709   1.911 -1.5153  1.1234  0.2155
 4706TIP3   OH235608   2.678   6.884  11.192  0.3796 -0.1419 -0.4425
 4706TIP3    H135609   2.646   6.795  11.185  0.6503 -0.1266 -2.5344
 4706TIP3    H235610   2.603   6.939  11.171 -0.1835  0.2604  2.2320
 4707TIP3   OH235611   0.353   3.564   4.538  0.1422 -0.1713 -0.3435
 4707TIP3    H135612   0.279   3.564   4.478 -0.7684  1.7437  0.6675
 4707TIP3    H235613   0.313   3.566   4.625  1.2659  2.4101  0.2120
 4708TIP3   OH235614   1.842   3.441   1.182 -0.1428  0.8491  0.0767
 4708TIP3    H135615   1.819   3.348   1.187 -1.7290  1.1853 -0.5719
 4708TIP3    H235616   1.917   3.450   1.241  0.7863 -1.0550 -0.7311
 4709TIP3   OH235617   6.558   1.774  13.199  0.1134  0.3263 -0.0747
 4709TIP3    H135618   6.509   1.816  13.270  0.3777  1.2872 -0.4350
 4709TIP3    H235619   6.491   1.739  13.141 -0.1050 -0.3192  0.5610
 4710TIP3   OH235620   2.463   3.370  10.885  0.8082 -0.0354 -0.5271
 4710TIP3    H135621   2.400   3.332  10.824  0.5613 -0.5268  0.0273
 4710TIP3    H235622   2.548   3.336  10.857  0.9354  1.1141 -1.6621
 4711TIP3   OH235623   4.945   5.629  14.685  0.0299  0.4618  0.0662
 4711TIP3    H135624   4.983   5.691  14.747 -0.1400 -0.1660  0.8220
 4711TIP3    H235625   4.902   5.563  14.740 -2.6014  1.3870 -0.7303
 4712TIP3   OH235626   3.519   1.508  13.605 -0.4187 -0.6735 -0.1585
 4712TIP3    H135627   3.557   1.475  13.523 -1.4002  1.6781 -1.6449
 4712TIP3    H235628   3.425   1.498  13.593 -0.5401 -1.4429  1.2497
 4713TIP3   OH235629   1.267   6.508  11.014  0.3762  0.5822  0.0022
 4713TIP3    H135630   1.292   6.549  10.931 -0.4079 -0.4490 -0.7769
 4713TIP3    H235631   1.335   6.444  11.031 -0.3685 -0.4752 -0.8218
 4714TIP3   OH235632   2.778   0.044  13.811  0.2110  0.4445 -0.2478
 4714TIP3    H135633   2.761   0.072  13.721 -3.0899  0.1762  0.1585
 4714TIP3    H235634   2.735   0.110  13.865 -1.6301 -1.5979  0.9299
 4715TIP3   OH235635   1.936   2.839  13.850 -0.3670  0.2680  0.3449
 4715TIP3    H135636   1.917   2.817  13.758  0.1615  1.4193 -0.0661
 4715TIP3    H235637   1.851   2.865  13.885 -0.9279 -1.8927  0.7325
 4716TIP3   OH235638   4.805   5.402  14.440  0.1978  0.0469  0.7975
 4716TIP3    H135639   4.872   5.348  14.399 -1.6073 -1.5952 -0.1736
 4716TIP3    H235640   4.822   5.491  14.409  0.0277 -0.8427 -2.0822
 4717TIP3   OH235641   4.683   4.104  11.698  0.3502 -0.4100  0.0572
 4717TIP3    H135642   4.651   4.188  11.731 -2.5536 -1.8290  1.2061
 4717TIP3    H235643   4.687   4.047  11.776  0.5730 -1.8010 -0.9260
 4718TIP3   OH235644   4.465   5.623  10.877  0.1857 -0.4235  0.0035
 4718TIP3    H135645   4.548   5.661  10.848  0.0997  0.0843  0.4000
 4718TIP3    H235646   4.424   5.693  10.928 -1.4316  0.0781 -1.8950
 4719TIP3   OH235647   3.219   0.822  13.334 -0.0063  0.0126  0.1360
 4719TIP3    H135648   3.308   0.793  13.355 -0.2910  0.6127  2.4806
 4719TIP3    H235649   3.225   0.853  13.244  1.3734 -2.9085 -0.8971
 4720TIP3   OH235650   7.064   2.861  13.176 -0.2365  0.3114 -0.4511
 4720TIP3    H135651   7.113   2.785  13.145 -0.2877  0.3727 -0.6858
 4720TIP3    H235652   7.087   2.932  13.116 -0.1777  0.4874 -0.2276
 4721TIP3   OH235653   4.613   1.752   1.049 -0.0090  0.3405  0.5555
 4721TIP3    H135654   4.665   1.673   1.038  0.1061  0.6142 -1.1880
 4721TIP3    H235655   4.628   1.802   0.968 -3.1098  0.3284 -0.1491
 4722TIP3   OH235656   6.685   1.034   5.717 -0.1855  0.0876  0.5573
 4722TIP3    H135657   6.638   1.092   5.777  0.0153  1.4520 -0.5508
 4722TIP3    H235658   6.751   1.090   5.677  0.1911 -0.9859 -0.3644
 4723TIP3   OH235659   1.113   4.154  14.530 -0.2835  0.2404  0.4161
 4723TIP3    H135660   1.107   4.062  14.505 -2.5042  0.3934  0.2125
 4723TIP3    H235661   1.047   4.166  14.598 -0.7577  1.8964 -0.2756
 4724TIP3   OH235662   0.654   2.880  14.986 -0.4411  0.0979 -0.5091
 4724TIP3    H135663   0.658   2.844  15.074 -1.0986 -0.4816 -0.7099
 4724TIP3    H235664   0.745   2.905  14.966 -0.3961  0.8584  0.5759
 4725TIP3   OH235665   1.342   3.733  11.963  0.1653  0.8173  0.0864
 4725TIP3    H135666   1.279   3.712  11.894 -0.0581 -1.9993  1.0265
 4725TIP3    H235667   1.428   3.721  11.922  0.0318 -0.6944  0.1834
 4726TIP3   OH235668   1.688   5.358  11.327 -0.0284 -0.0359  0.2631
 4726TIP3    H135669   1.763   5.310  11.290 -0.8650 -0.2436 -1.2392
 4726TIP3    H235670   1.613   5.303  11.306 -0.8555  1.2649 -0.2755
 4727TIP3   OH235671   5.054   4.071  13.996  0.6887 -0.2959 -0.3664
 4727TIP3    H135672   5.070   4.146  14.053  2.3099 -0.9052  0.0221
 4727TIP3    H235673   5.113   4.083  13.922  1.8962 -1.7892  0.3043
 4728TIP3   OH235674   4.917   0.122  12.223 -0.3952  0.6539  0.4069
 4728TIP3    H135675   4.892   0.109  12.132  1.8960  0.7380 -0.2979
 4728TIP3    H235676   4.908   0.216  12.237 -0.5639  0.6667  0.2169
 4729TIP3   OH235677   2.639   2.396   0.275 -0.6900 -0.3624  0.4473
 4729TIP3    H135678   2.628   2.488   0.296 -0.4808  0.4342 -2.5088
 4729TIP3    H235679   2.574   2.351   0.329 -1.5497  1.6063  1.1537
 4730TIP3   OH235680   5.671   0.041   4.468 -0.4553 -0.2073  0.0250
 4730TIP3    H135681   5.702   0.100   4.399  1.2383  0.3633  1.1924
 4730TIP3    H235682   5.634   0.099   4.535  0.1904 -0.5218  0.6767
 4731TIP3   OH235683   4.251   4.878   2.768  0.2417 -0.3620  0.0005
 4731TIP3    H135684   4.246   4.792   2.726  0.5281 -0.6292  0.4993
 4731TIP3    H235685   4.164   4.915   2.757 -0.1426 -1.0725  0.5219
 4732TIP3   OH235686   3.237   3.298   9.969  0.1131 -0.4742 -0.3192
 4732TIP3    H135687   3.322   3.275  10.007  1.6300 -0.2620 -3.2800
 4732TIP3    H235688   3.255   3.372   9.912 -2.1150 -0.3067 -0.9203
 4733TIP3   OH235689   4.870   2.863   0.511  0.3796  0.8721  0.1641
 4733TIP3    H135690   4.872   2.940   0.568  0.6572 -0.7648  2.5088
 4733TIP3    H235691   4.949   2.815   0.534 -0.4097 -0.7145 -0.3421
 4734TIP3   OH235692   5.472   7.103  12.403  0.3295  0.6936  0.7628
 4734TIP3    H135693   5.448   7.171  12.467  0.9795  2.5367 -0.8603
 4734TIP3    H235694   5.402   7.105  12.339 -0.1724 -0.9462  1.2209
 4735TIP3   OH235695   6.491   0.833   0.639  0.9781 -0.2176  0.0054
 4735TIP3    H135696   6.558   0.900   0.644 -0.1666  0.9169  0.6836
 4735TIP3    H235697   6.509   0.774   0.713  1.3309 -0.0389  0.0620
 4736TIP3   OH235698   1.144   3.936   4.626  0.7029  0.5609 -0.6765
 4736TIP3    H135699   1.134   4.031   4.619 -0.2736  0.5145 -0.1171
 4736TIP3    H235700   1.177   3.909   4.540 -0.7226  1.2068 -1.4584
 4737TIP3   OH235701   5.842   4.624  13.986  0.1958 -0.2925 -0.2196
 4737TIP3    H135702   5.885   4.572  14.054  0.6898  1.0258  0.4976
 4737TIP3    H235703   5.749   4.620  14.008  0.1102 -1.6327 -0.7208
 4738TIP3   OH235704   4.631   2.913  11.071 -0.0944  0.0059 -0.2432
 4738TIP3    H135705   4.597   2.861  10.999 -0.4422 -0.5775  0.3283
 4738TIP3    H235706   4.727   2.909  11.061 -0.1393 -0.1364 -0.6219
 4739TIP3   OH235707   2.294   3.236  10.718  0.6433  0.1926 -0.0823
 4739TIP3    H135708   2.366   3.178  10.694 -0.4810 -1.6623  0.8137
 4739TIP3    H235709   2.224   3.216  10.656  1.0533  2.5332 -1.4497
 4740TIP3   OH235710   1.221   2.509   6.052  0.0125 -0.7280 -0.2758
 4740TIP3    H135711   1.275   2.434   6.076  0.4079  0.3379  2.6551
 4740TIP3    H235712   1.168   2.479   5.980  0.8986 -3.4827  0.1150
 4741TIP3   OH235713   3.234   6.997  11.496 -0.3119  0.4758  0.1709
 4741TIP3    H135714   3.255   6.966  11.408 -1.5857 -0.0810  0.0375
 4741TIP3    H235715   3.146   6.962  11.513 -0.8578  2.1264  0.9363
 4742TIP3   OH235716   1.862   2.260  12.192 -0.0327 -0.0516 -0.4129
 4742TIP3    H135717   1.797   2.325  12.219  0.3329  1.1037 -2.1601
 4742TIP3    H235718   1.934   2.312  12.157  1.1508 -1.3660 -0.0081
 4743TIP3   OH235719   2.426   3.527  11.116  0.3515 -0.0746  0.0320
 4743TIP3    H135720   2.439   3.466  11.043 -1.3332 -0.9880  0.4142
 4743TIP3    H235721   2.353   3.582  11.088  1.8210  1.7938 -0.2792
 4744TIP3   OH235722   2.366   2.284  13.040 -0.3779 -0.6390 -0.2100
 4744TIP3    H135723   2.348   2.377  13.055 -2.0709 -0.8064 -0.8985
 4744TIP3    H235724   2.308   2.260  12.967 -0.5467 -2.3963  0.4391
 4745TIP3   OH235725   1.174   3.551   4.640 -0.1410  0.2367 -0.0435
 4745TIP3    H135726   1.188   3.505   4.558 -0.0220  1.8404 -0.9763
 4745TIP3    H235727   1.211   3.638   4.625  0.1433  0.4815  1.8184
 4746TIP3   OH235728   1.190   0.563  14.257  0.5286  0.4154 -0.2458
 4746TIP3    H135729   1.270   0.522  14.292  0.4040 -0.9505 -1.4818
 4746TIP3    H235730   1.133   0.489  14.236 -0.5729  1.3357 -0.5645
 4747TIP3   OH235731   1.600   2.580  14.385  0.2310  0.3517  0.4306
 4747TIP3    H135732   1.692   2.572  14.361  0.5377  1.4191  1.2024
 4747TIP3    H235733   1.573   2.664  14.347 -0.8735 -0.6444 -1.1371
 4748TIP3   OH235734   2.443   6.036  11.168  0.0169  0.5338  0.6927
 4748TIP3    H135735   2.453   6.120  11.122  0.8350 -0.0556 -0.2334
 4748TIP3    H235736   2.352   6.012  11.153 -0.1932  1.1897  0.8609
 4749TIP3   OH235737   3.724   4.591  11.034  0.1304  0.0502  0.2914
 4749TIP3    H135738   3.640   4.547  11.051  0.0811 -1.0962 -2.3725
 4749TIP3    H235739   3.781   4.521  11.000  1.8883  0.9987  1.1516
 4750TIP3   OH235740   4.173   2.434   9.698  0.3725  0.7918 -0.2681
 4750TIP3    H135741   4.111   2.499   9.729  2.8695  2.5449  1.4283
 4750TIP3    H235742   4.220   2.477   9.627  0.3571 -0.1293 -0.8547
 4751TIP3   OH235743   1.278   1.766  15.099  0.1163 -0.8452  0.2426
 4751TIP3    H135744   1.299   1.847  15.144 -2.1156  0.7503 -1.3470
 4751TIP3    H235745   1.190   1.744  15.129 -2.0400  0.9768 -3.8742
 4752TIP3   OH235746   6.779   0.986  12.129  0.5710  0.4180 -0.5657
 4752TIP3    H135747   6.779   0.970  12.035  1.2606  0.6104 -0.6068
 4752TIP3    H235748   6.712   1.053  12.142 -0.7899 -0.8845 -0.6728
 4753TIP3   OH235749   5.846   6.359   4.882  0.2768  0.0954  0.0942
 4753TIP3    H135750   5.894   6.291   4.834  0.0697 -0.0666  0.1140
 4753TIP3    H235751   5.912   6.424   4.904  0.3306  0.2991 -0.6436
 4754TIP3   OH235752   0.618   0.601  15.317 -0.3985  0.3285 -0.1447
 4754TIP3    H135753   0.622   0.584  15.411 -0.7149  0.2362 -0.1442
 4754TIP3    H235754   0.596   0.694  15.310  2.5778  1.1100 -0.1587
 4755TIP3   OH235755   0.535   4.951  15.226 -0.1218  0.3899  0.6892
 4755TIP3    H135756   0.599   4.976  15.293  0.4540 -2.2541  1.2359
 4755TIP3    H235757   0.586   4.904  15.160 -1.0262  1.0971 -0.5653
 4756TIP3   OH235758   5.731   5.325  14.050  0.0537  0.1464 -0.1531
 4756TIP3    H135759   5.793   5.350  13.982 -0.1110 -1.0078 -0.7432
 4756TIP3    H235760   5.674   5.402  14.060 -0.4350  0.0526 -1.9141
 4757TIP3   OH235761   6.160   0.551  11.393 -0.2326  0.4847  0.8699
 4757TIP3    H135762   6.116   0.548  11.478 -0.4678 -0.8733  0.7287
 4757TIP3    H235763   6.244   0.594  11.411 -2.0094  4.3316  0.9045
 4758TIP3   OH235764   1.214   1.701  12.998  0.0746  0.2167  0.0767
 4758TIP3    H135765   1.227   1.667  13.086  0.1304 -0.7742 -0.3010
 4758TIP3    H235766   1.230   1.795  13.006  1.1105 -0.0103  0.9150
 4759TIP3   OH235767   2.606   2.614   4.306  0.1669 -0.0495  0.5770
 4759TIP3    H135768   2.619   2.693   4.253  0.1096 -0.1526  0.4077
 4759TIP3    H235769   2.652   2.545   4.258 -1.7871 -0.6349 -0.5539
 4760TIP3   OH235770   3.006   2.289  15.445  0.5282 -0.0891  0.5692
 4760TIP3    H135771   2.990   2.208  15.492  3.0649 -0.7392  0.4485
 4760TIP3    H235772   2.946   2.286  15.370 -0.1190 -1.3403  1.1128
 4761TIP3   OH235773   5.704   0.515  11.921  0.1300  0.1898  0.1780
 4761TIP3    H135774   5.729   0.607  11.916 -2.0709  1.0022  2.5764
 4761TIP3    H235775   5.686   0.499  12.013 -1.0216 -2.2494 -0.3800
 4762TIP3   OH235776   3.796   1.779   2.879  0.8397 -0.0763  0.3761
 4762TIP3    H135777   3.862   1.815   2.820  0.8838  1.0878  1.1151
 4762TIP3    H235778   3.716   1.829   2.860  0.4967 -0.6045  0.3894
 4763TIP3   OH235779   2.348   4.296  15.163  0.2303 -0.4934  0.3491
 4763TIP3    H135780   2.273   4.238  15.173 -0.7107  0.2527 -1.7133
 4763TIP3    H235781   2.344   4.354  15.240 -0.8159 -0.9965  0.6986
 4764TIP3   OH235782   5.694   1.409   3.674 -0.5197 -0.5633  0.4634
 4764TIP3    H135783   5.669   1.428   3.583 -2.1281  2.1790  1.3437
 4764TIP3    H235784   5.614   1.377   3.715 -0.6867  1.0734  1.5361
 4765TIP3   OH235785   3.586   1.241  10.934  0.0278 -0.1162  0.2698
 4765TIP3    H135786   3.612   1.149  10.941 -0.8913 -0.5287 -1.2341
 4765TIP3    H235787   3.665   1.291  10.953  0.5865 -1.2230  0.9059
 4766TIP3   OH235788   4.617   2.193   5.164  0.0318  0.4115  0.6660
 4766TIP3    H135789   4.702   2.227   5.134 -0.6487  1.0359 -0.6842
 4766TIP3    H235790   4.559   2.208   5.089 -0.7001 -2.3339  0.5716
 4767TIP3   OH235791   3.802   6.286   5.240  0.1659  0.0436 -0.1112
 4767TIP3    H135792   3.745   6.361   5.252  0.4367  0.3489 -0.6745
 4767TIP3    H235793   3.882   6.308   5.286 -0.3520 -0.6217  1.1581
 4768TIP3   OH235794   6.373   1.401  13.122 -0.0163 -0.3461  0.0581
 4768TIP3    H135795   6.449   1.351  13.094 -0.2471 -0.7734  0.1918
 4768TIP3    H235796   6.336   1.435  13.040  1.8332  2.1297  0.1439
 4769TIP3   OH235797   1.759   4.821   2.552 -0.2812  0.1113 -0.2221
 4769TIP3    H135798   1.840   4.834   2.503  0.4951 -0.1735  0.9504
 4769TIP3    H235799   1.777   4.745   2.608 -1.5789 -0.3427 -0.3934
 4770TIP3   OH235800   0.910   3.628  15.686 -0.5329 -0.2039 -0.3477
 4770TIP3    H135801   0.933   3.538  15.709 -1.6801 -0.2038  0.9482
 4770TIP3    H235802   0.987   3.679  15.709  0.9845 -1.0284 -3.0484
 4771TIP3   OH235803   4.838   4.060  10.602  0.0747 -0.1512  0.3294
 4771TIP3    H135804   4.893   4.135  10.624 -1.0208  1.0299 -0.7907
 4771TIP3    H235805   4.894   4.002  10.551  0.9148 -0.0766  1.1491
 4772TIP3   OH235806   4.448   2.784   3.033 -0.4228  0.6624 -0.4148
 4772TIP3    H135807   4.522   2.816   3.086 -0.0287 -0.7228 -0.0835
 4772TIP3    H235808   4.462   2.821   2.947  2.0589 -1.4479 -1.0452
 4773TIP3   OH235809   3.432   6.835  11.820  0.1207 -0.2740  0.3286
 4773TIP3    H135810   3.397   6.922  11.802 -3.2173 -1.5640 -0.1681
 4773TIP3    H235811   3.527   6.844  11.810 -0.1055  3.2483  0.2946
 4774TIP3   OH235812   6.199   0.039  13.080 -0.5450  0.0279  0.3223
 4774TIP3    H135813   6.203  -0.019  13.004  1.7353  0.3136  0.1551
 4774TIP3    H235814   6.217   0.126  13.045  0.1915  0.2102  1.1095
 4775TIP3   OH235815   4.089   1.865  15.485 -0.4971 -0.2593  0.3239
 4775TIP3    H135816   4.115   1.937  15.542 -0.9403 -0.4609  0.7863
 4775TIP3    H235817   3.994   1.876  15.474 -0.6247 -0.9452  0.6491
 4776TIP3   OH235818   6.075   7.130  12.842 -0.1773  0.1320 -0.0422
 4776TIP3    H135819   6.168   7.108  12.831  0.0390  1.1909 -0.4267
 4776TIP3    H235820   6.032   7.045  12.853  0.9322 -0.3375  0.9352
 4777TIP3   OH235821   5.951   7.050  13.755 -0.0878 -0.3897 -0.4204
 4777TIP3    H135822   5.886   7.120  13.754  1.0632  0.7262  0.4474
 4777TIP3    H235823   5.919   6.987  13.690 -1.6178  0.4841 -0.5686
 4778TIP3   OH235824   6.867   1.958   0.941 -0.0778 -0.1785 -0.2394
 4778TIP3    H135825   6.933   1.899   0.906 -0.2242 -1.0232  0.8581
 4778TIP3    H235826   6.911   2.043   0.948  1.6255 -1.1822  2.4990
 4779TIP3   OH235827   3.217   3.013  14.425 -0.3180  0.2052 -0.2446
 4779TIP3    H135828   3.145   3.003  14.362  0.3236 -1.7661 -0.7572
 4779TIP3    H235829   3.258   2.927  14.427  2.7290  1.5294 -0.7993
 4780TIP3   OH235830   0.931   5.303   4.420 -0.3336 -0.1675  0.0688
 4780TIP3    H135831   0.848   5.270   4.385  0.5753 -1.0670 -1.3199
 4780TIP3    H235832   0.913   5.393   4.444 -1.4849 -0.0751 -1.0600
 4781TIP3   OH235833   1.272   1.710  10.910 -0.5028 -0.0916  0.6134
 4781TIP3    H135834   1.313   1.657  10.842 -0.9888 -2.0711  1.7846
 4781TIP3    H235835   1.313   1.680  10.991 -0.0914  2.0639  1.2601
 4782TIP3   OH235836   5.218   5.374   2.061  0.3898 -0.4705  0.3713
 4782TIP3    H135837   5.305   5.381   2.023  0.1575 -2.2785 -0.6167
 4782TIP3    H235838   5.230   5.320   2.139  0.4141  0.8515  1.3163
 4783TIP3   OH235839   5.971   5.549   9.838  0.0573 -0.3104  0.2574
 4783TIP3    H135840   5.915   5.627   9.834  1.4692  0.7121 -2.5230
 4783TIP3    H235841   6.058   5.582   9.818  0.3162 -2.8228 -3.9354
 4784TIP3   OH235842   1.859   3.498  11.271 -0.5849  0.2519  0.4173
 4784TIP3    H135843   1.869   3.534  11.183 -1.3052 -0.2703  0.1159
 4784TIP3    H235844   1.940   3.448  11.286 -0.4992  0.2705  0.0193
 4785TIP3   OH235845   2.159   5.648  12.636 -0.0009 -0.3650 -0.3401
 4785TIP3    H135846   2.239   5.604  12.664  1.2665  3.0991  2.0541
 4785TIP3    H235847   2.096   5.576  12.623  2.2425 -2.9421  1.8657
 4786TIP3   OH235848   0.556   6.850  13.518  0.1018 -0.2568  0.2507
 4786TIP3    H135849   0.615   6.902  13.464  0.6415 -1.9517 -0.8577
 4786TIP3    H235850   0.494   6.913  13.554 -0.5209  0.9220 -2.6602
 4787TIP3   OH235851   3.591   4.825   9.870  0.2153  0.6519 -0.4265
 4787TIP3    H135852   3.519   4.829   9.933 -0.0446  0.0780 -0.6739
 4787TIP3    H235853   3.668   4.804   9.923 -0.0954 -0.3712 -0.3501
 4788TIP3   OH235854   7.060   4.270  13.770 -0.7163  0.4227 -0.0517
 4788TIP3    H135855   7.053   4.360  13.737 -2.1693 -0.4470 -2.3672
 4788TIP3    H235856   6.969   4.243  13.781 -0.3681 -1.3764 -1.2674
 4789TIP3   OH235857   4.222   0.890  10.401  0.6893  0.3812  0.4602
 4789TIP3    H135858   4.222   0.795  10.407  0.8716  0.2995 -0.5254
 4789TIP3    H235859   4.315   0.914  10.391  0.6401  0.6560  0.6377
 4790TIP3   OH235860   1.942   3.250  13.939  0.0251  0.0112 -0.0626
 4790TIP3    H135861   1.850   3.272  13.950 -0.0487  0.0708 -0.7469
 4790TIP3    H235862   1.957   3.178  14.000 -0.9079 -1.1410 -1.1340
 4791TIP3   OH235863   5.544   4.551  12.512 -0.2106  0.4238 -0.4040
 4791TIP3    H135864   5.484   4.619  12.482 -0.5275  0.9318  1.2705
 4791TIP3    H235865   5.541   4.484  12.443 -1.7011  1.0293 -0.9801
 4792TIP3   OH235866   4.568   2.092  12.113  0.1153  0.0336  0.1860
 4792TIP3    H135867   4.525   2.019  12.070  1.3661 -0.5942 -0.0394
 4792TIP3    H235868   4.604   2.145  12.042 -0.6618  0.8161  0.3525
 4793TIP3   OH235869   6.036   5.684  11.681 -0.5755  0.1586  0.2860
 4793TIP3    H135870   5.957   5.722  11.721  1.0196  1.6358  2.2678
 4793TIP3    H235871   6.048   5.601  11.727 -0.6985  0.1663  0.3343
 4794TIP3   OH235872   3.569   5.908  12.439  0.4283  0.4193  0.1467
 4794TIP3    H135873   3.477   5.933  12.427  0.3065 -0.0179  0.1477
 4794TIP3    H235874   3.586   5.845  12.368  0.3521 -0.4742  0.9056
 4795TIP3   OH235875   1.410   2.589   4.383 -0.2209 -0.1579 -0.3674
 4795TIP3    H135876   1.355   2.649   4.433  0.1239 -0.3394  0.2436
 4795TIP3    H235877   1.393   2.611   4.291  0.5367  1.4748 -0.1537
 4796TIP3   OH235878   6.483   6.963  10.448  0.3898  0.3726  0.3157
 4796TIP3    H135879   6.393   6.933  10.438  0.6858 -0.4282  0.0273
 4796TIP3    H235880   6.531   6.887  10.481  0.5526  1.3879  2.5683
 4797TIP3   OH235881   4.054   3.825   2.566  0.3885 -0.0988 -0.4182
 4797TIP3    H135882   4.070   3.739   2.605 -0.4858  0.0199  0.2455
 4797TIP3    H235883   4.123   3.881   2.602  0.5178 -0.3504 -0.2707
 4798TIP3   OH235884   3.795   0.954  13.431 -0.3058 -0.1809  0.5256
 4798TIP3    H135885   3.727   0.913  13.484 -0.0571  1.4827  2.2772
 4798TIP3    H235886   3.876   0.939  13.481 -0.0095  1.1456  0.4834
 4799TIP3   OH235887   3.538   5.298  15.152 -0.8539  0.2511 -0.4057
 4799TIP3    H135888   3.518   5.390  15.133 -0.3760  0.3978 -0.2121
 4799TIP3    H235889   3.474   5.248  15.101 -0.6831  0.6728 -1.0462
 4800TIP3   OH235890   2.654   3.622  12.931  0.3519  0.6141 -0.1593
 4800TIP3    H135891   2.682   3.536  12.899  1.8474  0.4286  1.5226
 4800TIP3    H235892   2.701   3.634  13.013 -1.3775  2.1875  0.6740
 4801TIP3   OH235893   2.509   5.166  11.707 -0.4498 -0.4814 -0.0251
 4801TIP3    H135894   2.566   5.240  11.686 -1.6971 -0.0354 -2.0932
 4801TIP3    H235895   2.568   5.093  11.723  0.8021 -0.4587 -3.6891
 4802TIP3   OH235896   1.875   4.150  14.296  0.1928 -0.0937 -0.3696
 4802TIP3    H135897   1.820   4.073  14.283 -0.0070 -0.0829  0.3684
 4802TIP3    H235898   1.849   4.184  14.381  2.3321 -0.9263  0.7123
 4803TIP3   OH235899   4.304   5.698   2.308  0.2076  0.2294  0.5260
 4803TIP3    H135900   4.389   5.666   2.278 -0.0980 -0.2496  0.1584
 4803TIP3    H235901   4.315   5.709   2.402  1.1190  1.5673  0.2911
 4804TIP3   OH235902   1.079   4.760   0.378 -0.5694 -0.7755  0.4063
 4804TIP3    H135903   1.163   4.754   0.333 -0.2475 -2.3640  1.1221
 4804TIP3    H235904   1.083   4.843   0.425  0.9110 -1.1312  0.9711
 4805TIP3   OH235905   2.218   2.527  10.166  0.1930  0.0290  0.1474
 4805TIP3    H135906   2.190   2.616  10.186 -0.5265  0.2245 -1.5378
 4805TIP3    H235907   2.138   2.475  10.173  0.0859 -0.0334 -1.2191
 4806TIP3   OH235908   5.236   0.080  13.515  0.4322 -0.8685  0.1556
 4806TIP3    H135909   5.218   0.077  13.421 -1.6510  1.7549  0.3331
 4806TIP3    H235910   5.301   0.149  13.525  1.3501 -1.7767  0.5967
 4807TIP3   OH235911   5.604   0.718  14.887 -0.4622  0.4112 -0.3672
 4807TIP3    H135912   5.526   0.771  14.869  0.4689  1.6461 -0.9322
 4807TIP3    H235913   5.667   0.780  14.924  0.4543 -0.4383 -0.4549
 4808TIP3   OH235914   6.156   2.324  15.166 -0.0601  0.1317  0.0000
 4808TIP3    H135915   6.120   2.411  15.151 -1.8025 -0.6192 -0.4073
 4808TIP3    H235916   6.146   2.310  15.260  0.8831  0.6165  0.1904
 4809TIP3   OH235917   4.005   1.374  11.724 -0.0308  0.3028 -0.3797
 4809TIP3    H135918   3.951   1.447  11.693 -0.1639  0.1923 -0.4124
 4809TIP3    H235919   4.095   1.405  11.716  0.1079 -0.4792 -3.0097
 4810TIP3   OH235920   3.787   2.200  10.556 -0.1183 -0.2915 -0.4859
 4810TIP3    H135921   3.849   2.272  10.549 -1.4363  0.9258 -0.1943
 4810TIP3    H235922   3.733   2.223  10.632 -1.2048 -1.0664 -1.0014
 4811TIP3   OH235923   4.435   6.138  14.461  0.0944  0.5043  0.6530
 4811TIP3    H135924   4.486   6.058  14.446 -2.2420 -1.2603  1.5776
 4811TIP3    H235925   4.497   6.198  14.502  2.1222 -0.5035 -0.7348
 4812TIP3   OH235926   2.784   0.078   3.562 -0.0586  0.1747 -0.0390
 4812TIP3    H135927   2.872   0.048   3.538 -0.5828 -0.3918 -1.3809
 4812TIP3    H235928   2.727   0.004   3.540 -0.8403  0.3673  1.2337
 4813TIP3   OH235929   1.018   5.699   4.119  0.1347  0.1191 -0.0635
 4813TIP3    H135930   1.091   5.644   4.092  0.3851  1.0551 -1.3684
 4813TIP3    H235931   1.058   5.774   4.162 -0.1262  0.1004  0.2232
 4814TIP3   OH235932   5.819   3.397   1.929 -0.0013 -0.0563  0.0424
 4814TIP3    H135933   5.829   3.461   1.999 -0.5206 -1.6573  1.6693
 4814TIP3    H235934   5.835   3.312   1.972  2.5148 -0.9574 -2.3938
 4815TIP3   OH235935   2.979   5.214   0.626  0.0060  0.0076 -0.0019
 4815TIP3    H135936   2.917   5.268   0.674 -0.5085 -0.5829  0.0055
 4815TIP3    H235937   3.054   5.206   0.685 -0.4259 -0.3119  0.5079
 4816TIP3   OH235938   1.187   0.670   0.777  0.4142 -0.7536  0.0447
 4816TIP3    H135939   1.103   0.672   0.732 -0.3608  0.6381  1.4791
 4816TIP3    H235940   1.165   0.655   0.869  1.6229  0.6998  0.6183
 4817TIP3   OH235941   1.379   0.430  13.104 -0.3088 -0.4044 -0.2430
 4817TIP3    H135942   1.422   0.345  13.112  0.0698 -0.2330 -0.4343
 4817TIP3    H235943   1.438   0.481  13.048  1.1310  1.0604  2.4282
 4818TIP3   OH235944   0.803   1.993  12.765 -0.1792  0.1367 -0.0710
 4818TIP3    H135945   0.846   2.058  12.709 -0.9283  0.6669 -0.0518
 4818TIP3    H235946   0.870   1.928  12.783  0.2054  0.2244 -1.1712
 4819TIP3   OH235947   3.796   0.858  11.430 -0.0140  0.0148  0.5217
 4819TIP3    H135948   3.739   0.868  11.506 -1.9661  0.1920 -0.8765
 4819TIP3    H235949   3.800   0.946  11.392  0.6388 -0.1393  0.2194
 4820TIP3   OH235950   1.151   6.929   0.655 -0.0831  0.1311  0.0918
 4820TIP3    H135951   1.126   6.929   0.563 -0.0982 -0.5168  0.0870
 4820TIP3    H235952   1.204   6.850   0.665 -1.6885 -0.8895  1.0436
 4821TIP3   OH235953   6.854   0.207   0.360  0.3931 -0.2501 -0.0979
 4821TIP3    H135954   6.893   0.186   0.276 -1.6876 -3.4618 -0.4107
 4821TIP3    H235955   6.881   0.136   0.418 -2.3989 -1.0076  0.4381
 4822TIP3   OH235956   5.151   3.891   5.192 -0.8491  0.4435  0.6552
 4822TIP3    H135957   5.085   3.829   5.223  0.2561 -0.8871  0.4518
 4822TIP3    H235958   5.160   3.953   5.264 -2.1547  0.5399  0.7725
 4823TIP3   OH235959   4.760   3.483   2.313  0.3035 -0.0972 -1.0806
 4823TIP3    H135960   4.667   3.492   2.292  0.2729 -0.6419 -1.2016
 4823TIP3    H235961   4.788   3.405   2.265  1.0504  0.5835 -1.7874
 4824TIP3   OH235962   4.447   0.197  11.017  0.3025  0.6060 -0.5304
 4824TIP3    H135963   4.488   0.254  10.951  0.6878  1.6726  0.5962
 4824TIP3    H235964   4.515   0.132  11.036 -0.4025 -0.7460 -2.3638
 4825TIP3   OH235965   2.997   1.327  11.081  0.1278 -0.5749  0.0177
 4825TIP3    H135966   3.029   1.257  11.137 -0.0317  0.7106  1.7962
 4825TIP3    H235967   3.006   1.406  11.134 -0.3717  0.6612 -1.6589
 4826TIP3   OH235968   6.097   4.665  10.142 -0.1327  0.4368 -0.0742
 4826TIP3    H135969   6.139   4.741  10.182 -1.3192  2.1114 -1.8000
 4826TIP3    H235970   6.132   4.662  10.053 -1.5922  0.2473 -0.6797
 4827TIP3   OH235971   1.382   1.788  13.461 -0.2270  0.1087  0.5832
 4827TIP3    H135972   1.331   1.808  13.540 -1.1705 -1.4466  0.4161
 4827TIP3    H235973   1.358   1.856  13.399 -1.8338 -0.3474  0.6549
 4828TIP3   OH235974   2.608   6.220  15.503 -0.2279 -0.1509  0.1890
 4828TIP3    H135975   2.695   6.232  15.466 -0.9066  0.2798 -1.3373
 4828TIP3    H235976   2.586   6.304  15.542  0.0480 -0.2735  0.6156
 4829TIP3   OH235977   5.435   0.874  11.306  0.2647  0.1214  0.5992
 4829TIP3    H135978   5.435   0.941  11.375 -0.0376  1.6556 -0.8267
 4829TIP3    H235979   5.391   0.916  11.232  0.9927 -1.3109 -0.6935
 4830TIP3   OH235980   6.679   0.987   0.127  0.0728  0.2751 -0.0627
 4830TIP3    H135981   6.769   0.972   0.158  0.1920  2.7822  1.0822
 4830TIP3    H235982   6.652   0.904   0.089  2.4316 -0.9253  0.7063
 4831TIP3   OH235983   1.011   6.002  13.123 -0.1291  0.0341  0.1922
 4831TIP3    H135984   0.966   5.958  13.051  0.5801 -0.3988  0.0079
 4831TIP3    H235985   1.020   6.092  13.094  0.6051 -0.2449 -0.4948
 4832TIP3   OH235986   6.992   6.450   0.028  0.3684  0.4117  0.4450
 4832TIP3    H135987   6.932   6.492  -0.034  1.4977  1.4185  0.0048
 4832TIP3    H235988   6.961   6.360   0.034 -1.1262  0.8780  0.1491
 4833TIP3   OH235989   2.992   4.237  14.103  0.0848  0.1866 -0.3901
 4833TIP3    H135990   3.087   4.246  14.106  0.2168 -1.2089  0.4555
 4833TIP3    H235991   2.961   4.278  14.184  0.1658 -1.2354  0.3839
 4834TIP3   OH235992   0.749   7.065  15.375  0.2529 -0.2109  0.6615
 4834TIP3    H135993   0.810   7.138  15.381 -0.9606  0.9535 -0.4411
 4834TIP3    H235994   0.800   6.988  15.401  2.0790  0.7459  0.0414
 4835TIP3   OH235995   4.911   3.213  13.757  0.0717 -0.4384  0.3363
 4835TIP3    H135996   4.816   3.217  13.763  0.0450 -0.5261 -0.0115
 4835TIP3    H235997   4.942   3.234  13.845 -0.1961  2.5917 -0.1761
 4836TIP3   OH235998   1.548   4.949  12.568 -0.4566 -0.1977  0.3144
 4836TIP3    H135999   1.504   4.986  12.491 -1.0372  0.3426  0.8955
 4836TIP3    H236000   1.626   5.003  12.580  0.0458 -0.7615 -0.3424
 4837TIP3   OH236001   2.510   5.438  10.664  0.0982  0.0400  0.2034
 4837TIP3    H136002   2.420   5.433  10.630 -0.2538  1.7067  0.7991
 4837TIP3    H236003   2.526   5.352  10.703 -0.9171 -0.5714 -0.6754
 4838TIP3   OH236004   6.917   4.875  10.454  0.0206 -0.1675  0.2932
 4838TIP3    H136005   6.988   4.898  10.395 -0.0982 -0.7334 -0.0839
 4838TIP3    H236006   6.948   4.899  10.541 -0.0257  1.1945 -0.0519
 4839TIP3   OH236007   1.649   3.084  13.797  0.1104 -0.3644 -0.4026
 4839TIP3    H136008   1.684   3.165  13.761 -1.3299  0.2615 -0.4697
 4839TIP3    H236009   1.554   3.091  13.784 -0.1392 -1.5795  0.5601
 4840TIP3   OH236010   6.298   5.545   0.650 -0.0177  0.0395 -0.1103
 4840TIP3    H136011   6.244   5.466   0.651 -0.1268  0.1053  1.2336
 4840TIP3    H236012   6.274   5.589   0.568 -0.7486 -0.7758 -0.3546
 4841TIP3   OH236013   5.483   5.465   2.672  0.0204  0.6317  0.1059
 4841TIP3    H136014   5.517   5.415   2.598  0.9283  2.1281 -0.5400
 4841TIP3    H236015   5.457   5.399   2.736 -1.1732 -0.7148 -1.6780
 4842TIP3   OH236016   6.892   2.405   3.472  0.0006 -0.3579 -0.1076
 4842TIP3    H136017   6.831   2.383   3.544  1.4581 -0.9570  1.0006
 4842TIP3    H236018   6.913   2.320   3.433  1.8190 -0.4668  0.9842
 4843TIP3   OH236019   0.019   1.670  13.193  0.5418  0.6048  0.1342
 4843TIP3    H136020   0.073   1.594  13.214  1.3810  0.8593 -1.0145
 4843TIP3    H236021   0.015   1.671  13.097 -3.1230 -0.5207  0.1090
 4844TIP3   OH236022   5.257   6.240  13.172 -0.1078 -0.3945 -0.3027
 4844TIP3    H136023   5.299   6.163  13.211  0.2378 -1.1513 -2.0928
 4844TIP3    H236024   5.180   6.255  13.226 -0.0834 -1.8916  0.1970
 4845TIP3   OH236025   5.411   5.745  14.071  0.0253 -0.1827 -0.2068
 4845TIP3    H136026   5.336   5.693  14.045 -0.0371 -1.1780  1.8059
 4845TIP3    H236027   5.376   5.809  14.134  0.9327 -1.2005  1.4086
 4846TIP3   OH236028   5.105   0.640  12.609 -0.4803  0.0855  0.5881
 4846TIP3    H136029   5.164   0.675  12.542 -1.8101  0.9395 -0.1908
 4846TIP3    H236030   5.153   0.653  12.691  0.5675  0.4012 -0.0478
 4847TIP3   OH236031   4.649   3.924   0.524  0.6343 -0.0067 -0.1448
 4847TIP3    H136032   4.618   4.015   0.523  1.7846  0.4460 -2.3915
 4847TIP3    H236033   4.730   3.927   0.575  0.5395  0.1771 -0.0029
 4848TIP3   OH236034   5.043   6.358  14.273  0.4235 -0.1958  0.0818
 4848TIP3    H136035   5.044   6.264  14.290  0.0043 -0.5902 -1.8958
 4848TIP3    H236036   5.126   6.376  14.229 -0.3470 -0.0196 -1.3362
 4849TIP3   OH236037   0.595   6.991   9.992  0.5804  0.2487  0.0911
 4849TIP3    H136038   0.609   6.907   9.948 -1.9534  0.3793 -1.1930
 4849TIP3    H236039   0.553   6.968  10.075  0.2194  0.1988 -0.1001
 4850TIP3   OH236040   0.778   6.410   9.265  0.1122  0.4684 -0.4917
 4850TIP3    H136041   0.790   6.469   9.190  0.9167 -0.3439 -1.0385
 4850TIP3    H236042   0.687   6.422   9.291  0.4160  2.4076 -0.1786
 4851TIP3   OH236043   3.213   6.139  13.744 -0.4870 -1.0592 -0.3593
 4851TIP3    H136044   3.263   6.075  13.693  0.9864 -0.5984  0.4532
 4851TIP3    H236045   3.266   6.153  13.822 -1.8990 -0.5164  0.5250
 4852TIP3   OH236046   3.208   2.208  11.681 -0.0031 -0.0250 -0.3093
 4852TIP3    H136047   3.242   2.284  11.633  1.0096  1.0667  1.9460
 4852TIP3    H236048   3.285   2.153  11.695 -0.1260  0.0169  0.5978
 4853TIP3   OH236049   3.813   0.720  10.382  0.1083 -0.3835  0.4668
 4853TIP3    H136050   3.863   0.773  10.320  0.2466 -0.5784  0.4099
 4853TIP3    H236051   3.827   0.630  10.353 -1.1411 -0.3888 -0.1872
 4854TIP3   OH236052   2.607   6.297  12.377 -0.0077  0.4625 -0.5632
 4854TIP3    H136053   2.608   6.297  12.281  1.4913  3.1925 -0.6372
 4854TIP3    H236054   2.658   6.374  12.402 -0.1532 -0.2900  2.4640
 4855TIP3   OH236055   1.049   4.858   5.925 -0.5418 -0.2295  0.1319
 4855TIP3    H136056   0.985   4.905   5.873 -0.4782 -0.0734  0.1932
 4855TIP3    H236057   1.001   4.784   5.961 -0.9501  0.4323  0.9837
 4856TIP3   OH236058   1.819   6.107  11.034 -0.0689  0.6873 -0.1920
 4856TIP3    H136059   1.861   6.026  11.059  1.1062  1.0998 -0.7483
 4856TIP3    H236060   1.750   6.120  11.099 -0.9096 -1.2173 -0.6352
 4857TIP3   OH236061   0.574   3.463  11.994 -0.0156 -0.1150  0.4521
 4857TIP3    H136062   0.667   3.470  12.016 -0.0427  2.0668  0.0889
 4857TIP3    H236063   0.571   3.408  11.916  1.1273  0.7744 -0.2515
 4858TIP3   OH236064   0.231   2.528   4.821  0.2534  0.8930  0.0182
 4858TIP3    H136065   0.290   2.517   4.895  0.9921  1.1615 -0.5158
 4858TIP3    H236066   0.188   2.612   4.836 -1.9124 -0.4343  1.7056
 4859TIP3   OH236067   0.429   2.283  11.095  0.3710  0.4851 -1.1096
 4859TIP3    H136068   0.348   2.265  11.143  1.7271 -0.2467  1.0665
 4859TIP3    H236069   0.474   2.199  11.091  1.0559  0.8798 -2.2620
 4860TIP3   OH236070   4.130   4.528  12.759 -0.3922 -0.3084 -0.2972
 4860TIP3    H136071   4.139   4.616  12.796  2.4845 -0.1848 -1.0874
 4860TIP3    H236072   4.127   4.542  12.664 -0.3059 -1.0456 -0.4147
 4861TIP3   OH236073   3.384   3.364   0.204 -0.2255  0.2907  0.0325
 4861TIP3    H136074   3.333   3.358   0.285 -0.8793 -0.0730 -0.3968
 4861TIP3    H236075   3.443   3.289   0.207 -0.4323  0.1284  0.0479
 4862TIP3   OH236076   1.821   5.226   3.632 -0.0789 -0.2821 -0.0947
 4862TIP3    H136077   1.870   5.261   3.557 -0.2299  0.1740  0.0126
 4862TIP3    H236078   1.879   5.240   3.707 -0.8506  1.4564  0.2431
 4863TIP3   OH236079   6.059   6.458  11.759 -0.4246  0.2895 -0.1694
 4863TIP3    H136080   5.984   6.425  11.808 -1.1499  1.7023 -0.2852
 4863TIP3    H236081   6.074   6.393  11.691 -1.7442  0.1356 -0.3361
 4864TIP3   OH236082   5.529   0.155   0.528 -0.2523  0.0159  0.2402
 4864TIP3    H136083   5.589   0.125   0.459 -0.4810 -1.0608  0.4844
 4864TIP3    H236084   5.457   0.197   0.481  0.9160  1.7854 -0.0333
 4865TIP3   OH236085   3.346   6.806  12.769 -0.6321 -0.1238 -0.0834
 4865TIP3    H136086   3.439   6.785  12.778 -0.9509 -1.0871  1.1772
 4865TIP3    H236087   3.311   6.800  12.858 -2.0153 -0.2918 -0.6083
 4866TIP3   OH236088   1.396   0.700   3.950  0.1585  0.8566 -0.2284
 4866TIP3    H136089   1.409   0.614   3.989 -0.3795  1.0759  0.4596
 4866TIP3    H236090   1.379   0.683   3.857  0.3697  0.2475 -0.1548
 4867TIP3   OH236091   5.969   1.683   9.149 -0.3805 -0.4472  0.0061
 4867TIP3    H136092   5.933   1.771   9.142  0.3518 -0.2617 -2.7795
 4867TIP3    H236093   5.906   1.627   9.104 -1.8107 -1.8000  3.3626
 4868TIP3   OH236094   0.815   0.849   0.835  0.0760 -0.3249 -0.6008
 4868TIP3    H136095   0.811   0.871   0.742  0.3512 -0.6004 -0.6795
 4868TIP3    H236096   0.893   0.895   0.867 -0.7796  0.8786 -0.2020
 4869TIP3   OH236097   4.871   2.256  10.336  0.0707 -0.3620 -0.0166
 4869TIP3    H136098   4.965   2.249  10.355 -0.0984 -0.1505  0.9650
 4869TIP3    H236099   4.846   2.168  10.307  0.7202 -0.2236 -1.0419
 4870TIP3   OH236100   4.409   1.264  14.086  0.1946  0.0583 -0.2865
 4870TIP3    H136101   4.393   1.174  14.114  0.4330 -0.0413 -0.4626
 4870TIP3    H236102   4.456   1.304  14.159  0.4670 -0.0867 -0.3787
 4871TIP3   OH236103   2.578   4.361   9.684 -0.4534 -0.3380 -0.4262
 4871TIP3    H136104   2.557   4.267   9.688  1.8017 -0.9798 -2.0037
 4871TIP3    H236105   2.656   4.370   9.739 -1.4985  0.9426  0.9229
 4872TIP3   OH236106   3.146   0.800   2.230 -0.1535 -0.6817 -0.4083
 4872TIP3    H136107   3.117   0.793   2.139 -0.5842 -0.3370 -0.3019
 4872TIP3    H236108   3.087   0.864   2.269 -0.7946 -1.7647  0.4546
 4873TIP3   OH236109   5.616   3.672   0.953  0.1621  0.5034  0.4221
 4873TIP3    H136110   5.594   3.688   0.861  1.6057 -1.0943 -0.2387
 4873TIP3    H236111   5.531   3.655   0.995 -0.5530  1.6445 -0.5005
 4874TIP3   OH236112   2.175   2.938  10.337 -0.0958  0.0420 -0.0929
 4874TIP3    H136113   2.182   3.006  10.269 -1.1126  1.0923  0.8026
 4874TIP3    H236114   2.241   2.874  10.314  0.5906  1.1216 -1.2454
 4875TIP3   OH236115   2.770   1.435  12.159 -0.1817  0.2173  0.1018
 4875TIP3    H136116   2.816   1.494  12.219  1.0510  0.3349 -0.9237
 4875TIP3    H236117   2.819   1.440  12.077 -1.3403 -0.5787 -0.6792
 4876TIP3   OH236118   6.076   4.003   2.250 -0.4912 -0.1924  0.2682
 4876TIP3    H136119   6.116   4.010   2.337  0.3519 -0.2401 -0.1083
 4876TIP3    H236120   6.129   4.061   2.195 -1.0302 -0.1550 -0.2109
 4877TIP3   OH236121   0.951   2.205  11.127  0.6950 -0.1511  0.2011
 4877TIP3    H136122   0.966   2.124  11.174  0.2208 -0.9037 -0.9153
 4877TIP3    H236123   1.039   2.240  11.112  1.0654 -1.5633 -1.1769
 4878TIP3   OH236124   0.728   2.413  10.816  0.6437  0.0380 -0.1385
 4878TIP3    H136125   0.746   2.327  10.853 -1.3547 -0.0897  0.6818
 4878TIP3    H236126   0.705   2.395  10.724 -2.0824 -0.6847  0.5935
 4879TIP3   OH236127   6.592   3.346  14.303  0.0665 -0.0836 -0.7480
 4879TIP3    H136128   6.662   3.281  14.305 -2.1184 -2.6300 -0.6651
 4879TIP3    H236129   6.623   3.413  14.243  3.4475  0.0926  0.9605
 4880TIP3   OH236130   5.718   0.787  11.959 -0.0786  0.2221 -0.5314
 4880TIP3    H136131   5.736   0.880  11.946 -0.2459  0.5330  1.2895
 4880TIP3    H236132   5.626   0.777  11.933 -0.9066  1.1615  1.8095
 4881TIP3   OH236133   1.193   4.285  12.088  0.3587  0.0836  0.6901
 4881TIP3    H136134   1.244   4.304  12.010 -0.6503  2.2880  0.4941
 4881TIP3    H236135   1.250   4.229  12.141  1.0077 -1.6091 -1.6357
 4882TIP3   OH236136   6.362   6.012  10.136 -0.6419 -0.1669 -0.4978
 4882TIP3    H136137   6.304   6.082  10.108  0.4202  0.2756 -1.6878
 4882TIP3    H236138   6.344   5.940  10.075  0.9904  0.4593 -1.8064
 4883TIP3   OH236139   5.304   0.289  11.688 -0.3404 -0.5000 -0.0399
 4883TIP3    H136140   5.281   0.205  11.726 -0.8583 -1.1171 -1.6495
 4883TIP3    H236141   5.395   0.304  11.715 -1.0331 -0.2852  2.4341
 4884TIP3   OH236142   3.229   4.723  11.766  0.5860 -0.4324  0.2763
 4884TIP3    H136143   3.306   4.747  11.714  0.1869 -0.1774 -0.2026
 4884TIP3    H236144   3.252   4.639  11.805  0.7377 -0.8338 -0.6378
 4885TIP3   OH236145   1.096   5.255  14.413 -0.2031 -0.1351 -0.0269
 4885TIP3    H136146   1.148   5.333  14.393  0.4883 -0.3014  1.0249
 4885TIP3    H236147   1.027   5.254  14.347  1.4960 -0.2704 -1.9006
 4886TIP3   OH236148   3.786   1.662  12.393  0.3449  0.7048 -0.6914
 4886TIP3    H136149   3.810   1.638  12.482 -0.1559  1.1358 -0.4374
 4886TIP3    H236150   3.858   1.628  12.339 -0.3551 -1.4154 -0.3707
 4887TIP3   OH236151   6.722   0.403  13.172  0.4049 -0.3006  0.0950
 4887TIP3    H136152   6.742   0.416  13.265 -0.8102 -1.1625  0.5098
 4887TIP3    H236153   6.797   0.440  13.126  0.4746  1.2497  1.3787
 4888TIP3   OH236154   3.345   1.067  14.789 -0.8464 -0.2202 -0.5061
 4888TIP3    H136155   3.319   1.069  14.881 -0.4661 -1.5778 -0.3433
 4888TIP3    H236156   3.290   0.999  14.750 -1.8750  1.1769 -1.5936
 4889TIP3   OH236157   4.152   6.818  14.852 -0.1339 -0.3131  0.9785
 4889TIP3    H136158   4.156   6.726  14.825 -0.8390 -0.3199  0.8811
 4889TIP3    H236159   4.134   6.866  14.771  2.5659  0.1801  0.5747
 4890TIP3   OH236160   0.827   2.438  14.856  0.2217 -0.1795 -0.2586
 4890TIP3    H136161   0.883   2.361  14.843 -1.7312 -1.7021 -0.1661
 4890TIP3    H236162   0.783   2.450  14.772 -1.2635 -0.6783  0.4240
 4891TIP3   OH236163   4.911   6.833  10.134  0.0129  0.3402 -0.7463
 4891TIP3    H136164   4.947   6.921  10.126 -0.3078  0.6858  1.0865
 4891TIP3    H236165   4.822   6.840  10.098 -0.4349  1.0899  0.4513
 4892TIP3   OH236166   6.755   1.759  14.750 -0.5430  0.2833 -0.3782
 4892TIP3    H136167   6.704   1.716  14.682 -0.4718  0.4599 -0.5431
 4892TIP3    H236168   6.690   1.783  14.817 -0.7436  0.8793 -0.7783
 4893TIP3   OH236169   4.238   1.881  10.975 -0.1114 -0.2814  0.3416
 4893TIP3    H136170   4.291   1.961  10.970 -0.2317 -0.2433 -0.4383
 4893TIP3    H236171   4.236   1.859  11.069 -0.2324  0.7251  0.5772
 4894TIP3   OH236172   0.971   7.065  13.189  0.4612 -0.1261  0.1130
 4894TIP3    H136173   0.893   7.119  13.176 -0.4642 -1.5975 -0.7857
 4894TIP3    H236174   1.019   7.109  13.259 -1.3938  0.5845  1.0148
 4895TIP3   OH236175   0.435   0.961  10.622  0.1715  0.3118  0.1530
 4895TIP3    H136176   0.487   0.912  10.558 -0.2539 -0.8775  0.6940
 4895TIP3    H236177   0.375   1.013  10.568  0.2820 -0.1533 -0.4352
 4896TIP3   OH236178   6.270   4.616  14.781  0.3738  0.4676 -0.3520
 4896TIP3    H136179   6.342   4.556  14.801  0.3225  0.9511  1.4256
 4896TIP3    H236180   6.194   4.577  14.823  0.4555  2.0270  1.3227
 4897TIP3   OH236181   4.322   4.586  13.263  0.0405 -0.0152  0.1209
 4897TIP3    H136182   4.411   4.618  13.251 -0.2436  0.9009  0.3526
 4897TIP3    H236183   4.326   4.494  13.238  0.7104  0.3908 -1.3908
 4898TIP3   OH236184   5.898   2.574  13.531  0.1038 -0.1432  0.1575
 4898TIP3    H136185   5.938   2.612  13.609  2.3087 -1.4878 -0.2386
 4898TIP3    H236186   5.887   2.481  13.553 -1.0247 -0.1768 -0.4813
 4899TIP3   OH236187   6.975   4.607  15.478  0.1934 -0.3869 -0.3872
 4899TIP3    H136188   6.931   4.690  15.492 -0.0123 -0.5359 -0.1513
 4899TIP3    H236189   7.036   4.599  15.551 -0.6844 -1.0339  0.2873
 4900TIP3   OH236190   2.561   4.520   0.504 -0.3719  0.1075 -0.8013
 4900TIP3    H136191   2.532   4.500   0.415  0.1043  0.2535 -0.9918
 4900TIP3    H236192   2.616   4.598   0.495 -0.1422 -0.0057 -0.4093
 4901TIP3   OH236193   0.498   0.849  13.959  1.3192  0.0675  0.3115
 4901TIP3    H136194   0.574   0.791  13.964  2.6258  1.7732  1.1962
 4901TIP3    H236195   0.486   0.865  13.866  0.9385 -1.5522  0.0472
 4902TIP3   OH236196   5.217   5.044   1.696  0.0628 -0.0491 -0.1212
 4902TIP3    H136197   5.180   5.131   1.711  0.2751  0.0286 -0.0544
 4902TIP3    H236198   5.300   5.045   1.743 -0.2074 -0.4886  0.3813
 4903TIP3   OH236199   0.076   6.844  11.234 -0.0003  0.1419  0.3271
 4903TIP3    H136200   0.025   6.776  11.278  1.4279  0.1348  2.0824
 4903TIP3    H236201   0.167   6.823  11.254  0.4863  3.2197  2.0203
 4904TIP3   OH236202   5.892   0.433   0.123  0.2681  0.5780  0.1656
 4904TIP3    H136203   5.883   0.338   0.119  1.7783  0.4436 -1.2605
 4904TIP3    H236204   5.839   0.460   0.198 -1.6683 -1.1813 -0.4740
 4905TIP3   OH236205   5.178   0.792  15.594  0.3169 -0.0363 -0.0725
 4905TIP3    H136206   5.084   0.774  15.603 -0.1685  2.1007 -0.2987
 4905TIP3    H236207   5.198   0.767  15.504 -0.1494 -0.0635 -0.1723
 4906TIP3   OH236208   6.216   6.188  12.637  0.6764  0.1272  0.6752
 4906TIP3    H136209   6.137   6.182  12.582 -0.2350 -0.6614  2.0229
 4906TIP3    H236210   6.287   6.157  12.580 -0.2304 -0.6612 -0.0667
 4907TIP3   OH236211   2.502   3.238  12.038 -0.4989 -0.1877 -0.5180
 4907TIP3    H136212   2.475   3.201  12.122 -0.2602 -2.5918 -1.3953
 4907TIP3    H236213   2.440   3.201  11.975  0.0169  0.6415 -1.5413
 4908TIP3   OH236214   1.918   0.510  10.408  0.3126 -0.0769  0.1881
 4908TIP3    H136215   1.835   0.505  10.454  0.7694 -2.6830  0.8655
 4908TIP3    H236216   1.897   0.485  10.318  0.0062  1.6886 -0.2750
 4909TIP3   OH236217   6.568   3.397  11.498 -0.2302 -0.1111 -0.3727
 4909TIP3    H136218   6.529   3.325  11.447 -0.9264 -0.4882  0.6732
 4909TIP3    H236219   6.494   3.452  11.523  0.1254  0.1514  0.1122
 4910TIP3   OH236220   4.475   0.120  11.488  0.4763  0.4154 -0.7502
 4910TIP3    H136221   4.562   0.106  11.526 -0.9177 -2.4574  1.8448
 4910TIP3    H236222   4.440   0.032  11.475 -2.3393  1.4576 -0.9900
 4911TIP3   OH236223   4.381   4.880  15.692  0.1007  0.4806 -0.2243
 4911TIP3    H136224   4.372   4.819  15.619  0.2881  0.1327  0.0425
 4911TIP3    H236225   4.292   4.905  15.714 -0.0223 -0.2668  0.1452
 4912TIP3   OH236226   2.325   5.419   2.347  0.3264 -0.8351 -0.5472
 4912TIP3    H136227   2.397   5.423   2.410 -0.0363  1.9113 -0.1835
 4912TIP3    H236228   2.322   5.506   2.308 -4.2734  0.0734  1.2314
 4913TIP3   OH236229   6.516   5.044  10.403 -0.1160 -0.0661  0.4152
 4913TIP3    H136230   6.497   4.963  10.452  0.5066 -0.5510 -0.1125
 4913TIP3    H236231   6.493   5.114  10.463 -1.1803 -0.6302  0.6903
 4914TIP3   OH236232   6.584   1.346  11.247  1.0863  0.1484 -0.3368
 4914TIP3    H136233   6.629   1.358  11.331  1.0244 -0.8243 -0.1532
 4914TIP3    H236234   6.640   1.286  11.198  0.1998 -0.7841 -0.2506
 4915TIP3   OH236235   2.017   1.433  11.221  0.1622 -0.0909  0.2322
 4915TIP3    H136236   2.111   1.438  11.237  0.3825 -0.9864 -0.7128
 4915TIP3    H236237   1.991   1.348  11.258  0.2491 -1.0955 -1.8896
 4916TIP3   OH236238   3.673   0.245   1.438  0.0051  0.3820 -0.3640
 4916TIP3    H136239   3.671   0.200   1.522  1.1462  0.5209 -0.2447
 4916TIP3    H236240   3.761   0.282   1.433  0.1434 -0.0754 -1.8415
 4917TIP3   OH236241   1.311   2.358  12.286 -0.5383  0.4817  0.3674
 4917TIP3    H136242   1.329   2.432  12.228  0.1193 -2.1751 -3.1476
 4917TIP3    H236243   1.220   2.371  12.314 -1.1717  1.5191 -1.9635
 4918TIP3   OH236244   2.771   1.244  15.086 -0.0372  0.2447 -0.1433
 4918TIP3    H136245   2.836   1.184  15.049 -0.3110  0.8426 -1.6851
 4918TIP3    H236246   2.823   1.308  15.135  0.5465  0.5714 -1.1483
 4919TIP3   OH236247   1.239   7.121   1.420  0.4797 -0.0247 -0.0486
 4919TIP3    H136248   1.282   7.039   1.398 -0.0726 -0.6918  1.2245
 4919TIP3    H236249   1.163   7.126   1.362  1.2024  0.2285 -0.9958
 4920TIP3   OH236250   0.221   6.320   2.929  0.2175 -0.6400  0.0124
 4920TIP3    H136251   0.162   6.391   2.906 -0.2199 -0.8329  0.5038
 4920TIP3    H236252   0.295   6.363   2.973  0.1109 -0.4619  0.0182
 4921TIP3   OH236253   5.027   0.680   0.895  0.5736  0.3802  0.4704
 4921TIP3    H136254   4.971   0.614   0.937 -0.4010  1.7072  1.3318
 4921TIP3    H236255   5.116   0.650   0.914  0.1543 -0.8534  0.5752
 4922TIP3   OH236256   0.000   1.805   0.058  0.0711 -0.2206 -0.2941
 4922TIP3    H136257  -0.008   1.783  -0.035 -0.7644 -0.0136 -0.2721
 4922TIP3    H236258  -0.088   1.797   0.093  0.0843  1.2482  0.1416
 4923TIP3   OH236259   4.413   6.383  11.425  0.4343 -0.2742  0.2048
 4923TIP3    H136260   4.411   6.458  11.485  0.3487 -0.3770  0.3327
 4923TIP3    H236261   4.321   6.356  11.418  0.3522  0.1662 -0.5220
 4924TIP3   OH236262   6.304   1.312  11.221 -0.1665 -0.0156  0.1692
 4924TIP3    H136263   6.392   1.349  11.221  0.6726 -1.6227 -2.8698
 4924TIP3    H236264   6.294   1.273  11.307  2.3213 -0.2141  0.4380
 4925TIP3   OH236265   2.333   0.664   2.173  0.9361 -0.0910 -0.0460
 4925TIP3    H136266   2.288   0.743   2.143 -0.8924 -1.3637 -0.8532
 4925TIP3    H236267   2.344   0.612   2.094  1.3685 -1.0059  0.6068
 4926TIP3   OH236268   2.293   2.964  14.231  0.6124  0.0221 -0.1058
 4926TIP3    H136269   2.251   2.878  14.227  1.5971 -0.6544  2.2827
 4926TIP3    H236270   2.220   3.026  14.239 -0.0399 -0.8614  0.9883
 4927TIP3   OH236271   3.970   3.439  10.243  0.0649 -0.0256  0.1338
 4927TIP3    H136272   3.951   3.357  10.198 -1.6401  1.2401 -1.6307
 4927TIP3    H236273   3.887   3.486  10.244  0.9642  1.6755  1.1466
 4928TIP3   OH236274   6.303   0.216  13.558  0.1117  0.0514  0.1856
 4928TIP3    H136275   6.331   0.149  13.495 -1.2322 -1.3801  1.0499
 4928TIP3    H236276   6.235   0.264  13.512  0.0261 -0.1604  0.0883
 4929TIP3   OH236277   2.868   2.471  15.663  0.4254  0.3661 -0.1748
 4929TIP3    H136278   2.956   2.488  15.696  0.2124  0.9887  0.0868
 4929TIP3    H236279   2.882   2.422  15.582  0.9258 -3.7261  2.1184
 4930TIP3   OH236280   6.649   2.645  13.331 -0.0433  0.0115  0.1610
 4930TIP3    H136281   6.725   2.691  13.296 -0.3772  0.0786 -0.4887
 4930TIP3    H236282   6.583   2.652  13.262 -1.5112  2.1129  1.6477
 4931TIP3   OH236283   2.572   6.510  15.569 -0.1168 -0.1485  0.0159
 4931TIP3    H136284   2.647   6.522  15.511  0.7917 -1.1628  0.9370
 4931TIP3    H236285   2.607   6.523  15.657 -1.0732 -0.4126  0.4506
 4932TIP3   OH236286   4.520   0.013  15.690  0.8948  0.5937 -0.4375
 4932TIP3    H136287   4.427   0.029  15.709  0.9585 -1.7914  2.7304
 4932TIP3    H236288   4.525   0.011  15.595 -2.8837 -1.7604 -0.7872
 4933TIP3   OH236289   3.036   1.863  12.689  0.3998 -0.3400  0.2631
 4933TIP3    H136290   3.128   1.837  12.681  0.5153  0.0127  0.4367
 4933TIP3    H236291   3.038   1.958  12.681  0.4894  0.1011  4.0089
 4934TIP3   OH236292   2.579   1.995  15.031 -0.2095 -0.2721  0.4979
 4934TIP3    H136293   2.496   2.013  14.987  0.5291  1.0474 -0.4599
 4934TIP3    H236294   2.565   2.024  15.121 -1.0235 -0.7872  0.5410
 4935TIP3   OH236295   6.017   6.045  11.900  0.6795 -0.6724 -0.3822
 4935TIP3    H136296   6.081   6.104  11.859  0.6409 -1.1248 -1.0956
 4935TIP3    H236297   5.945   6.040  11.837  0.5878 -1.3237 -0.2260
 4936TIP3   OH236298   4.626   5.538  12.356  0.2668  1.1716 -0.0841
 4936TIP3    H136299   4.559   5.471  12.348  0.3972  1.1570 -1.2473
 4936TIP3    H236300   4.608   5.580  12.440  0.1080 -0.2233  0.6102
 4937TIP3   OH236301   6.702   2.338  10.679 -0.4954 -0.4289  0.5410
 4937TIP3    H136302   6.769   2.367  10.617 -1.0894 -0.7510 -0.2698
 4937TIP3    H236303   6.731   2.251  10.707 -1.1655 -1.1004 -0.7470
 4938TIP3   OH236304   5.645   6.762  13.605  0.4673 -0.4641  0.2214
 4938TIP3    H136305   5.718   6.814  13.638 -0.4452  0.2393  1.2205
 4938TIP3    H236306   5.679   6.719  13.527  1.2493  1.6401 -0.6661
 4939TIP3   OH236307   2.711   0.337   1.938 -0.1961  0.3733  0.3616
 4939TIP3    H136308   2.782   0.296   1.889 -0.5099 -0.1268  0.3250
 4939TIP3    H236309   2.718   0.430   1.915 -0.1516  0.1928 -0.3991
 4940TIP3   OH236310   2.899   3.490  15.348 -0.2026 -0.3407 -0.1994
 4940TIP3    H136311   2.981   3.498  15.300  0.0468 -1.4486  0.0205
 4940TIP3    H236312   2.915   3.534  15.431  0.7063 -1.8646  0.4744
 4941TIP3   OH236313   5.402   6.201  12.567 -0.7901  0.3357  0.3655
 4941TIP3    H136314   5.388   6.288  12.530 -0.3379  1.3061  2.3688
 4941TIP3    H236315   5.370   6.141  12.499  1.5054  1.8961 -2.2845
 4942TIP3   OH236316   6.881   5.851   1.733 -0.3028  0.0830 -0.4537
 4942TIP3    H136317   6.805   5.878   1.786 -0.7573 -0.5540 -0.7674
 4942TIP3    H236318   6.955   5.854   1.794 -0.7356 -0.1647  0.0949
 4943TIP3   OH236319   6.347   5.730  10.057  0.1463 -0.0179  0.2531
 4943TIP3    H136320   6.381   5.757  10.142  0.5711 -0.6130  0.2893
 4943TIP3    H236321   6.419   5.678  10.019 -0.4013 -0.5605 -0.0540
 4944TIP3   OH236322   5.171   1.169   4.684 -0.4605 -0.4790  0.2844
 4944TIP3    H136323   5.242   1.139   4.741 -0.6876 -1.9076 -0.1478
 4944TIP3    H236324   5.118   1.225   4.740  1.0144  0.6844  0.5971
 4945TIP3   OH236325   0.952   2.025   0.115 -0.3791  0.2346 -0.1516
 4945TIP3    H136326   0.986   1.948   0.070  1.1258  0.8255 -0.1059
 4945TIP3    H236327   1.030   2.070   0.148 -1.3606  0.4760  2.0052
 4946TIP3   OH236328   1.410   5.880   2.303 -0.1907  0.3287 -0.0031
 4946TIP3    H136329   1.373   5.889   2.216  0.6929 -3.1377 -0.8705
 4946TIP3    H236330   1.505   5.885   2.290 -0.0681  1.2342  1.0338
 4947TIP3   OH236331   6.871   0.768   1.269 -0.4715  0.0258  0.4435
 4947TIP3    H136332   6.879   0.805   1.181  0.0783 -1.9835 -0.4062
 4947TIP3    H236333   6.777   0.775   1.289 -0.6114  0.4609 -0.3212
 4948TIP3   OH236334   5.214   1.931  11.243 -0.2891 -0.1234 -0.2658
 4948TIP3    H136335   5.306   1.933  11.217  0.3368 -0.3385  1.7714
 4948TIP3    H236336   5.215   1.901  11.334 -2.4262 -0.6672 -0.3667
 4949TIP3   OH236337   3.183   0.528  13.478  0.1430 -0.3689  0.4314
 4949TIP3    H136338   3.118   0.594  13.503 -0.4456 -1.0331  0.6901
 4949TIP3    H236339   3.265   0.576  13.470 -0.1776  0.3046  1.1078
 4950TIP3   OH236340   6.069   3.671  14.918 -0.7504  0.7232 -0.2200
 4950TIP3    H136341   6.146   3.671  14.975 -1.3365  1.9944  0.6027
 4950TIP3    H236342   6.106   3.672  14.829  0.1664 -1.3344  0.0877
 4951TIP3   OH236343   0.860   6.738   9.900 -0.1129  0.2023 -0.3261
 4951TIP3    H136344   0.892   6.720   9.812 -1.4498 -1.5790 -0.4951
 4951TIP3    H236345   0.880   6.659   9.950 -0.4340  0.7235  0.6595
 4952TIP3   OH236346   4.149   4.938  13.689 -0.8013 -0.2261  0.2918
 4952TIP3    H136347   4.093   4.985  13.751 -0.9403 -0.4304  0.3208
 4952TIP3    H236348   4.172   4.857  13.734 -0.8501 -0.3469  0.1009
 4953TIP3   OH236349   1.032   1.809  12.824  0.2098  0.5316  0.1983
 4953TIP3    H136350   1.053   1.781  12.735  0.3137 -0.0072  0.3891
 4953TIP3    H236351   1.095   1.762  12.879 -1.1956 -0.7679  0.7503
 4954TIP3   OH236352   3.390   5.852  10.114 -0.2531  0.8204 -0.3361
 4954TIP3    H136353   3.330   5.923  10.135  0.1256  1.6420 -1.9130
 4954TIP3    H236354   3.477   5.891  10.122  0.2414 -0.5386  2.6515
 4955TIP3   OH236355   5.548   3.836  11.384 -0.3767  0.6835  0.2327
 4955TIP3    H136356   5.625   3.884  11.353 -1.1759  0.4351 -2.4029
 4955TIP3    H236357   5.581   3.748  11.403  0.0243  0.5551 -0.9510
 4956TIP3   OH236358   5.817   5.110   0.331  0.6594  0.0975 -0.3664
 4956TIP3    H136359   5.772   5.193   0.317 -0.6355 -0.6233 -0.6846
 4956TIP3    H236360   5.797   5.087   0.422  3.9186  1.7674  0.9318
 4957TIP3   OH236361   2.138   2.081  14.713 -0.5404 -0.4548  0.2418
 4957TIP3    H136362   2.133   1.986  14.703 -1.8816 -0.6222  2.0343
 4957TIP3    H236363   2.047   2.110  14.714 -0.1497  0.8945 -0.4474
 4958TIP3   OH236364   1.097   1.652   2.336  0.5878  0.4158  0.3250
 4958TIP3    H136365   1.082   1.558   2.339  0.9539  0.3160 -0.4951
 4958TIP3    H236366   1.030   1.685   2.277  0.6611  0.6229  0.3565
 4959TIP3   OH236367   4.513   5.924  15.439  0.3960  0.4541  0.1234
 4959TIP3    H136368   4.527   6.005  15.488 -1.2657  0.3921  0.7615
 4959TIP3    H236369   4.427   5.893  15.467  0.0111 -0.3607 -1.7599
 4960TIP3   OH236370   0.746   6.062  10.994  0.1126 -0.1770  0.3705
 4960TIP3    H136371   0.840   6.074  11.007  0.6545 -2.1634 -1.2367
 4960TIP3    H236372   0.714   6.026  11.076  0.7626  0.3726  0.8744
 4961TIP3   OH236373   2.709   1.019  11.742 -0.1736  0.4276 -0.0346
 4961TIP3    H136374   2.765   1.074  11.797  0.2657  0.7338 -0.7668
 4961TIP3    H236375   2.770   0.970  11.687 -0.6011  0.0183 -0.1522
 4962TIP3   OH236376   5.219   1.418   0.815  0.2200 -0.4253 -0.3167
 4962TIP3    H136377   5.165   1.476   0.869 -2.3506 -1.5298 -1.5337
 4962TIP3    H236378   5.278   1.375   0.877 -0.5887  0.5006  1.1609
 4963TIP3   OH236379   1.613   2.466  11.806 -0.0802 -0.2565 -0.1825
 4963TIP3    H136380   1.576   2.508  11.884 -0.5565 -0.0350 -0.5210
 4963TIP3    H236381   1.683   2.525  11.778 -0.4731  0.1135 -0.4118
 4964TIP3   OH236382   4.433   6.594   1.428 -0.2196  0.0115  0.0150
 4964TIP3    H136383   4.524   6.595   1.397  1.2142 -2.5070  3.5596
 4964TIP3    H236384   4.422   6.677   1.474  0.8551 -0.2795  0.8351
 4965TIP3   OH236385   7.111   2.137  13.547  0.2465  0.7277  0.3672
 4965TIP3    H136386   7.032   2.086  13.563  0.2229  0.6702  0.0778
 4965TIP3    H236387   7.082   2.213  13.497  0.1270  1.5620  1.6660
 4966TIP3   OH236388   6.753   5.443  12.689 -0.2965 -0.1155  0.2543
 4966TIP3    H136389   6.688   5.511  12.673 -0.4282 -0.2877  0.0522
 4966TIP3    H236390   6.769   5.446  12.783 -0.4700  0.0439  0.2787
 4967TIP3   OH236391   0.412   1.466  13.813  0.0262 -0.5039  0.6545
 4967TIP3    H136392   0.387   1.496  13.725  0.9145 -2.9130 -0.5167
 4967TIP3    H236393   0.470   1.535  13.846  0.3633  0.0629 -1.0161
 4968TIP3   OH236394   3.083   1.486  10.346 -0.0178  0.2350 -0.2960
 4968TIP3    H136395   3.082   1.390  10.351  1.3838  0.2301  0.4486
 4968TIP3    H236396   3.103   1.505  10.254  0.7760 -0.2029 -0.2163
 4969TIP3   OH236397   3.479   3.371   5.515 -0.0316  0.1519 -0.1121
 4969TIP3    H136398   3.471   3.304   5.584  1.9090  0.2962  0.3361
 4969TIP3    H236399   3.449   3.452   5.556  0.3360  0.0775  0.3164
 4970TIP3   OH236400   5.470   5.110  11.044 -0.1502  0.3517 -0.4166
 4970TIP3    H136401   5.408   5.095  10.972 -0.6015 -0.8600  0.1869
 4970TIP3    H236402   5.536   5.041  11.034 -0.6815 -0.3741  0.7846
 4971TIP3   OH236403   2.894   3.299  15.016  0.2073 -0.3009 -0.3205
 4971TIP3    H136404   2.978   3.280  14.975 -0.1127 -0.4013 -0.9484
 4971TIP3    H236405   2.891   3.242  15.093  0.6803 -0.3465 -0.3358
 4972TIP3   OH236406   5.219   2.586   1.146 -0.3504  0.4868 -0.5152
 4972TIP3    H136407   5.278   2.661   1.146  2.3831 -1.4037 -2.9742
 4972TIP3    H236408   5.234   2.544   1.230  1.6523  0.2882 -0.9014
 4973TIP3   OH236409   4.666   1.086  13.508 -0.1860 -0.5889  0.3978
 4973TIP3    H136410   4.696   1.089  13.418 -3.9275  1.5605 -1.0530
 4973TIP3    H236411   4.685   0.998  13.538  2.4808 -0.9305 -1.9400
 4974TIP3   OH236412   0.710   3.775   5.654 -0.7981 -0.5102  0.0496
 4974TIP3    H136413   0.767   3.761   5.729 -0.2706  2.0882  0.2453
 4974TIP3    H236414   0.763   3.823   5.591 -2.0698 -0.0814 -0.7488
 4975TIP3   OH236415   6.939   0.234  11.484  0.7044 -0.2040 -0.3668
 4975TIP3    H136416   6.898   0.194  11.561  1.5886 -2.0310 -0.7895
 4975TIP3    H236417   7.012   0.285  11.520 -0.9555  1.8562  0.2557
 4976TIP3   OH236418   0.270   3.832  14.600  0.2875  0.6506  0.2407
 4976TIP3    H136419   0.318   3.914  14.613  1.9642 -0.3187  0.3163
 4976TIP3    H236420   0.257   3.827  14.505 -0.4994  1.3472  0.2946
 4977TIP3   OH236421   6.535   5.616   9.867 -0.3686  0.0658 -0.3594
 4977TIP3    H136422   6.602   5.547   9.864  0.9582  1.3378 -1.8644
 4977TIP3    H236423   6.478   5.598   9.792  0.5447  1.0829 -1.3398
 4978TIP3   OH236424   2.543   0.766   4.943  0.1378 -0.0831  0.1841
 4978TIP3    H136425   2.502   0.704   5.003  1.2146 -0.2079  0.8086
 4978TIP3    H236426   2.570   0.839   4.998 -0.0742  0.4148 -0.3642
 4979TIP3   OH236427   3.379   0.150  10.959  0.0693 -0.0978  0.3837
 4979TIP3    H136428   3.294   0.111  10.979 -0.7717  1.0881 -0.6870
 4979TIP3    H236429   3.416   0.173  11.044 -1.2666  0.5164  0.8270
 4980TIP3   OH236430   5.344   0.267   0.369 -0.0697  0.4126  0.1778
 4980TIP3    H136431   5.417   0.307   0.321  0.6287 -0.1181  0.7734
 4980TIP3    H236432   5.289   0.229   0.300  1.9278 -2.0668 -0.2109
 4981TIP3   OH236433   6.265   0.867  11.317 -0.1387 -0.2813  0.0195
 4981TIP3    H136434   6.273   0.851  11.411 -0.7390  2.7647  0.7186
 4981TIP3    H236435   6.354   0.887  11.289 -0.4018  2.5810  0.8862
 4982TIP3   OH236436   2.132   4.519  11.231 -0.3617  0.5488 -0.2187
 4982TIP3    H136437   2.185   4.460  11.177 -0.5673  0.9249 -0.8439
 4982TIP3    H236438   2.165   4.506  11.320 -1.5599 -1.7958 -0.0438
 4983TIP3   OH236439   1.333   6.198  13.973 -0.6204 -0.6271 -0.0282
 4983TIP3    H136440   1.404   6.245  14.017 -0.8353 -0.5175  0.2024
 4983TIP3    H236441   1.377   6.139  13.912 -0.3185 -0.9096  0.4625
 4984TIP3   OH236442   5.909   6.410  10.387 -0.0264  0.0925 -0.1536
 4984TIP3    H136443   5.980   6.453  10.339 -0.1715  1.1356  0.5427
 4984TIP3    H236444   5.848   6.382  10.319  0.9663 -0.7163 -0.7585
 4985TIP3   OH236445   5.174   4.103   0.060  0.5650 -0.0560 -0.7095
 4985TIP3    H136446   5.119   4.025   0.070 -2.0585  1.7383 -0.0497
 4985TIP3    H236447   5.122   4.163   0.007  1.4313  2.1063  0.7207
 4986TIP3   OH236448   1.784   6.150  12.882 -0.1911 -0.3221 -0.3047
 4986TIP3    H136449   1.767   6.137  12.789  0.6231 -0.0302 -0.5111
 4986TIP3    H236450   1.739   6.232  12.904 -0.5302 -0.4846 -0.3997
 4987TIP3   OH236451   6.572   3.817  10.623  0.2011 -1.1142  0.9024
 4987TIP3    H136452   6.507   3.748  10.604  1.1430 -1.5843 -0.7555
 4987TIP3    H236453   6.656   3.771  10.622  0.7663 -0.0856  0.6197
 4988TIP3   OH236454   2.676   4.874  10.749  0.2409 -0.3638  0.2930
 4988TIP3    H136455   2.649   4.919  10.829 -2.1144  1.8595 -1.5630
 4988TIP3    H236456   2.600   4.822  10.723  0.3081  0.2814 -1.3285
 4989TIP3   OH236457   6.759   0.147   9.680 -0.1214  0.2357 -0.8676
 4989TIP3    H136458   6.836   0.204   9.671  0.4656 -0.3384  0.2863
 4989TIP3    H236459   6.715   0.152   9.595  1.8114 -0.3180 -1.9586
 4990TIP3   OH236460   5.375   4.018  10.221 -0.3198  0.4201  0.1559
 4990TIP3    H136461   5.394   3.999  10.313  0.2406  1.4653  0.2619
 4990TIP3    H236462   5.284   4.048  10.221 -0.1512  0.9354  0.4453
 4991TIP3   OH236463   3.599   3.545  14.091 -0.1511 -0.0233  0.5945
 4991TIP3    H136464   3.562   3.629  14.117 -1.1604 -0.1518 -0.3023
 4991TIP3    H236465   3.539   3.513  14.023 -0.2495 -1.8345  1.4649
 4992TIP3   OH236466   0.908   0.213  11.980 -0.4924  0.1098 -0.1394
 4992TIP3    H136467   0.919   0.298  11.937 -1.3006  0.7745  0.9117
 4992TIP3    H236468   0.816   0.190  11.966 -0.8185  0.4169  1.3010
 4993TIP3   OH236469   4.019   4.020  12.048 -0.0687 -0.5755 -0.1762
 4993TIP3    H136470   4.031   4.098  11.994 -0.7192 -0.3264  0.0332
 4993TIP3    H236471   4.047   4.047  12.136 -2.0700  0.0261  0.3292
 4994TIP3   OH236472   2.496   1.152  10.471  0.9646  0.1517 -0.0033
 4994TIP3    H136473   2.567   1.093  10.496  0.4020 -0.2016  0.8092
 4994TIP3    H236474   2.419   1.117  10.516  0.6610  1.6122  0.6741
 4995TIP3   OH236475   1.498   6.633  14.552 -0.6997  0.7785  0.2331
 4995TIP3    H136476   1.516   6.571  14.622  0.1269  0.8197  0.0720
 4995TIP3    H236477   1.520   6.718  14.589 -1.6211  0.9632  0.3822
 4996TIP3   OH236478   1.396   5.355  12.257  0.0747  0.4644 -0.4303
 4996TIP3    H136479   1.363   5.444  12.246 -0.7112  0.5731  2.1955
 4996TIP3    H236480   1.318   5.302  12.276  0.8522 -0.1237  1.3547
 4997TIP3   OH236481   5.070   5.374  15.356 -0.6350  0.0371  0.1884
 4997TIP3    H136482   4.985   5.345  15.323 -0.8738 -0.1574  0.9580
 4997TIP3    H236483   5.065   5.470  15.355 -0.2182  0.0812 -1.3863
 4998TIP3   OH236484   1.315   3.913  13.403  0.3915 -0.1297 -0.2901
 4998TIP3    H136485   1.231   3.945  13.437  0.6168  0.2660 -0.1006
 4998TIP3    H236486   1.299   3.902  13.309  0.3324  0.6508 -0.3836
 4999TIP3   OH236487   3.822   2.937   3.132  0.1925 -0.1501 -0.2297
 4999TIP3    H136488   3.805   2.993   3.056 -1.3501  1.3830  1.1763
 4999TIP3    H236489   3.915   2.950   3.150  0.7128 -0.9551 -2.1446
 5000TIP3   OH236490   5.848   0.608  12.670 -0.6750  0.4028 -0.3905
 5000TIP3    H136491   5.869   0.678  12.733 -2.2915  0.7578 -0.1962
 5000TIP3    H236492   5.909   0.537  12.692  0.5582  1.4920 -0.1589
 5001TIP3   OH236493   0.766   2.637  14.112 -0.7231 -0.5693 -0.3851
 5001TIP3    H136494   0.681   2.680  14.097 -0.9990 -1.0218 -0.1371
 5001TIP3    H236495   0.779   2.582  14.035  0.4658  1.2414 -1.5783
 5002TIP3   OH236496   5.939   0.113   1.542 -0.2323  0.2258  0.6104
 5002TIP3    H136497   5.940   0.020   1.564  2.8883  0.4017  1.6175
 5002TIP3    H236498   5.982   0.117   1.456  0.1156  0.7919  0.8115
 5003TIP3   OH236499   5.935   1.978  12.874  0.4541  0.2308 -0.2524
 5003TIP3    H136500   6.011   2.035  12.869  0.1957  0.7927  1.4613
 5003TIP3    H236501   5.862   2.036  12.896 -0.2330 -0.4657 -0.6234
 5004TIP3   OH236502   1.670   3.601  10.563 -0.3906 -0.3326 -0.0977
 5004TIP3    H136503   1.638   3.522  10.607 -3.7209  1.4287  1.0209
 5004TIP3    H236504   1.622   3.603  10.480  1.7571 -0.7930 -1.4375
 5005TIP3   OH236505   3.445   2.154  10.896 -0.0351  1.1014 -0.7689
 5005TIP3    H136506   3.385   2.153  10.970 -0.8452 -0.6857 -1.3792
 5005TIP3    H236507   3.531   2.137  10.934 -0.5751 -0.8446 -0.2609
 5006TIP3   OH236508   0.007   2.728  11.328  0.1590 -0.2636  0.5763
 5006TIP3    H136509  -0.013   2.775  11.247 -3.0144 -2.9909 -0.4548
 5006TIP3    H236510   0.057   2.652  11.300 -0.7676 -1.1089  1.1532
 5007TIP3   OH236511   1.321   1.303   0.641 -0.2497  0.0658  0.6004
 5007TIP3    H136512   1.394   1.349   0.600  0.5412  0.5476  2.4486
 5007TIP3    H236513   1.354   1.214   0.657 -0.0294  0.2875  1.4480
 5008TIP3   OH236514   0.036   6.998   5.334  0.5528 -0.3511  0.1440
 5008TIP3    H136515  -0.010   7.072   5.374 -1.0153 -0.7177 -0.9106
 5008TIP3    H236516   0.088   6.961   5.405 -0.7843  0.0959  1.4046
 5009TIP3   OH236517   2.666   2.502   2.921  0.1566 -0.0724  0.1227
 5009TIP3    H136518   2.655   2.520   3.014  0.1411  0.7407 -0.0310
 5009TIP3    H236519   2.754   2.465   2.914  0.9758  1.7679  0.2176
 5010TIP3   OH236520   3.835   0.593  15.120  0.1627  0.0275  0.4498
 5010TIP3    H136521   3.919   0.547  15.114  1.0241  1.5019  0.6972
 5010TIP3    H236522   3.841   0.662  15.054 -1.2688 -0.4535 -0.2132
 5011TIP3   OH236523   5.275   3.512   9.935  0.1712 -0.7583  0.4409
 5011TIP3    H136524   5.249   3.565  10.010 -2.3721 -0.1393 -0.7462
 5011TIP3    H236525   5.285   3.576   9.864  2.9905 -1.2724  0.2649
 5012TIP3   OH236526   2.463   6.766   2.679 -0.2587 -0.2429  0.2158
 5012TIP3    H136527   2.457   6.854   2.644 -0.7661 -0.2802  0.2090
 5012TIP3    H236528   2.412   6.712   2.618 -0.8501 -0.3649  0.8113
 5013TIP3   OH236529   1.656   4.406  13.056 -0.3235  0.5897 -0.5511
 5013TIP3    H136530   1.654   4.360  13.140 -1.2682 -1.1029 -1.4422
 5013TIP3    H236531   1.607   4.487  13.072 -0.6384  0.2107  0.4990
 5014TIP3   OH236532   3.458   4.649   0.457  0.0832  0.4231  0.2381
 5014TIP3    H136533   3.538   4.641   0.405 -0.0223  0.8876 -0.0001
 5014TIP3    H236534   3.432   4.559   0.474 -1.4708  0.1212 -2.9765
 5015TIP3   OH236535   6.106   5.643  10.243 -0.0577  0.6955  0.1686
 5015TIP3    H136536   6.192   5.637  10.285 -0.3232  0.9248  0.7470
 5015TIP3    H236537   6.124   5.687  10.159  0.3503  0.9694  0.3950
 5016TIP3   OH236538   2.339   5.041  15.280 -0.0668 -0.0466 -0.2838
 5016TIP3    H136539   2.267   5.085  15.235  0.8588  1.1501 -0.6414
 5016TIP3    H236540   2.329   4.949  15.255 -1.4842  0.0843 -0.2954
 5017TIP3   OH236541   5.775   5.715  11.924 -0.1451  0.3204  0.9219
 5017TIP3    H136542   5.779   5.770  12.002  2.2491  1.0314  0.3967
 5017TIP3    H236543   5.779   5.776  11.851  1.8955 -0.4315  0.3216
 5018TIP3   OH236544   0.943   1.256  14.438  0.5259 -0.4373 -0.2438
 5018TIP3    H136545   0.886   1.303  14.376  0.4876 -0.4830 -0.2438
 5018TIP3    H236546   0.883   1.199  14.486 -0.2849  2.8918  3.1298
 5019TIP3   OH236547   6.204   2.731  12.991  0.1926 -0.1007  0.7320
 5019TIP3    H136548   6.233   2.683  12.913 -1.1343 -0.2002  0.2692
 5019TIP3    H236549   6.199   2.665  13.059 -1.5281 -0.6612  0.1227
 5020TIP3   OH236550   6.407   4.161  12.720  0.4258 -0.4443 -0.2248
 5020TIP3    H136551   6.349   4.198  12.786  0.4884 -0.8121  0.0416
 5020TIP3    H236552   6.446   4.237  12.677  0.3240 -0.2006  0.1093
 5021TIP3   OH236553   4.264   0.257   1.059 -0.6103 -0.4410  0.3141
 5021TIP3    H136554   4.229   0.189   1.003 -1.0783 -0.9844  1.2467
 5021TIP3    H236555   4.190   0.285   1.113 -0.5212  1.0747 -0.2993
 5022TIP3   OH236556   1.068   4.325   0.655 -0.4350 -0.0983 -0.2136
 5022TIP3    H136557   1.087   4.346   0.747  0.0403  1.3308 -0.6053
 5022TIP3    H236558   1.119   4.390   0.605 -0.3475 -1.1221 -1.4994
 5023TIP3   OH236559   2.426   5.043  10.412 -0.3689 -0.0495  0.2205
 5023TIP3    H136560   2.412   4.998  10.329 -1.0331  0.0862  0.2566
 5023TIP3    H236561   2.419   5.136  10.390 -1.5453 -0.0317  0.5928
 5024TIP3   OH236562   5.931   2.576  12.904 -0.8826  0.0314  0.3617
 5024TIP3    H136563   5.853   2.603  12.953 -2.0263  0.7523 -1.6993
 5024TIP3    H236564   5.905   2.494  12.861 -0.3650  0.0692 -0.0329
 5025TIP3   OH236565   5.757   1.759   2.947  0.5339  0.7427  0.2898
 5025TIP3    H136566   5.724   1.843   2.914 -1.4695  0.0854  0.4942
 5025TIP3    H236567   5.779   1.709   2.868  0.3076  0.9077  0.1208
 5026TIP3   OH236568   1.853   0.421  10.137  0.0614 -0.1228 -0.0144
 5026TIP3    H136569   1.913   0.439  10.064  0.8775  0.2508  0.7332
 5026TIP3    H236570   1.766   0.445  10.103  0.1254 -1.8043 -1.5138
 5027TIP3   OH236571   4.922   0.845  12.282  0.2051  0.3686  0.1485
 5027TIP3    H136572   4.900   0.785  12.211 -0.8547  0.4493  0.4022
 5027TIP3    H236573   5.013   0.870  12.264  0.1986 -0.2021 -0.7469
 5028TIP3   OH236574   1.363   1.776   5.328  0.3937  0.0989 -0.0376
 5028TIP3    H136575   1.353   1.716   5.402  0.2518 -0.1449 -0.2558
 5028TIP3    H236576   1.343   1.724   5.251  2.8756 -0.3044 -0.4949
 5029TIP3   OH236577   3.326   4.401   0.249  0.0158 -0.5573  0.1612
 5029TIP3    H136578   3.255   4.364   0.301 -0.1750  0.2226  0.4760
 5029TIP3    H236579   3.284   4.432   0.169  0.2297 -1.3024 -0.2529
 5030TIP3   OH236580   6.693   3.149   0.510 -0.2264 -0.0222 -0.7676
 5030TIP3    H136581   6.638   3.216   0.549 -0.0754  0.2456 -1.0122
 5030TIP3    H236582   6.702   3.082   0.578  0.3855  0.6424 -0.1862
 5031TIP3   OH236583   4.568   1.677  13.612 -0.1561 -0.4418  0.1761
 5031TIP3    H136584   4.483   1.713  13.587  0.0414  0.1848  0.3947
 5031TIP3    H236585   4.564   1.585  13.585 -1.3426 -0.7265  1.2469
 5032TIP3   OH236586   6.923   2.817  13.528  0.5924  0.4946  0.8131
 5032TIP3    H136587   6.942   2.828  13.621  0.3408  0.7909  0.8321
 5032TIP3    H236588   6.913   2.906  13.495  1.8544  0.4486  0.2455
 5033TIP3   OH236589   0.393   5.770  10.579 -0.2302  0.3456 -0.1387
 5033TIP3    H136590   0.432   5.813  10.655  0.4005  1.1134 -0.8766
 5033TIP3    H236591   0.442   5.688  10.569  1.0093  1.1419 -0.8566
 5034TIP3   OH236592   2.083   4.276  15.066 -0.0768 -0.3722  0.6672
 5034TIP3    H136593   2.007   4.222  15.089  0.7339 -1.0799  1.7683
 5034TIP3    H236594   2.120   4.235  14.989  0.1046 -0.9745  1.0684
 5035TIP3   OH236595   1.478   0.824  12.487  0.0980 -0.2648  0.4655
 5035TIP3    H136596   1.391   0.785  12.498 -0.4682  1.3891  2.6716
 5035TIP3    H236597   1.483   0.845  12.394 -1.6584 -0.8348  0.1923
 5036TIP3   OH236598   2.598   0.215  13.471 -0.1430 -0.4070 -0.3276
 5036TIP3    H136599   2.688   0.240  13.490  0.0071  0.1036 -1.5974
 5036TIP3    H236600   2.557   0.203  13.557  1.2186 -1.0087  0.2639
 5037TIP3   OH236601   5.602   6.871   3.113  0.1397  0.4572 -0.4170
 5037TIP3    H136602   5.564   6.897   3.029  0.0976  0.4047 -0.4135
 5037TIP3    H236603   5.633   6.782   3.099 -0.5015  0.1897 -0.1633
 5038TIP3   OH236604   5.179   3.667  10.148  0.3092 -0.2847 -0.0889
 5038TIP3    H136605   5.169   3.753  10.107  0.3823 -0.1672  0.1397
 5038TIP3    H236606   5.108   3.662  10.212  0.7693 -0.0789  0.4445
 5039TIP3   OH236607   2.198   4.243   1.486  0.4544 -0.0571  1.0393
 5039TIP3    H136608   2.219   4.333   1.461 -0.6168  0.7803  2.9718
 5039TIP3    H236609   2.283   4.200   1.492  0.9942  0.8460  0.2047
 5040TIP3   OH236610   0.743   3.705  14.765 -0.1825 -0.4808 -0.2267
 5040TIP3    H136611   0.824   3.673  14.725  0.0164 -0.1693 -0.0732
 5040TIP3    H236612   0.703   3.762  14.700  0.6432  0.8293  0.3786
 5041TIP3   OH236613   6.396   6.134   1.396 -0.7380 -0.2227  0.4240
 5041TIP3    H136614   6.403   6.224   1.427 -2.4114  1.0692 -2.6482
 5041TIP3    H236615   6.471   6.122   1.338 -0.9916 -0.5325  0.1524
 5042TIP3   OH236616   5.346   1.654  13.992  0.4602 -0.3118  0.2562
 5042TIP3    H136617   5.420   1.696  13.950  0.0533  1.0829  0.8920
 5042TIP3    H236618   5.385   1.598  14.059  0.9346  0.6730  0.8187
 5043TIP3   OH236619   3.470   5.360   1.710 -0.2446  0.4592 -0.1299
 5043TIP3    H136620   3.415   5.297   1.757  1.7622 -0.2594  1.4110
 5043TIP3    H236621   3.455   5.443   1.753  1.8363 -0.2550  2.2052
 5044TIP3   OH236622   1.192   1.398   9.808 -0.3486  0.1980  0.2347
 5044TIP3    H136623   1.163   1.307   9.810  0.4836 -0.0712  0.3812
 5044TIP3    H236624   1.283   1.395   9.839 -0.6363  1.2023  1.2627
 5045TIP3   OH236625   1.437   6.209   0.802 -0.6048 -0.3435 -0.1215
 5045TIP3    H136626   1.488   6.273   0.853  0.4290 -0.8828 -0.4334
 5045TIP3    H236627   1.372   6.175   0.864  1.5827 -2.1018  1.3920
 5046TIP3   OH236628   6.072   5.353  13.107 -0.1873  0.0188  0.1226
 5046TIP3    H136629   6.048   5.361  13.014  0.4594 -1.0963 -0.1527
 5046TIP3    H236630   6.013   5.413  13.152 -2.2629 -1.2844 -0.7315
 5047TIP3   OH236631   0.209   6.465  12.866  0.5800  0.2807 -0.0812
 5047TIP3    H136632   0.207   6.377  12.829  0.3403 -0.5507  1.7981
 5047TIP3    H236633   0.302   6.489  12.864  1.0742 -1.2073  1.9352
 5048TIP3   OH236634   5.583   0.545  12.735 -0.9260  0.1076  0.0766
 5048TIP3    H136635   5.596   0.453  12.758 -0.1831 -0.6371 -2.8717
 5048TIP3    H236636   5.671   0.582  12.731 -1.1805  0.8036  0.5848
 5049TIP3   OH236637   1.461   6.303  13.029  0.3063 -0.0863 -0.1288
 5049TIP3    H136638   1.431   6.394  13.029  0.4889 -0.0161  0.5687
 5049TIP3    H236639   1.429   6.267  13.111  3.4887  0.4922  1.5546
 5050TIP3   OH236640   1.135   0.751   2.195  0.5714  0.3757  0.6893
 5050TIP3    H136641   1.107   0.735   2.105  1.3604  2.0958  0.0867
 5050TIP3    H236642   1.231   0.749   2.192  0.6417 -1.8223  1.9927
 5051TIP3   OH236643   1.402   3.749   3.897 -0.3120  0.9824 -0.0648
 5051TIP3    H136644   1.395   3.711   3.809 -1.0800 -1.4969  0.9677
 5051TIP3    H236645   1.476   3.703   3.937 -1.5148  0.2153  1.3727
 5052TIP3   OH236646   6.878   5.371  10.360 -0.2303  0.1381 -0.0443
 5052TIP3    H136647   6.926   5.372  10.277  4.5606 -2.3857  2.2536
 5052TIP3    H236648   6.844   5.282  10.367 -2.3833  0.9164 -0.0989
 5053TIP3   OH236649   6.601   2.684  14.856  0.0069 -0.0089  0.7167
 5053TIP3    H136650   6.575   2.765  14.812  0.0424  1.3144  3.0157
 5053TIP3    H236651   6.520   2.653  14.898 -0.1748 -1.5922 -0.6951
 5054TIP3   OH236652   6.983   0.536  13.077  0.3058  0.3651  0.0320
 5054TIP3    H136653   7.058   0.479  13.062 -0.2157 -0.1032 -0.9060
 5054TIP3    H236654   7.019   0.625  13.073  0.8774  0.1356  0.0358
 5055TIP3   OH236655   6.351   4.845  14.439 -0.2675 -0.2965 -0.6201
 5055TIP3    H136656   6.387   4.904  14.505  1.4764 -0.2983 -1.5033
 5055TIP3    H236657   6.260   4.832  14.464 -0.1305  1.1636  0.7229
 5056TIP3   OH236658   6.596   6.655   1.586  0.1026  0.1127 -0.1535
 5056TIP3    H136659   6.523   6.696   1.632 -0.4440 -1.4196  0.4019
 5056TIP3    H236660   6.669   6.658   1.648  0.2923  0.9051 -0.4032
 5057TIP3   OH236661   4.739   1.968   1.900 -0.7499  0.1024  0.8640
 5057TIP3    H136662   4.783   1.999   1.979  0.3676  0.7434  0.0199
 5057TIP3    H236663   4.677   2.038   1.879 -1.6291 -0.4367  1.6077
 5058TIP3   OH236664   7.121   0.383   1.039  0.5243 -1.0158  0.1405
 5058TIP3    H136665   7.054   0.351   0.978 -0.9161 -0.4378  1.3401
 5058TIP3    H236666   7.071   0.418   1.112  2.0646  1.5830  0.0883
 5059TIP3   OH236667   1.454   4.804   0.972 -0.3937 -0.0011  0.1626
 5059TIP3    H136668   1.493   4.823   0.887  0.0186  0.8754  0.5368
 5059TIP3    H236669   1.392   4.875   0.987 -2.4678 -1.5348 -0.5782
 5060TIP3   OH236670   0.875   5.868   9.920 -0.3772 -0.1100 -0.4386
 5060TIP3    H136671   0.874   5.963   9.935  0.1256 -0.4893  2.5484
 5060TIP3    H236672   0.966   5.842   9.935 -0.5184 -1.0955 -1.1831
 5061TIP3   OH236673   1.636   6.294  11.484 -0.1121 -0.7015  0.5238
 5061TIP3    H136674   1.590   6.315  11.566  0.7889  1.2533  0.5987
 5061TIP3    H236675   1.683   6.375  11.462  1.5213 -1.9203 -0.7075
 5062TIP3   OH236676   1.400   2.434  10.792 -0.3725  0.2049 -0.1966
 5062TIP3    H136677   1.446   2.505  10.747  1.2040  0.5040  1.7717
 5062TIP3    H236678   1.465   2.394  10.849 -1.0959 -3.0972 -1.4116
 5063TIP3   OH236679   1.424   6.831   1.200 -0.2030 -0.4802 -0.3680
 5063TIP3    H136680   1.437   6.873   1.115 -0.0915 -1.6633 -0.9479
 5063TIP3    H236681   1.354   6.767   1.186 -1.2337  0.3343  0.8114
 5064TIP3   OH236682   2.310   4.590   4.834 -0.3982  0.0745 -0.0114
 5064TIP3    H136683   2.246   4.659   4.849 -0.5342 -0.0281 -0.1191
 5064TIP3    H236684   2.261   4.509   4.844 -0.1871 -0.0091  0.3499
 5065TIP3   OH236685   6.677   2.736  10.919  0.3597  0.1885 -0.4156
 5065TIP3    H136686   6.595   2.762  10.877 -0.6579  0.0446  1.3637
 5065TIP3    H236687   6.743   2.743  10.850 -1.2817 -0.5667 -2.1543
 5066TIP3   OH236688   4.940   1.340  12.335  0.4319 -0.6888 -0.1916
 5066TIP3    H136689   4.960   1.365  12.244 -1.2087  0.9345 -0.1635
 5066TIP3    H236690   4.846   1.325  12.335  0.5068 -1.2212  1.1300
 5067TIP3   OH236691   0.507   1.610   1.625 -0.6212  0.0681  0.2178
 5067TIP3    H136692   0.498   1.520   1.594 -2.7150  0.4205 -0.3326
 5067TIP3    H236693   0.530   1.660   1.547  0.4395  0.0427  0.5041
 5068TIP3   OH236694   4.167   2.355  14.844  0.5852  0.0523 -0.4223
 5068TIP3    H136695   4.101   2.296  14.881  2.1298 -0.8321  1.1037
 5068TIP3    H236696   4.172   2.330  14.752 -1.0941  0.0721 -0.5499
 5069TIP3   OH236697   5.325   4.014   1.440 -0.3543 -0.4409 -0.0129
 5069TIP3    H136698   5.315   4.100   1.482 -1.3338 -1.3709  1.7498
 5069TIP3    H236699   5.286   3.952   1.501  0.7505 -2.2335 -1.0301
 5070TIP3   OH236700   6.521   2.375   1.505  0.1854 -0.5859 -0.2677
 5070TIP3    H136701   6.567   2.451   1.470  3.7507 -2.4619 -0.1238
 5070TIP3    H236702   6.483   2.332   1.429 -0.5167  0.4827 -0.5330
 5071TIP3   OH236703   3.433   3.254  10.605 -0.3629 -0.2556 -0.2301
 5071TIP3    H136704   3.453   3.348  10.599 -0.7007 -0.2562 -1.7762
 5071TIP3    H236705   3.347   3.250  10.646 -0.4900  0.1235 -0.4560
 5072TIP3   OH236706   2.204   6.887   1.999 -0.1302 -0.2956 -0.2267
 5072TIP3    H136707   2.284   6.874   1.948 -0.0004  0.5541 -0.2576
 5072TIP3    H236708   2.221   6.842   2.082 -0.2185 -1.4083 -0.7891
 5073TIP3   OH236709   6.046   4.118  10.554 -0.1029  0.0466  0.2453
 5073TIP3    H136710   5.997   4.188  10.510  0.6973  0.0457 -0.6811
 5073TIP3    H236711   5.980   4.072  10.606 -0.5917  1.6953  1.1809
 5074TIP3   OH236712   2.326   3.638  10.549 -0.1055  0.2906  0.3295
 5074TIP3    H136713   2.362   3.708  10.603  1.8880  0.5212 -1.1763
 5074TIP3    H236714   2.381   3.563  10.568  0.0062  0.1174 -0.6347
 5075TIP3   OH236715   6.471   0.180  11.870 -0.2012 -0.0986  0.4371
 5075TIP3    H136716   6.442   0.129  11.794 -0.5539  0.3763  0.2522
 5075TIP3    H236717   6.523   0.251  11.833  0.3185 -0.3374  0.6993
 5076TIP3   OH236718   2.490   2.960   9.916  0.8011  0.7114  0.5169
 5076TIP3    H136719   2.445   3.042   9.895 -2.8054 -0.9649  0.8899
 5076TIP3    H236720   2.542   2.981   9.993 -0.0862  2.6468  0.6652
 5077TIP3   OH236721   3.255   5.154  11.510 -0.2259  0.6288  0.2706
 5077TIP3    H136722   3.182   5.193  11.557 -1.6153  0.4832 -1.6159
 5077TIP3    H236723   3.255   5.062  11.538  0.1081  0.9241  1.2757
 5078TIP3   OH236724   2.264   5.111  12.260  0.4333  0.2104  0.4729
 5078TIP3    H136725   2.357   5.114  12.240  1.0169  0.4962  2.9783
 5078TIP3    H236726   2.255   5.044  12.327 -1.3102 -0.3487 -0.2408
 5079TIP3   OH236727   2.475   6.959  10.824 -0.5195 -0.1078  0.5448
 5079TIP3    H136728   2.473   6.922  10.736 -1.1262  0.1913  0.4242
 5079TIP3    H236729   2.503   7.049  10.812  0.5130 -0.3879  0.7895
 5080TIP3   OH236730   0.344   3.522  13.516  0.0173 -0.6388 -0.5727
 5080TIP3    H136731   0.353   3.427  13.527 -0.5558 -0.7358 -0.9253
 5080TIP3    H236732   0.264   3.544  13.563  0.4346 -0.2429 -0.0368
 5081TIP3   OH236733   2.029   6.204  14.402  0.1796  0.0624 -0.1004
 5081TIP3    H136734   2.088   6.194  14.327 -1.0078  0.3843 -1.1020
 5081TIP3    H236735   2.015   6.115  14.433  2.3619  0.0896  1.1072
 5082TIP3   OH236736   3.799   1.266  15.606 -0.4018 -0.1006 -0.6529
 5082TIP3    H136737   3.794   1.171  15.608  0.6034 -0.1454  0.0121
 5082TIP3    H236738   3.887   1.287  15.636 -0.7974  1.0584 -0.2338
 5083TIP3   OH236739   0.589   6.765   1.435 -0.0597 -0.2938 -0.4680
 5083TIP3    H136740   0.644   6.702   1.388  0.4459  0.5583 -1.0467
 5083TIP3    H236741   0.642   6.792   1.509  0.3045  0.4931 -1.0002
 5084TIP3   OH236742   4.191   5.539   2.896 -0.2815  0.1846 -0.3247
 5084TIP3    H136743   4.260   5.501   2.952 -0.8868 -1.5201 -0.6691
 5084TIP3    H236744   4.227   5.623   2.867  0.9967  0.0456  0.7699
 5085TIP3   OH236745   6.099   6.838   1.120  0.3348 -0.1952 -0.6024
 5085TIP3    H136746   6.024   6.831   1.180  0.2874  1.1663 -0.4832
 5085TIP3    H236747   6.135   6.925   1.136 -0.8339  1.0231 -3.9338
 5086TIP3   OH236748   6.166   0.813   2.214 -0.2717 -0.1317 -0.0795
 5086TIP3    H136749   6.173   0.825   2.119  0.7425 -1.3936 -0.1877
 5086TIP3    H236750   6.082   0.770   2.227 -0.8758  0.9397 -0.2895
 5087TIP3   OH236751   6.980   5.710  14.214 -0.2898 -0.0654 -0.1859
 5087TIP3    H136752   7.033   5.685  14.290 -0.8097  1.6417  0.7839
 5087TIP3    H236753   6.995   5.640  14.151  2.7735  0.1142  0.2059
 5088TIP3   OH236754   1.923   3.964   0.349  0.8959  0.4336 -0.2337
 5088TIP3    H136755   2.015   3.988   0.343  1.1510 -0.0634  1.3314
 5088TIP3    H236756   1.914   3.924   0.435 -0.2207 -1.9087 -1.3459
 5089TIP3   OH236757   3.770   1.438   2.259 -0.2545 -0.1853  0.2978
 5089TIP3    H136758   3.793   1.352   2.294  0.9811 -0.8412 -1.9200
 5089TIP3    H236759   3.827   1.500   2.305  0.9947 -0.9458 -0.2021
 5090TIP3   OH236760   1.891   2.702  11.637 -0.0216 -0.5496 -0.1779
 5090TIP3    H136761   1.869   2.744  11.554 -2.0782 -0.7564  0.2068
 5090TIP3    H236762   1.848   2.756  11.703  1.4571 -0.4744  0.7687
 5091TIP3   OH236763   0.776   3.732  15.468 -0.4838 -0.3876 -0.2953
 5091TIP3    H136764   0.825   3.693  15.541 -1.3683 -4.1760 -1.4832
 5091TIP3    H236765   0.686   3.735  15.499 -0.4735  0.4600 -0.3444
 5092TIP3   OH236766   5.940   3.175  11.425  0.8281  0.1376 -0.5460
 5092TIP3    H136767   6.015   3.157  11.481  0.6822  1.4621  0.1100
 5092TIP3    H236768   5.875   3.109  11.450  0.9009  0.4730  0.5817
 5093TIP3   OH236769   0.517   1.220  10.854  0.6102  0.7883 -0.0003
 5093TIP3    H136770   0.428   1.189  10.836  0.2847  1.3356  0.6424
 5093TIP3    H236771   0.526   1.298  10.800  0.2736  1.3960  0.7904
 5094TIP3   OH236772   4.961   3.896   0.501  0.5924 -0.1225  0.4832
 5094TIP3    H136773   5.010   3.850   0.433 -0.0379  1.2329 -0.9444
 5094TIP3    H236774   5.007   3.873   0.583  2.3961 -0.4584 -0.5632
 5095TIP3   OH236775   1.860   0.708  15.166 -0.4233  0.0627 -0.2305
 5095TIP3    H136776   1.916   0.730  15.240  0.5609  1.4946 -1.3362
 5095TIP3    H236777   1.785   0.768  15.174 -0.5928 -0.1619 -0.1062
 5096TIP3   OH236778   5.166   2.589  11.773  0.5221  0.3249 -0.0534
 5096TIP3    H136779   5.096   2.525  11.782  0.8360  0.0963  0.8843
 5096TIP3    H236780   5.160   2.642  11.853  0.8716  0.8570 -0.3738
 5097TIP3   OH236781   5.595   3.153   3.739  0.0408  0.2859  0.0686
 5097TIP3    H136782   5.575   3.060   3.743 -0.2033  0.3931  1.7829
 5097TIP3    H236783   5.517   3.197   3.773  0.6985  1.0295  0.6681
 5098TIP3   OH236784   1.737   6.153  10.789  0.7450  0.6981  0.5057
 5098TIP3    H136785   1.774   6.146  10.877 -0.9598  0.5697  1.2502
 5098TIP3    H236786   1.745   6.247  10.767  0.4171  0.8739  1.1393
 5099TIP3   OH236787   0.626   6.552  11.002  0.0214  0.0036 -0.5661
 5099TIP3    H136788   0.612   6.632  10.951 -1.4585  0.4757  0.4867
 5099TIP3    H236789   0.660   6.583  11.086  1.5400 -0.6843 -0.8928
 5100TIP3   OH236790   3.158   6.429  10.343 -0.4751 -0.4048  0.2614
 5100TIP3    H136791   3.251   6.413  10.358 -0.3980  0.2941  0.5867
 5100TIP3    H236792   3.117   6.417  10.428 -0.7843 -1.3197 -0.0046
 5101TIP3   OH236793   2.605   0.225  14.612 -0.1448  0.2068  0.0627
 5101TIP3    H136794   2.624   0.280  14.688  0.1123 -0.1593  0.2658
 5101TIP3    H236795   2.659   0.147  14.625  0.2451  0.3378 -0.7318
 5102TIP3   OH236796   3.646   0.650  15.706 -0.1971  0.3998  0.1293
 5102TIP3    H136797   3.601   0.609  15.780 -1.0011  1.8299  0.4713
 5102TIP3    H236798   3.593   0.625  15.630 -0.3850  0.3750  0.2667
 5103TIP3   OH236799   3.985   2.576  12.178  0.1227 -0.4100  0.7357
 5103TIP3    H136800   4.028   2.604  12.259  1.6070  0.0434 -0.1825
 5103TIP3    H236801   4.011   2.640  12.113  0.5778 -1.8664 -0.5722
 5104TIP3   OH236802   2.719   0.818  12.719  0.6499 -0.4317 -0.0507
 5104TIP3    H136803   2.676   0.858  12.794 -0.0979 -0.3102 -0.5285
 5104TIP3    H236804   2.705   0.724  12.731 -0.5532 -0.3525 -0.6509
 5105TIP3   OH236805   6.238   4.697  15.627  0.4668  0.5697  0.1107
 5105TIP3    H136806   6.258   4.772  15.572 -0.0382  1.4268  1.0593
 5105TIP3    H236807   6.179   4.732  15.694 -0.4348 -0.8432  0.1025
 5106TIP3   OH236808   3.539   0.926  12.755  0.4626  0.7816  0.1478
 5106TIP3    H136809   3.452   0.902  12.787  0.5421  0.2945  0.0161
 5106TIP3    H236810   3.539   1.022  12.754 -0.2571  0.7866 -0.3608
 5107TIP3   OH236811   5.170   1.271   3.491  0.6981  0.2905  1.0153
 5107TIP3    H136812   5.167   1.351   3.439  1.8486  0.0874  0.6055
 5107TIP3    H236813   5.092   1.274   3.546 -0.4031  0.6746 -0.5104
 5108TIP3   OH236814   6.030   3.982   2.905  0.0901 -0.3132  0.1843
 5108TIP3    H136815   6.059   4.043   2.972 -0.0757 -0.7738  0.6807
 5108TIP3    H236816   5.972   3.921   2.951  0.1021 -0.7320 -0.3408
 5109TIP3   OH236817   2.316   0.549   3.434  0.1918 -0.2884 -0.0726
 5109TIP3    H136818   2.317   0.531   3.527 -0.4864  0.0877  0.0213
 5109TIP3    H236819   2.379   0.488   3.396  0.1487 -0.7449  0.5773
 5110TIP3   OH236820   2.849   2.929  13.673 -0.0081  0.4933 -0.1905
 5110TIP3    H136821   2.835   3.004  13.730  0.3591 -0.2592  0.9289
 5110TIP3    H236822   2.888   2.863  13.729 -2.6829 -1.4847 -0.4433
 5111TIP3   OH236823   0.091   6.999  14.852 -0.0186 -0.3235 -0.2614
 5111TIP3    H136824   0.008   7.008  14.804 -0.6391  0.4685  0.9139
 5111TIP3    H236825   0.077   6.924  14.910 -0.5426  0.8081  1.1204
 5112TIP3   OH236826   4.643   0.214   0.918 -0.2049  0.0471  0.3561
 5112TIP3    H136827   4.681   0.178   0.839 -0.6515  0.0378  0.1443
 5112TIP3    H236828   4.664   0.308   0.914  2.0802 -0.3229  1.5350
 5113TIP3   OH236829   6.719   2.936   3.916 -0.5085  0.3451  0.9648
 5113TIP3    H136830   6.782   2.932   3.843 -0.9659 -0.8302  0.6014
 5113TIP3    H236831   6.638   2.966   3.876 -1.0046 -1.1588  0.7721
 5114TIP3   OH236832   5.469   0.932   0.393  0.3864 -0.6215  0.0117
 5114TIP3    H136833   5.376   0.917   0.407  0.4586 -2.3186 -0.9579
 5114TIP3    H236834   5.474   0.989   0.316  0.1503 -0.3404  0.2056
 5115TIP3   OH236835   6.070   6.872  11.549  0.1650  0.3164  0.0927
 5115TIP3    H136836   6.059   6.952  11.497  0.4966  0.1238 -0.2819
 5115TIP3    H236837   6.015   6.807  11.504  0.4287  0.1569  0.0020
 5116TIP3   OH236838   7.129   5.526  13.993  0.3374 -0.3369  0.2006
 5116TIP3    H136839   7.199   5.582  14.027 -0.6071  1.2703 -0.4053
 5116TIP3    H236840   7.127   5.544  13.899 -1.2920  0.1689  0.3026
 5117TIP3   OH236841   3.632   3.142   0.086 -0.5800  0.3043  0.2136
 5117TIP3    H136842   3.718   3.104   0.064 -0.7391 -0.0217  0.1480
 5117TIP3    H236843   3.622   3.214   0.025 -1.0981 -0.7057 -0.9353
 5118TIP3   OH236844   1.464   0.005  14.423 -0.6960  0.0783 -0.2209
 5118TIP3    H136845   1.532   0.022  14.488  1.3118  0.4754 -2.3186
 5118TIP3    H236846   1.441   0.091  14.388 -0.5115 -0.2651 -1.2173
 5119TIP3   OH236847   5.519   0.326  15.524  0.1227 -0.4908 -0.5864
 5119TIP3    H136848   5.452   0.375  15.571  0.1019 -0.9300 -0.1558
 5119TIP3    H236849   5.599   0.377  15.536 -0.0093 -0.2768 -0.6059
 5120TIP3   OH236850   3.660   1.272  10.203  0.0944 -0.4126  0.0163
 5120TIP3    H136851   3.570   1.253  10.229  0.3129 -1.7537 -0.1496
 5120TIP3    H236852   3.654   1.289  10.109  0.0052 -0.4037  0.0232
 5121TIP3   OH236853   0.220   3.767  14.855 -0.3886 -0.0039 -0.7347
 5121TIP3    H136854   0.232   3.798  14.765  2.2019  1.5482  0.0528
 5121TIP3    H236855   0.176   3.840  14.900 -0.5049 -0.2613 -0.4267
 5122TIP3   OH236856   3.195   5.208  10.313 -0.0198 -0.4601 -0.0996
 5122TIP3    H136857   3.117   5.192  10.366  0.8167  0.1272  1.3759
 5122TIP3    H236858   3.216   5.123  10.274 -0.8971 -0.8138  0.1782
 5123TIP3   OH236859   3.948   6.968   0.822 -0.2302 -0.0266 -0.0875
 5123TIP3    H136860   3.909   7.022   0.753  0.5351  0.7852  0.0966
 5123TIP3    H236861   4.039   6.958   0.795  0.0684  0.2834  0.7943
 5124TIP3   OH236862   4.732   4.541  15.711  0.1970 -0.2511 -0.3541
 5124TIP3    H136863   4.758   4.515  15.623  1.7617  1.3042 -0.4111
 5124TIP3    H236864   4.694   4.628  15.700 -3.6550 -1.7213 -0.0130
 5125TIP3   OH236865   5.551   4.453   5.776  0.1963  0.2859 -0.8689
 5125TIP3    H136866   5.480   4.510   5.747 -0.3813 -0.0022 -0.0579
 5125TIP3    H236867   5.577   4.489   5.861 -0.1873 -0.6516 -0.3418
 5126TIP3   OH236868   3.522   1.163  12.256  0.2803  0.5226 -0.0538
 5126TIP3    H136869   3.534   1.069  12.238  1.0659  0.9622 -2.1793
 5126TIP3    H236870   3.578   1.180  12.332 -0.5989 -0.8885  0.9569
 5127TIP3   OH236871   7.109   0.170  12.252 -0.6161  0.0744 -0.1461
 5127TIP3    H136872   7.184   0.112  12.265 -1.3435 -0.8686 -0.0067
 5127TIP3    H236873   7.081   0.193  12.341 -0.0553  1.0374 -0.2012
 5128TIP3   OH236874   4.338   0.815  11.945  0.3788 -0.6353  0.0841
 5128TIP3    H136875   4.405   0.783  11.885 -0.6238 -0.5255 -1.1263
 5128TIP3    H236876   4.256   0.806  11.897 -0.1601  2.0621  0.3827
 5129TIP3   OH236877   1.253   3.945  10.511 -0.7824 -0.5148  0.2001
 5129TIP3    H136878   1.276   3.888  10.584  0.9182 -0.8953 -0.5697
 5129TIP3    H236879   1.293   4.029  10.533  1.0247 -1.0175 -0.8751
 5130TIP3   OH236880   5.457   0.407  10.316 -0.7399 -0.2852 -0.3902
 5130TIP3    H136881   5.458   0.476  10.251  2.9876 -0.1943 -0.4306
 5130TIP3    H236882   5.534   0.353  10.296 -0.9422 -1.7964  2.3536
 5131TIP3   OH236883   3.529   3.163  12.772 -0.4190 -0.1494  0.1461
 5131TIP3    H136884   3.448   3.143  12.724 -1.3062 -1.7560  2.1247
 5131TIP3    H236885   3.563   3.077  12.798  0.3817  0.6023  1.7442
 5132TIP3   OH236886   0.370   6.000  12.312 -0.5020 -0.1828 -0.1270
 5132TIP3    H136887   0.276   6.020  12.313 -0.1225  1.9132  1.8280
 5132TIP3    H236888   0.408   6.070  12.259 -0.0335 -1.0885 -1.0014
 5133TIP3   OH236889   6.903   3.980  10.720  0.5282  0.2005 -0.1457
 5133TIP3    H136890   6.969   3.921  10.758 -0.1488  0.3716  1.3331
 5133TIP3    H236891   6.820   3.933  10.730  0.0810  1.0784  0.3669
 5134TIP3   OH236892   3.252   0.826  15.579 -0.3867 -0.1001  0.8749
 5134TIP3    H136893   3.261   0.865  15.666  0.5345 -1.4718  1.4454
 5134TIP3    H236894   3.304   0.883  15.522 -0.3842  0.4007  1.3680
 5135TIP3   OH236895   5.857   4.469  11.328  0.3197  0.2204 -0.0743
 5135TIP3    H136896   5.890   4.419  11.402  2.7342  1.5676 -0.1621
 5135TIP3    H236897   5.772   4.428  11.308 -0.1290 -0.5904  2.9702
 5136TIP3   OH236898   4.871   0.693  12.029  0.7628  0.2894 -0.0352
 5136TIP3    H136899   4.886   0.628  11.961 -0.8076  1.9932 -2.1484
 5136TIP3    H236900   4.946   0.753  12.021 -0.0560  1.2026 -1.2204
 5137TIP3   OH236901   1.761   5.572  12.793 -0.1037 -0.2318  0.4896
 5137TIP3    H136902   1.698   5.597  12.726  0.3048 -1.9154 -0.5670
 5137TIP3    H236903   1.822   5.646  12.798  0.2385 -0.3362 -1.4894
 5138TIP3   OH236904   1.863   3.802  11.620 -0.2259 -0.2678 -0.4239
 5138TIP3    H136905   1.808   3.879  11.607 -1.0729 -0.6389  0.8170
 5138TIP3    H236906   1.812   3.729  11.585 -0.9152 -0.7227  1.3988
 5139TIP3   OH236907   1.651   6.147  13.799 -0.6758 -0.0233  0.5245
 5139TIP3    H136908   1.655   6.051  13.807 -0.2367 -0.0095  0.5012
 5139TIP3    H236909   1.702   6.179  13.873 -0.8036  0.1913  0.5168
 5140TIP3   OH236910   2.324   3.847  10.018 -0.4853  0.7755  0.1058
 5140TIP3    H136911   2.397   3.851   9.956  1.7722 -0.0872  2.5419
 5140TIP3    H236912   2.316   3.754  10.040  0.0254  1.2192  2.4204
 5141TIP3   OH236913   1.489   2.840  15.067  0.7630 -0.0518  0.1204
 5141TIP3    H136914   1.410   2.820  15.018  0.6374  0.5056  0.0816
 5141TIP3    H236915   1.496   2.771  15.132  0.2101 -0.0704  0.1623
 5142TIP3   OH236916   0.660   0.109  11.241 -0.4234  0.0871 -0.4739
 5142TIP3    H136917   0.618   0.038  11.288  1.1909 -1.2572 -0.9431
 5142TIP3    H236918   0.749   0.113  11.277  0.6707 -0.5801 -2.8568
 5143TIP3   OH236919   5.925   6.155   0.871 -0.5741  0.7693 -0.2331
 5143TIP3    H136920   5.876   6.221   0.822  0.0573 -0.2459 -2.3455
 5143TIP3    H236921   5.921   6.077   0.817 -0.3168 -0.6203  1.6522
 5144TIP3   OH236922   5.132   3.439  11.200  0.9563  0.2219  0.9382
 5144TIP3    H136923   5.051   3.391  11.215  0.2920  0.7810 -0.6493
 5144TIP3    H236924   5.123   3.519  11.252  0.0079  0.7573 -0.0067
 5145TIP3   OH236925   2.016   0.029   1.891  0.6577  0.4690 -0.1077
 5145TIP3    H136926   2.080   0.052   1.959  0.7924  1.1219 -0.4460
 5145TIP3    H236927   1.934   0.018   1.939  1.0822 -0.7179  0.3734
 5146TIP3   OH236928   0.536   5.905   0.712 -0.4029  0.1153  0.1767
 5146TIP3    H136929   0.517   5.995   0.737 -1.2450  0.1857 -0.6530
 5146TIP3    H236930   0.505   5.852   0.785 -1.2005  0.4227  0.0743
 5147TIP3   OH236931   4.646   3.683  11.152  0.0833  0.1858 -0.5234
 5147TIP3    H136932   4.715   3.741  11.186 -1.2085  1.8476 -0.6069
 5147TIP3    H236933   4.568   3.739  11.148 -1.3916 -1.7525 -0.0154
 5148TIP3   OH236934   4.518   6.431  13.139  0.0999 -0.3075 -0.3465
 5148TIP3    H136935   4.538   6.337  13.133 -1.7429 -0.8185  0.7787
 5148TIP3    H236936   4.464   6.449  13.062 -0.4015 -0.4276 -0.0295
 5149TIP3   OH236937   1.515   3.090  12.839  0.0871 -0.1283  0.7658
 5149TIP3    H136938   1.602   3.053  12.825  0.8984  0.8384  2.8486
 5149TIP3    H236939   1.465   3.018  12.879  0.7448  0.0697  1.9895
 5150TIP3   OH236940   4.529   1.426   9.929  0.1769 -0.1800 -0.2877
 5150TIP3    H136941   4.453   1.480   9.908 -0.5934 -0.5833  1.3755
 5150TIP3    H236942   4.577   1.476   9.995  0.5401 -0.6382 -0.1983
 5151TIP3   OH236943   0.901   1.773   1.042 -0.5713  0.1130  0.0746
 5151TIP3    H136944   0.852   1.740   1.117  0.0300 -0.6477  0.1469
 5151TIP3    H236945   0.993   1.758   1.064 -0.3605  0.4216 -0.5586
 5152TIP3   OH236946   5.633   5.943  12.368 -0.3806 -0.7469 -0.0938
 5152TIP3    H136947   5.563   5.993  12.325 -0.3933  0.1970  0.9790
 5152TIP3    H236948   5.668   6.003  12.434  0.9777 -1.4570 -0.1310
 5153TIP3   OH236949   5.418   1.855  14.763  0.2244  0.6956  0.4100
 5153TIP3    H136950   5.499   1.895  14.733 -0.9361  1.2665 -2.2831
 5153TIP3    H236951   5.349   1.913  14.731 -1.3903 -1.8732 -1.1738
 5154TIP3   OH236952   6.793   5.430  13.187 -0.0176  0.3885  0.0309
 5154TIP3    H136953   6.724   5.367  13.203  1.7258 -1.4672  0.6324
 5154TIP3    H236954   6.777   5.500  13.250 -0.6997 -0.5551  0.9325
 5155TIP3   OH236955   1.955   2.137   0.090 -0.3052 -0.2903  0.0569
 5155TIP3    H136956   1.920   2.209   0.142  1.6557  1.7272 -1.1912
 5155TIP3    H236957   1.895   2.128   0.017 -0.4881  0.2305  0.1378
 5156TIP3   OH236958   6.831   6.620  10.720 -0.3734 -0.1359  0.0945
 5156TIP3    H136959   6.827   6.716  10.720  0.8300 -0.0386  1.9233
 5156TIP3    H236960   6.896   6.599  10.654  0.8902  0.4638  1.0864
 5157TIP3   OH236961   0.738   6.964  10.646  0.2878  0.5176 -0.1900
 5157TIP3    H136962   0.643   6.978  10.638 -0.1082 -1.5560  0.1773
 5157TIP3    H236963   0.752   6.876  10.612  2.0099  0.5567  0.3236
 5158TIP3   OH236964   4.831   6.094   4.217 -0.1609 -0.2244  0.1821
 5158TIP3    H136965   4.802   6.003   4.223  1.3302 -0.6426  1.7525
 5158TIP3    H236966   4.823   6.128   4.306  2.1012  0.2362  0.2732
 5159TIP3   OH236967   6.058   6.999  12.196  0.5165  0.0818  0.3569
 5159TIP3    H136968   6.143   7.020  12.234  0.4080  1.7630 -0.2417
 5159TIP3    H236969   6.031   7.079  12.152 -0.4255 -1.0720 -1.2721
 5160TIP3   OH236970   3.754   4.549   4.842 -0.2162  0.1022  0.2424
 5160TIP3    H136971   3.760   4.645   4.844 -1.8908  0.2113  1.2311
 5160TIP3    H236972   3.684   4.527   4.903 -1.1702 -1.6394 -1.3496
 5161TIP3   OH236973   0.408   1.633  10.075 -0.2709  0.2042 -0.5793
 5161TIP3    H136974   0.325   1.665  10.111 -0.5667 -2.3253  1.2579
 5161TIP3    H236975   0.382   1.571  10.008  0.1748  0.4120 -0.9449
 5162TIP3   OH236976   5.189   4.983   3.075 -0.0572  0.2761 -0.1175
 5162TIP3    H136977   5.097   4.958   3.084 -0.1750  0.2999 -1.1922
 5162TIP3    H236978   5.237   4.908   3.110 -0.4560 -0.5433 -1.2690
 5163TIP3   OH236979   4.915   1.204  12.678 -0.4231 -0.3858 -0.7931
 5163TIP3    H136980   4.980   1.182  12.612 -0.6475  0.1590 -1.2057
 5163TIP3    H236981   4.840   1.238  12.629  0.3823  2.5640 -0.2093
 5164TIP3   OH236982   1.225   5.550   3.710 -0.6158 -0.3284 -0.0115
 5164TIP3    H136983   1.137   5.586   3.699  0.2213  1.6877 -0.4805
 5164TIP3    H236984   1.272   5.618   3.758  0.5160 -1.6735  0.8422
 5165TIP3   OH236985   2.901   2.540  10.919  0.5451 -0.4690 -0.2122
 5165TIP3    H136986   2.928   2.631  10.909 -0.7734  0.1036  1.1217
 5165TIP3    H236987   2.972   2.499  10.969 -0.2533  0.6402  1.9440
 5166TIP3   OH236988   2.922   4.992  15.263  0.1782  0.3850 -0.0251
 5166TIP3    H136989   2.904   4.974  15.171  0.0442  0.1989  0.0348
 5166TIP3    H236990   2.981   5.067  15.263  0.4836  0.1455 -0.2758
 5167TIP3   OH236991   0.817   2.789  11.035  0.4182  0.5863 -0.0292
 5167TIP3    H136992   0.783   2.850  10.970  0.2088 -0.0876 -0.5635
 5167TIP3    H236993   0.912   2.801  11.032  0.3314  1.6725  0.6754
 5168TIP3   OH236994   3.386   3.696   5.118  0.4292  0.3546 -0.2514
 5168TIP3    H136995   3.370   3.771   5.061  0.6667  0.3491 -0.3275
 5168TIP3    H236996   3.323   3.630   5.090 -1.3925  1.3299  1.3531
 5169TIP3   OH236997   3.499   4.961  12.589  0.5400 -0.4034  0.3137
 5169TIP3    H136998   3.572   5.020  12.570  2.8159 -2.9890  0.2494
 5169TIP3    H236999   3.527   4.914  12.668 -0.9910 -1.5929  0.1956
 5170TIP3   OH237000   1.906   2.926  14.248  0.6314 -0.0974 -0.2542
 5170TIP3    H137001   1.969   2.865  14.285  0.4700  0.4863  1.0347
 5170TIP3    H237002   1.953   2.969  14.177  1.2891 -0.5178 -0.0809
 5171TIP3   OH237003   1.126   0.104   1.901 -0.1083 -0.2118 -0.7017
 5171TIP3    H137004   1.069   0.061   1.837 -0.5924 -0.5598 -0.0510
 5171TIP3    H237005   1.214   0.096   1.864 -0.1632 -1.9152 -0.5392
 5172TIP3   OH237006   0.663   7.073   0.633  0.5903  0.2842 -0.0845
 5172TIP3    H137007   0.757   7.060   0.642  0.8166  2.2559  0.7831
 5172TIP3    H237008   0.654   7.136   0.561  0.0809  1.7147  1.1974
 5173TIP3   OH237009   2.551   3.987  14.648 -0.5721  0.9366  0.2709
 5173TIP3    H137010   2.636   3.994  14.606 -1.1212  1.5764 -0.7855
 5173TIP3    H237011   2.531   4.077  14.677 -2.1586  1.4714 -2.1536
 5174TIP3   OH237012   4.057   2.927  11.434 -0.0163  0.5025  0.2210
 5174TIP3    H137013   4.000   2.986  11.483  1.3383  0.4777  1.9437
 5174TIP3    H237014   4.145   2.963  11.447  0.6962 -1.1878  0.2836
 5175TIP3   OH237015   4.713   2.852   3.691 -0.9617 -0.1607 -0.6012
 5175TIP3    H137016   4.639   2.892   3.737  0.2957  1.4043  0.1667
 5175TIP3    H237017   4.790   2.894   3.729  0.3619 -1.9138 -1.1951
 5176TIP3   OH237018   6.454   6.705   0.569 -0.9419  0.7671  0.1219
 5176TIP3    H137019   6.389   6.753   0.620 -2.1830 -1.5024  0.8306
 5176TIP3    H237020   6.442   6.737   0.479 -1.4506  2.0068  0.6088
 5177TIP3   OH237021   5.746   5.034  10.135  0.4207  0.4998  0.0906
 5177TIP3    H137022   5.714   5.044  10.045  0.3982 -0.1907  0.0157
 5177TIP3    H237023   5.839   5.014  10.125  0.5329  0.9254  0.2469
 5178TIP3   OH237024   0.943   3.026   0.190 -0.1534 -1.0462  0.3695
 5178TIP3    H137025   0.892   3.061   0.116  1.2213 -0.5664 -0.3905
 5178TIP3    H237026   0.977   2.943   0.157 -0.5378 -1.4273  0.9222
 5179TIP3   OH237027   2.788   2.554  13.364  0.4873  0.3008  0.6823
 5179TIP3    H137028   2.858   2.607  13.402  0.1748  0.8114  0.5538
 5179TIP3    H237029   2.771   2.594  13.279 -0.6506  0.8124  1.1314
 5180TIP3   OH237030   4.786   2.665   2.738 -0.3537  0.8266  0.3387
 5180TIP3    H137031   4.809   2.754   2.765 -0.6145  0.9235  0.2458
 5180TIP3    H237032   4.835   2.651   2.656 -0.0025  0.7373  0.5624
 5181TIP3   OH237033   4.732   0.910   2.523 -0.0807  0.0922 -0.4191
 5181TIP3    H137034   4.709   0.938   2.611  0.1340  1.7110 -0.8447
 5181TIP3    H237035   4.681   0.831   2.508 -0.0133 -0.2845  1.1954
 5182TIP3   OH237036   0.227   4.312  14.405 -0.1737 -0.3918 -0.3146
 5182TIP3    H137037   0.169   4.236  14.405 -0.4888 -0.1552 -0.1082
 5182TIP3    H237038   0.173   4.383  14.441  0.7004 -0.5226  1.3816
 5183TIP3   OH237039   5.475   1.935  11.137 -0.1283 -0.0825 -1.2829
 5183TIP3    H137040   5.485   1.843  11.112 -1.4659 -0.5863 -0.0874
 5183TIP3    H237041   5.544   1.980  11.088  0.9176 -1.7816 -1.4784
 5184TIP3   OH237042   5.263   4.519   0.681 -0.4007 -0.0051 -0.6062
 5184TIP3    H137043   5.287   4.487   0.594  0.3539 -2.0718  0.2795
 5184TIP3    H237044   5.178   4.479   0.698 -0.1810 -0.2717 -0.1009
 5185TIP3   OH237045   0.803   0.044  12.639  0.2657  0.1870  0.3904
 5185TIP3    H137046   0.714   0.067  12.663 -0.0251  0.5070 -0.9454
 5185TIP3    H237047   0.821  -0.037  12.688 -0.6643  0.2495  0.8449
 5186TIP3   OH237048   4.435   2.584   0.857  0.1614  0.1963 -0.7374
 5186TIP3    H137049   4.392   2.580   0.943  3.1520  1.4463  1.0073
 5186TIP3    H237050   4.390   2.655   0.811 -1.5590 -0.5556 -0.2925
 5187TIP3   OH237051   4.576   1.242  13.064  0.0666 -0.3539 -0.3989
 5187TIP3    H137052   4.614   1.158  13.037  2.6026  0.9761 -1.3092
 5187TIP3    H237053   4.550   1.283  12.981 -0.0298  0.2450 -0.0738
 5188TIP3   OH237054   3.287   4.412  14.467  0.0823  0.1285 -0.4952
 5188TIP3    H137055   3.244   4.472  14.528 -1.1009  2.1157 -3.1258
 5188TIP3    H237056   3.236   4.331  14.472 -1.5292  1.1034 -0.6315
 5189TIP3   OH237057   5.719   2.487   0.234 -0.2657  0.1600  0.2794
 5189TIP3    H137058   5.797   2.509   0.284 -0.3295  0.9740  0.0293
 5189TIP3    H237059   5.751   2.467   0.146 -0.5610  3.5516 -0.7338
 5190TIP3   OH237060   4.535   0.875  11.380  0.7147 -0.3598  0.3349
 5190TIP3    H137061   4.592   0.810  11.341  1.9295 -0.3249  1.9586
 5190TIP3    H237062   4.507   0.837  11.463  1.0945  0.9756  1.1114
 5191TIP3   OH237063   1.033   3.868   9.701  0.1230  0.2158  0.4629
 5191TIP3    H137064   1.119   3.906   9.682  1.2339 -2.9893 -1.6365
 5191TIP3    H237065   1.048   3.813   9.778 -0.2149  0.0795  0.4309
 5192TIP3   OH237066   4.267   7.103  11.280 -0.2694 -0.4840  0.5219
 5192TIP3    H137067   4.183   7.061  11.260 -1.0605  1.1564  0.2042
 5192TIP3    H237068   4.243   7.186  11.320  1.0947  1.1955 -1.8503
 5193TIP3   OH237069   4.486   0.461  11.677 -0.4739  0.3970 -0.3646
 5193TIP3    H137070   4.402   0.418  11.687 -0.7596  1.0096 -0.0565
 5193TIP3    H237071   4.466   0.545  11.635 -0.1727  1.0364  0.7104
 5194TIP3   OH237072   6.449   2.988  11.858  0.0505  0.5443  0.3768
 5194TIP3    H137073   6.529   3.041  11.856  0.0746  0.4955 -0.0213
 5194TIP3    H237074   6.393   3.031  11.922 -0.0307  1.1988 -0.1253
 5195TIP3   OH237075   6.051   1.653  12.514  0.3565  0.2114  0.6639
 5195TIP3    H137076   6.108   1.728  12.496  0.6947  0.1920  1.5984
 5195TIP3    H237077   6.105   1.576  12.496 -0.2498  0.1535 -1.1195
 5196TIP3   OH237078   6.494   4.212  11.784 -0.1299  0.6902 -0.3812
 5196TIP3    H137079   6.502   4.212  11.688  0.0516 -0.5311 -0.3826
 5196TIP3    H237080   6.422   4.151  11.802 -0.7299  1.5505  0.2373
 5197TIP3   OH237081   3.424   0.287   0.288  0.2517  0.0193  0.3132
 5197TIP3    H137082   3.337   0.292   0.329  0.7022  1.5116  1.1697
 5197TIP3    H237083   3.431   0.197   0.258 -1.3656 -0.2885  0.7514
 5198TIP3   OH237084   6.974   1.502  10.730  0.1393 -0.4749  0.0441
 5198TIP3    H137085   6.937   1.482  10.816 -0.5849 -2.0421 -0.6014
 5198TIP3    H237086   7.054   1.551  10.749 -0.8983  0.7287  1.5470
 5199TIP3   OH237087   3.322   4.726   4.542  0.6044 -0.3758 -0.0371
 5199TIP3    H137088   3.287   4.798   4.489 -1.0360  1.9646  3.7694
 5199TIP3    H237089   3.416   4.740   4.541  0.4774  0.5904 -1.0288
 5200TIP3   OH237090   6.736   6.863   3.028 -0.2379 -0.1843  0.3674
 5200TIP3    H137091   6.739   6.956   3.006  2.1745 -0.7183 -2.2156
 5200TIP3    H237092   6.788   6.855   3.109 -0.3615  0.6950  0.5350
 5201TIP3   OH237093   3.370   6.755  10.835  0.3091 -0.3384  0.2874
 5201TIP3    H137094   3.300   6.738  10.897 -1.0246 -0.1384 -1.0917
 5201TIP3    H237095   3.346   6.704  10.758  0.1498  1.8529 -1.2275
 5202TIP3   OH237096   2.443   4.735  12.134  0.2199 -0.4557 -0.2954
 5202TIP3    H137097   2.524   4.697  12.167  0.7270  0.1173 -0.8377
 5202TIP3    H237098   2.417   4.797  12.202  1.5543  1.1235 -1.1349
 5203TIP3   OH237099   5.636   4.367   3.460 -0.3713  0.5283 -0.0330
 5203TIP3    H137100   5.651   4.402   3.547  0.0522  1.2449 -0.3846
 5203TIP3    H237101   5.653   4.274   3.468  0.5804  0.7346  0.4414
 5204TIP3   OH237102   4.857   6.981  14.062  0.1642 -0.1026 -0.1985
 5204TIP3    H137103   4.814   6.908  14.019 -1.5485  2.1156 -2.6030
 5204TIP3    H237104   4.851   6.961  14.156 -2.9941 -1.6220 -0.5924
 5205TIP3   OH237105   5.537   1.052  15.037 -0.0743  0.2679  0.0720
 5205TIP3    H137106   5.602   1.065  14.968 -0.0946  0.0687  0.0142
 5205TIP3    H237107   5.454   1.047  14.990 -0.1052  0.2900  0.1253
 5206TIP3   OH237108   5.205   6.674   0.623 -0.1116 -0.3037 -0.1646
 5206TIP3    H137109   5.248   6.674   0.709 -1.9072 -2.3567  0.8493
 5206TIP3    H237110   5.256   6.611   0.571 -0.2690 -0.6744  0.1241
 5207TIP3   OH237111   0.377   2.014  11.502 -0.3879 -0.4828  0.5866
 5207TIP3    H137112   0.283   2.026  11.511 -0.9630 -2.6333 -1.3396
 5207TIP3    H237113   0.399   1.949  11.569  0.0709  1.0587  1.9959
 5208TIP3   OH237114   5.329   1.277  15.682  0.3556 -0.1727 -0.1236
 5208TIP3    H137115   5.357   1.345  15.742 -2.1730  0.4750  0.4584
 5208TIP3    H237116   5.280   1.215  15.737 -0.5728 -0.4486 -1.2104
 5209TIP3   OH237117   4.006   1.046  10.633  0.2121  0.1306  0.3650
 5209TIP3    H137118   4.031   0.954  10.641 -0.2536  0.1226  2.0882
 5209TIP3    H237119   3.943   1.048  10.561  1.1850 -0.6751 -0.5380
 5210TIP3   OH237120   1.268   7.044  13.158  0.0420 -0.3114 -0.4404
 5210TIP3    H137121   1.269   7.001  13.243  0.7863  1.2888  0.3974
 5210TIP3    H237122   1.186   7.016  13.117 -0.5176 -0.7795  0.9578
 5211TIP3   OH237123   5.584   5.144   3.949  0.5891 -0.3608  0.5299
 5211TIP3    H137124   5.504   5.150   4.000  0.1204 -1.0057 -0.1115
 5211TIP3    H237125   5.650   5.191   4.001 -0.1488 -0.0057  1.1539
 5212TIP3   OH237126   6.111   5.231  11.202 -0.8070  0.1286 -0.5255
 5212TIP3    H137127   6.087   5.172  11.273 -0.2874  2.3586  1.6696
 5212TIP3    H237128   6.029   5.247  11.155 -1.7571  0.4936  1.1503
 5213TIP3   OH237129   6.964   0.574  11.322 -0.1872  1.3275 -0.1253
 5213TIP3    H137130   7.024   0.500  11.333 -0.3097  1.3010  0.3821
 5213TIP3    H237131   7.019   0.652  11.336 -0.0457  1.3377 -0.7194
 5214TIP3   OH237132   6.222   1.167  12.704  0.0985 -0.1290 -0.1806
 5214TIP3    H137133   6.127   1.169  12.718 -0.0963 -0.9287 -1.2733
 5214TIP3    H237134   6.233   1.194  12.613  0.9378  0.0711 -0.0256
 5215TIP3   OH237135   7.015   2.776  12.510  0.3271 -0.5182  0.2717
 5215TIP3    H137136   6.966   2.694  12.506  0.8299 -0.7958 -0.4671
 5215TIP3    H237137   6.959   2.840  12.466 -0.4409 -0.2513  1.5899
 5216TIP3   OH237138   1.048   5.934   3.479  0.2303 -0.4939 -0.1773
 5216TIP3    H137139   1.066   5.863   3.417  0.2930  0.2850 -1.0699
 5216TIP3    H237140   1.133   5.978   3.489  0.4681 -1.2511  1.2930
 5217TIP3   OH237141   4.676   3.090  10.562  0.4306  0.1032  0.2885
 5217TIP3    H137142   4.642   3.122  10.646  0.7900  0.1114  0.4348
 5217TIP3    H237143   4.598   3.062  10.514  0.2751 -0.5071  0.8779
 5218TIP3   OH237144   1.894   1.339   9.937  0.0003  0.3481  0.2047
 5218TIP3    H137145   1.962   1.308   9.996  1.1471  0.0747 -1.2019
 5218TIP3    H237146   1.935   1.411   9.889 -0.8625  0.5025 -0.3334
 5219TIP3   OH237147   0.892   2.816  15.538  0.9901  0.3593 -0.0081
 5219TIP3    H137148   0.912   2.727  15.509  0.8013  0.8430 -1.7387
 5219TIP3    H237149   0.891   2.811  15.634  1.6606 -1.3388 -0.0645
 5220TIP3   OH237150   2.945   6.765   1.815 -0.3445  0.1835  0.3751
 5220TIP3    H137151   3.018   6.720   1.774 -1.6364 -0.8090 -0.9475
 5220TIP3    H237152   2.977   6.854   1.832  0.9677 -0.0591 -0.7074
 5221TIP3   OH237153   2.707   5.221  13.231  0.3763 -0.2193  0.2637
 5221TIP3    H137154   2.660   5.238  13.313  0.4966  3.5864 -0.2789
 5221TIP3    H237155   2.639   5.213  13.165  0.3468 -1.3674  0.4143
 5222TIP3   OH237156   5.596   3.104   0.443 -0.8514  0.1093  0.1759
 5222TIP3    H137157   5.639   3.093   0.358 -0.0876  2.3946  0.2129
 5222TIP3    H237158   5.656   3.065   0.506 -1.8029 -2.3746 -0.3260
 5223TIP3   OH237159   0.268   1.654   1.244  0.4089 -0.4172  0.3003
 5223TIP3    H137160   0.174   1.656   1.265 -0.0173 -0.8323 -1.4723
 5223TIP3    H237161   0.294   1.563   1.259  0.6626 -0.2083  1.2267
 5224TIP3   OH237162   0.975   3.257  14.181  0.4426 -0.0491 -0.5245
 5224TIP3    H137163   0.961   3.191  14.248 -0.4313 -0.0265 -0.6664
 5224TIP3    H237164   0.902   3.318  14.193  0.6510  0.3106 -1.0681
 5225TIP3   OH237165   5.863   5.478  13.275  0.0641  0.6587  0.1923
 5225TIP3    H137166   5.795   5.413  13.294  1.9958 -2.0056 -1.1474
 5225TIP3    H237167   5.916   5.482  13.354  1.3877 -1.5038 -0.4797
 5226TIP3   OH237168   3.494   2.824   5.139 -0.4678  0.0264  0.3829
 5226TIP3    H137169   3.509   2.750   5.079 -0.9053 -1.6726  2.2863
 5226TIP3    H237170   3.581   2.859   5.155 -0.3986  1.0356 -1.7940
 5227TIP3   OH237171   4.656   4.592  11.538  0.0735  0.1482 -0.7170
 5227TIP3    H137172   4.705   4.558  11.463 -0.8856  0.6424 -1.5896
 5227TIP3    H237173   4.565   4.587  11.511 -0.2393  1.0752  0.1143
 5228TIP3   OH237174   1.909   6.001  14.583 -0.0601  0.1861 -0.0823
 5228TIP3    H137175   1.870   5.942  14.518 -1.4341  0.4565  0.4558
 5228TIP3    H237176   1.836   6.054  14.614  0.5936  0.2162  1.5141
 5229TIP3   OH237177   4.044   5.612  11.622 -0.3857  0.1116 -0.0135
 5229TIP3    H137178   4.091   5.616  11.538 -1.0293 -0.4303 -0.4114
 5229TIP3    H237179   3.998   5.696  11.628  1.1326  0.9205  0.6948
 5230TIP3   OH237180   1.168   1.134   2.769  0.4413  0.1436 -0.0368
 5230TIP3    H137181   1.088   1.091   2.738  0.6202 -0.3298  0.1636
 5230TIP3    H237182   1.137   1.196   2.836  0.4436 -1.5307  1.5830
 5231TIP3   OH237183   2.267   1.376  11.301  0.7145 -0.3643  0.2697
 5231TIP3    H137184   2.333   1.432  11.260  0.4257 -0.3405 -0.1787
 5231TIP3    H237185   2.317   1.309  11.348  1.1078  1.1808  2.1713
 5232TIP3   OH237186   3.681   0.678  12.731  0.3724  0.3311 -0.2979
 5232TIP3    H137187   3.726   0.673  12.815 -2.4924  0.4257  1.3486
 5232TIP3    H237188   3.644   0.766  12.729 -2.6675 -0.8178  0.1274
 5233TIP3   OH237189   3.544   3.811  15.487 -0.1069  0.6892 -0.4951
 5233TIP3    H137190   3.514   3.727  15.452  1.1175  1.1988 -2.9358
 5233TIP3    H237191   3.464   3.860  15.505 -0.8025 -0.3534 -0.6926
 5234TIP3   OH237192   6.698   2.490   0.314 -0.1231 -0.0694  0.4229
 5234TIP3    H137193   6.726   2.403   0.344  1.0864  0.2410  0.2571
 5234TIP3    H237194   6.770   2.520   0.259  0.0386  1.5613  1.4730
 5235TIP3   OH237195   5.524   6.843  12.490  0.1714 -0.7615  0.2747
 5235TIP3    H137196   5.432   6.816  12.496  1.0135 -4.0436  0.0657
 5235TIP3    H237197   5.520   6.938  12.480 -3.2429 -0.8887 -0.8883
 5236TIP3   OH237198   0.302   3.658  14.331  0.2296 -0.5180  0.1874
 5236TIP3    H137199   0.245   3.708  14.273  0.6955  0.6525  0.7242
 5236TIP3    H237200   0.300   3.569  14.294 -0.6738 -0.1491 -0.7229
 5237TIP3   OH237201   5.242   6.817   9.797  0.1274 -0.1642  0.3328
 5237TIP3    H137202   5.261   6.830   9.890 -2.4307 -1.8055  1.2012
 5237TIP3    H237203   5.273   6.728   9.779 -0.2229 -0.1963 -0.1221
 5238TIP3   OH237204   6.091   0.215  11.011  0.0367  0.4734 -0.4290
 5238TIP3    H137205   6.114   0.303  11.041  0.2321  0.0666  0.6888
 5238TIP3    H237206   6.023   0.187  11.073 -1.0175  0.3560 -1.6059
 5239TIP3   OH237207   5.393   4.977   9.777 -0.4245  0.6704  0.5743
 5239TIP3    H137208   5.448   4.907   9.742 -0.7173  0.4854  0.4777
 5239TIP3    H237209   5.377   5.035   9.703 -3.0973 -1.0135 -0.3223
 5240TIP3   OH237210   4.557   3.957  12.794  0.3684  0.3123 -0.1984
 5240TIP3    H137211   4.589   4.037  12.835  1.7218  0.9898 -2.3742
 5240TIP3    H237212   4.635   3.904  12.779 -0.3272 -0.7739 -0.0943
 5241TIP3   OH237213   0.568   5.205  11.186  0.2046  0.1765 -0.7783
 5241TIP3    H137214   0.601   5.238  11.103  1.4954  2.9074  0.6884
 5241TIP3    H237215   0.527   5.280  11.227 -0.8613 -1.2277  0.8833
 5242TIP3   OH237216   6.207   6.237  15.540 -0.4990 -0.1268  0.6719
 5242TIP3    H137217   6.220   6.153  15.584 -1.6439 -0.4079  0.5017
 5242TIP3    H237218   6.296   6.267  15.520 -0.0101 -2.6780 -1.8568
 5243TIP3   OH237219   1.135   4.840  11.126  0.1941 -0.2764  0.3496
 5243TIP3    H137220   1.220   4.803  11.147 -0.4022 -3.4848 -2.0154
 5243TIP3    H237221   1.075   4.800  11.190 -0.0814 -1.4986 -0.6311
 5244TIP3   OH237222   1.847   3.860  12.347  0.1488  0.7807 -0.2930
 5244TIP3    H137223   1.818   3.925  12.411 -1.9559  0.3206 -0.7320
 5244TIP3    H237224   1.781   3.862  12.277  1.4572  0.0386 -1.6181
 5245TIP3   OH237225   3.262   2.601  13.595 -0.6140  0.5515 -0.5036
 5245TIP3    H137226   3.237   2.524  13.545  0.9091  0.5793 -1.3794
 5245TIP3    H237227   3.357   2.595  13.602 -0.5187  2.0697 -0.1381
 5246TIP3   OH237228   5.664   3.407  14.495  0.1780 -0.1546  0.0270
 5246TIP3    H137229   5.578   3.445  14.478  0.7518  0.8993 -0.6326
 5246TIP3    H237230   5.663   3.386  14.588  0.0197  2.0284  0.5714
 5247TIP3   OH237231   2.470   0.709   4.408 -0.7348 -0.1231 -0.4158
 5247TIP3    H137232   2.430   0.677   4.489 -1.6118  1.3470 -0.2265
 5247TIP3    H237233   2.554   0.747   4.435 -0.5608 -0.5562 -0.3519
 5248TIP3   OH237234   0.361   3.833  10.951  0.6056 -0.2105 -0.0652
 5248TIP3    H137235   0.290   3.787  10.905  0.5653  0.3561 -0.5864
 5248TIP3    H237236   0.437   3.824  10.894  1.7576 -3.2059  1.7515
 5249TIP3   OH237237   3.300   3.401   3.224 -0.1241  0.2181  0.3154
 5249TIP3    H137238   3.311   3.322   3.277  0.7336 -0.3803 -0.7156
 5249TIP3    H237239   3.302   3.473   3.287  0.8503 -0.4766  1.1074
 5250TIP3   OH237240   0.165   5.492   0.100  0.5441  0.8267 -0.1225
 5250TIP3    H137241   0.148   5.401   0.125  0.6885  0.8677  0.1278
 5250TIP3    H237242   0.249   5.514   0.142  1.6973  0.3479 -2.0644
 5251TIP3   OH237243   1.755   7.032   0.133 -0.3666 -0.3076  0.3525
 5251TIP3    H137244   1.766   6.966   0.201  1.8100 -0.0332  0.3625
 5251TIP3    H237245   1.748   6.982   0.051  0.6648 -0.5858  0.4214
 5252TIP3   OH237246   1.346   4.152   1.326  0.2881  0.1157  0.3710
 5252TIP3    H137247   1.351   4.153   1.230 -2.2232  1.0090  0.1624
 5252TIP3    H237248   1.433   4.124   1.354  0.6544 -1.7438 -2.1985
 5253TIP3   OH237249   3.207   5.577  10.233  0.4833  0.7317 -1.0423
 5253TIP3    H137250   3.294   5.613  10.245  0.3016  1.4964 -1.8470
 5253TIP3    H237251   3.198   5.567  10.138  0.7681 -2.1211 -0.8550
 5254TIP3   OH237252   0.920   2.952  13.359  0.4371  0.1437 -0.4045
 5254TIP3    H137253   0.847   2.997  13.317  0.2765  0.2648  0.0002
 5254TIP3    H237254   0.940   2.878  13.300  0.3059  0.3881 -0.7572
 5255TIP3   OH237255   5.209   0.274  10.528  0.1656  0.2475 -0.2807
 5255TIP3    H137256   5.252   0.350  10.568  1.0035 -1.3828  2.1165
 5255TIP3    H237257   5.232   0.281  10.435  0.9356  2.4267  0.0036
 5256TIP3   OH237258   0.703   6.995  12.902  0.7648 -0.9136  0.6007
 5256TIP3    H137259   0.737   7.048  12.975  0.3402 -3.9002  3.1685
 5256TIP3    H237260   0.620   7.037  12.880  0.9041  0.0773  1.8166
 5257TIP3   OH237261   3.157   6.396  10.607 -0.1439  0.2895  0.2245
 5257TIP3    H137262   3.095   6.342  10.656  0.8198 -0.1346  1.0087
 5257TIP3    H237263   3.241   6.353  10.619  0.4686  1.3777 -0.0321
 5258TIP3   OH237264   6.330   1.466  14.883 -0.1197 -0.7411  0.3105
 5258TIP3    H137265   6.317   1.523  14.958 -0.7416  2.2817 -1.8977
 5258TIP3    H237266   6.245   1.423  14.870 -1.1185  1.4052 -0.6365
 5259TIP3   OH237267   3.966   4.861  13.489  0.0498 -0.1561  0.0170
 5259TIP3    H137268   3.949   4.942  13.441  2.0481 -0.6471 -1.6962
 5259TIP3    H237269   4.040   4.882  13.546  1.7542 -1.1193 -1.7125
 5260TIP3   OH237270   6.897   2.177  15.206 -0.2378  0.1418 -0.2747
 5260TIP3    H137271   6.828   2.205  15.266  0.4873 -0.4711  0.8925
 5260TIP3    H237272   6.907   2.249  15.144 -2.5567 -0.1327 -1.0722
 5261TIP3   OH237273   5.957   4.195  11.246 -0.2577 -0.1811  0.2225
 5261TIP3    H137274   5.992   4.108  11.265 -0.4159 -0.4691 -0.7643
 5261TIP3    H237275   5.943   4.196  11.151  1.9562  1.7259 -0.1793
 5262TIP3   OH237276   6.301   0.203  12.088 -0.3039  0.1120 -0.1753
 5262TIP3    H137277   6.360   0.173  12.019 -0.0831  0.7409 -0.2632
 5262TIP3    H237278   6.352   0.268  12.137 -0.3783 -0.4810  0.7177
 5263TIP3   OH237279   2.492   3.837  11.682 -0.6752  0.3254 -0.0226
 5263TIP3    H137280   2.415   3.890  11.660 -0.9452  0.3156  0.8788
 5263TIP3    H237281   2.527   3.812  11.597 -1.3687  0.7601 -0.4576
 5264TIP3   OH237282   2.405   7.049   2.568  0.6325 -0.0632 -0.2702
 5264TIP3    H137283   2.358   7.132   2.572 -0.3463 -0.6273  0.4778
 5264TIP3    H237284   2.364   7.000   2.497  0.8723 -0.1123 -0.3793
 5265TIP3   OH237285   1.181   2.252   0.562 -0.0417 -0.2017  0.0532
 5265TIP3    H137286   1.129   2.320   0.518 -0.1874  0.4737  1.2176
 5265TIP3    H237287   1.137   2.239   0.646  0.7412 -0.8112  0.3797
 5266TIP3   OH237288   3.283   0.801   4.834 -0.3246  0.7188  0.9222
 5266TIP3    H137289   3.310   0.799   4.743 -0.7866 -2.1391  0.7634
 5266TIP3    H237290   3.364   0.800   4.884 -0.0747 -0.3610  0.5041
 5267TIP3   OH237291   0.309   4.303  12.634  0.1974 -0.3521 -0.0095
 5267TIP3    H137292   0.320   4.210  12.613 -0.8175 -0.2602 -1.0175
 5267TIP3    H237293   0.228   4.307  12.684 -0.3766  0.1114 -0.9483
 5268TIP3   OH237294   0.737   4.736  11.589 -0.7057  0.2280  0.0246
 5268TIP3    H137295   0.770   4.683  11.516  0.8612  0.9882  0.1551
 5268TIP3    H237296   0.649   4.701  11.606 -0.8804 -0.3274 -1.8527
 5269TIP3   OH237297   0.916   5.609  13.107  0.1966  0.1940 -0.3007
 5269TIP3    H137298   0.887   5.602  13.016 -0.5394  3.4838 -0.4307
 5269TIP3    H237299   0.993   5.666  13.103  0.0727  0.4944  1.1471
 5270TIP3   OH237300   6.276   6.928  15.122 -0.5754 -0.1035 -0.4435
 5270TIP3    H137301   6.327   6.852  15.093 -0.5276  0.1169 -0.9468
 5270TIP3    H237302   6.318   7.002  15.079  0.5190  0.4466  1.4711
 5271TIP3   OH237303   4.556   6.312  15.129  0.2910 -0.1162 -0.2033
 5271TIP3    H137304   4.554   6.373  15.203  0.1298  1.4786 -1.4604
 5271TIP3    H237305   4.649   6.296  15.114  0.4519  1.4585 -1.1031
 5272TIP3   OH237306   6.330   1.122  12.147  0.0087  0.3486  0.5097
 5272TIP3    H137307   6.318   1.033  12.115 -0.0025  0.7061 -0.5467
 5272TIP3    H237308   6.264   1.173  12.100  0.0772  0.9309  1.0314
 5273TIP3   OH237309   4.320   3.361  12.966  0.4423 -0.1164  0.0146
 5273TIP3    H137310   4.228   3.386  12.957  0.5993  0.6639  0.4852
 5273TIP3    H237311   4.359   3.380  12.881 -0.0086 -1.2919 -0.4777
 5274TIP3   OH237312   0.209   5.315  13.205 -0.1425 -0.1717 -0.0791
 5274TIP3    H137313   0.116   5.325  13.181 -0.1729 -0.9835 -0.3486
 5274TIP3    H237314   0.248   5.400  13.187 -0.7510  0.0498 -0.3759
 5275TIP3   OH237315   6.969   1.391   2.072 -0.0370 -0.5262  0.0441
 5275TIP3    H137316   6.942   1.440   1.994  1.8809 -0.4444 -0.6132
 5275TIP3    H237317   6.961   1.299   2.046 -1.4943 -0.5641  0.5282
 5276TIP3   OH237318   3.320   2.212  11.379  0.1179 -0.3295 -0.2751
 5276TIP3    H137319   3.385   2.275  11.412 -0.8062  0.3676  0.2592
 5276TIP3    H237320   3.316   2.230  11.285  0.2325  0.0724 -0.2087
 5277TIP3   OH237321   2.902   5.113  12.919  0.1149  0.0325 -0.1038
 5277TIP3    H137322   2.925   5.109  12.827  0.6654 -1.9187  0.0720
 5277TIP3    H237323   2.937   5.032  12.956 -2.7254 -0.7088  1.2049
 5278TIP3   OH237324   1.674   7.113   1.880 -0.3231  0.0466  0.1868
 5278TIP3    H137325   1.733   7.120   1.955 -1.0244  0.1142  0.7360
 5278TIP3    H237326   1.641   7.023   1.883 -0.3251  0.0365 -0.0639
 5279TIP3   OH237327   4.546   0.456   4.144 -0.6968 -0.3076 -0.6989
 5279TIP3    H137328   4.588   0.418   4.066 -0.4971 -0.7617 -0.3750
 5279TIP3    H237329   4.467   0.405   4.156 -0.0776 -1.0912  0.1435
 5280TIP3   OH237330   2.494   2.695   0.203  0.6319  0.1559 -0.1145
 5280TIP3    H137331   2.530   2.656   0.123 -0.6603  0.5197 -0.8941
 5280TIP3    H237332   2.528   2.784   0.202  0.1154  0.3551 -0.6021
 5281TIP3   OH237333   3.955   4.647  11.190 -0.0247 -0.2324  0.2651
 5281TIP3    H137334   4.037   4.610  11.158 -0.2017  0.2234 -0.7347
 5281TIP3    H237335   3.901   4.658  11.112 -0.9217 -0.2250  0.8702
 5282TIP3   OH237336   0.334   0.142   2.106  0.6191  0.1785  0.1154
 5282TIP3    H137337   0.354   0.179   2.192 -0.2642  2.7386 -0.6635
 5282TIP3    H237338   0.255   0.090   2.120  2.7535 -2.9492  1.5529
 5283TIP3   OH237339   1.565   0.754  14.400 -0.6366  0.5409  0.0362
 5283TIP3    H137340   1.574   0.847  14.417 -0.0165  0.5442 -0.3070
 5283TIP3    H237341   1.609   0.739  14.317  0.7438 -0.3403  0.8859
 5284TIP3   OH237342   0.025   2.882  13.430  0.2739  0.0212 -0.2121
 5284TIP3    H137343  -0.034   2.883  13.355  0.2124  1.1143 -0.1561
 5284TIP3    H237344   0.112   2.892  13.392  0.1798  1.4155 -0.0969
 5285TIP3   OH237345   1.215   5.781   3.901  0.3101  0.5849 -0.0990
 5285TIP3    H137346   1.281   5.828   3.951  0.1526  1.1044 -0.3725
 5285TIP3    H237347   1.152   5.848   3.875 -1.0121 -0.0885  1.2233
 5286TIP3   OH237348   5.285   0.186   9.727  0.4022 -0.7296  0.5582
 5286TIP3    H137349   5.220   0.128   9.688  0.2539  1.5047 -3.0131
 5286TIP3    H237350   5.363   0.132   9.737 -0.6148 -2.2888  0.4487
 5287TIP3   OH237351   1.664   4.876  13.196 -0.0200 -0.5738 -0.0668
 5287TIP3    H137352   1.616   4.884  13.113  0.7999 -1.4896 -0.6462
 5287TIP3    H237353   1.752   4.909  13.176 -0.3697  1.1668  1.0076
 5288TIP3   OH237354   2.989   6.504  15.259 -0.0851 -0.3220  0.7694
 5288TIP3    H137355   3.047   6.428  15.268 -1.2858 -1.5847 -1.4296
 5288TIP3    H237356   3.038   6.565  15.203 -0.3442 -0.8374 -0.0311
 5289TIP3   OH237357   3.217   4.786   1.157 -0.0110  0.1839 -0.6458
 5289TIP3    H137358   3.217   4.789   1.061 -0.6132  1.0229 -0.6293
 5289TIP3    H237359   3.135   4.829   1.182 -0.8550 -1.7463  0.1962
 5290TIP3   OH237360   5.992   0.796  13.821 -0.1005 -0.3493  0.0615
 5290TIP3    H137361   6.021   0.867  13.878  1.9303 -0.6648 -0.4931
 5290TIP3    H237362   6.032   0.717  13.857 -1.9581 -1.1919  0.4114
 5291TIP3   OH237363   6.654   0.344   2.001  0.8641  0.0037 -0.0941
 5291TIP3    H137364   6.645   0.256   1.965  0.5229  1.2683 -3.5560
 5291TIP3    H237365   6.564   0.376   2.008  1.0460  0.8454 -1.2546
 5292TIP3   OH237366   0.538   4.166  10.463  0.0031  0.4556  0.3480
 5292TIP3    H137367   0.454   4.173  10.417  0.5281  1.8740 -0.4280
 5292TIP3    H237368   0.538   4.239  10.524  0.3492 -0.0131  0.9169
 5293TIP3   OH237369   4.357   2.778  12.358  0.9710  0.2844 -0.5278
 5293TIP3    H137370   4.342   2.752  12.267 -2.3879 -0.5139  0.1265
 5293TIP3    H237371   4.437   2.731  12.383  1.3924 -0.3060 -2.7437
 5294TIP3   OH237372   7.074   0.985   3.373 -0.0615 -0.3696 -0.7513
 5294TIP3    H137373   7.127   1.004   3.295 -0.2045  2.0440 -0.3496
 5294TIP3    H237374   7.138   0.983   3.445 -0.1615 -0.5670 -0.6678
 5295TIP3   OH237375   6.730   1.558   0.913 -0.0239 -0.1976 -0.2156
 5295TIP3    H137376   6.703   1.639   0.870 -2.4427 -0.9498 -0.2839
 5295TIP3    H237377   6.680   1.489   0.869  1.5667 -1.6850  0.1930
 5296TIP3   OH237378   3.441   1.216  15.281 -0.0209 -0.0137  0.0098
 5296TIP3    H137379   3.408   1.304  15.265  1.0225  0.0645 -2.0318
 5296TIP3    H237380   3.523   1.230  15.329  1.2238  0.3189 -2.0972
 5297TIP3   OH237381   4.238   0.041  15.596 -0.7003  0.5222 -0.4375
 5297TIP3    H137382   4.243  -0.054  15.611  1.5584  0.5156 -0.8847
 5297TIP3    H237383   4.149   0.055  15.563 -0.6241 -1.6687 -1.8109
 5298TIP3   OH237384   6.468   4.713  10.155 -0.2744  0.7968  0.5343
 5298TIP3    H137385   6.463   4.618  10.150 -0.0691  0.5565  3.3967
 5298TIP3    H237386   6.553   4.735  10.117 -1.0836  0.0855 -1.8466
 5299TIP3   OH237387   5.109   1.227  14.804  0.1453 -0.2403 -0.2040
 5299TIP3    H137388   5.070   1.304  14.763  0.4192 -0.4302 -0.8393
 5299TIP3    H237389   5.099   1.242  14.898  1.4016  1.2096 -0.2740
 5300TIP3   OH237390   6.358   2.918  12.490  0.6992  0.3334 -0.2149
 5300TIP3    H137391   6.419   2.871  12.432  1.6778 -0.3982  1.3429
 5300TIP3    H237392   6.293   2.853  12.515  0.2549  0.6591 -0.4976
 5301TIP3   OH237393   4.920   6.535  14.852 -0.0048  0.6013  0.5336
 5301TIP3    H137394   5.010   6.518  14.878  0.0498  2.9456  2.3113
 5301TIP3    H237395   4.869   6.464  14.892  0.9618 -0.3311  0.1350
 5302TIP3   OH237396   6.454   5.096  14.067  0.0873 -0.0582  0.5685
 5302TIP3    H137397   6.516   5.127  14.001 -0.3484 -0.5438 -0.0873
 5302TIP3    H237398   6.442   5.003  14.046  0.8094 -0.5342  2.0333
 5303TIP3   OH237399   4.319   4.106   5.608 -0.0733 -0.3402 -0.2476
 5303TIP3    H137400   4.301   4.085   5.517 -0.7746 -0.1904 -0.1510
 5303TIP3    H237401   4.232   4.116   5.648  0.2161 -1.0486  0.5891
 5304TIP3   OH237402   0.072   4.797  11.092 -0.0911  0.0124  0.3148
 5304TIP3    H137403   0.069   4.710  11.052 -1.4318  0.5678 -0.8549
 5304TIP3    H237404   0.014   4.791  11.168  1.3687 -0.6418  1.4350
 5305TIP3   OH237405   0.083   2.045   2.428  0.5234 -0.2719 -0.1233
 5305TIP3    H137406   0.117   1.981   2.365  1.5887 -0.5053  0.6648
 5305TIP3    H237407   0.149   2.114   2.431  0.6243 -0.3927  0.9272
 5306TIP3   OH237408   7.053   3.509   4.750 -0.0019  0.0504 -0.2666
 5306TIP3    H137409   7.098   3.593   4.755 -0.6677  0.3361  1.6772
 5306TIP3    H237410   7.044   3.481   4.841  1.9454 -3.0961 -0.8812
 5307TIP3   OH237411   0.580   4.372  10.044 -0.1569 -0.3160 -0.5906
 5307TIP3    H137412   0.529   4.290  10.042  2.4361 -2.0814  0.4324
 5307TIP3    H237413   0.639   4.365   9.969  0.0782  0.6615 -0.5098
 5308TIP3   OH237414   7.125   3.870  13.432 -0.3700  0.8517 -0.2220
 5308TIP3    H137415   7.185   3.808  13.391  0.5130  1.2416  0.4394
 5308TIP3    H237416   7.151   3.871  13.524 -1.9079  0.4634  0.2384
 5309TIP3   OH237417   1.417   6.650   2.089 -0.3160 -0.4493 -0.0956
 5309TIP3    H137418   1.484   6.672   2.153 -1.2478  2.1661  0.0951
 5309TIP3    H237419   1.342   6.623   2.141  0.6100 -3.9955 -0.3158
 5310TIP3   OH237420   1.146   7.011  10.200 -0.3114 -0.6959  0.1721
 5310TIP3    H137421   1.175   6.974  10.116 -0.8122  0.8004 -0.7000
 5310TIP3    H237422   1.079   6.950  10.231 -1.0021 -0.6468 -1.1463
 5311TIP3   OH237423   4.620   4.550   0.238 -0.4189 -0.0578 -0.0374
 5311TIP3    H137424   4.528   4.568   0.224 -0.1566  0.0597 -1.8490
 5311TIP3    H237425   4.657   4.543   0.150  1.2797 -0.1963  0.6462
 5312TIP3   OH237426   4.085   0.111  11.891 -0.8879  0.0885 -0.2085
 5312TIP3    H137427   4.126   0.025  11.881 -0.1291  0.3891  0.1795
 5312TIP3    H237428   4.030   0.103  11.969 -3.0294 -0.8432 -1.7311
 5313TIP3   OH237429   6.524   6.100  12.075  0.0538 -0.2775  0.1332
 5313TIP3    H137430   6.469   6.104  12.153 -1.5001 -0.3780 -0.9265
 5313TIP3    H237431   6.495   6.174  12.021  1.1920 -0.1329 -0.3169
 5314TIP3   OH237432   4.686   3.809  13.536 -0.6858 -0.0768  0.3455
 5314TIP3    H137433   4.746   3.743  13.501 -0.6404  1.3317 -2.4701
 5314TIP3    H237434   4.622   3.823  13.467 -0.5712  2.9557  0.7199
 5315TIP3   OH237435   1.474   6.793  11.908 -0.2432 -0.0128  0.6347
 5315TIP3    H137436   1.550   6.764  11.958 -0.5734  2.2269  2.5717
 5315TIP3    H237437   1.429   6.856  11.964 -1.7326  1.2201 -1.7315
 5316TIP3   OH237438   3.107   2.269  14.969 -0.2425 -0.1816 -0.3898
 5316TIP3    H137439   3.159   2.194  14.940  1.4958  0.9260 -0.2799
 5316TIP3    H237440   3.055   2.293  14.891 -0.6775 -1.3539 -0.4785
 5317TIP3   OH237441   6.089   0.263  12.924 -1.0881 -0.1149  0.3693
 5317TIP3    H137442   6.045   0.186  12.886 -0.4280  0.0163 -0.6791
 5317TIP3    H237443   6.038   0.337  12.892 -1.7527 -0.0928  1.4183
 5318TIP3   OH237444   2.850   1.635  10.348  0.1783  0.0218  0.1726
 5318TIP3    H137445   2.833   1.612  10.257  0.5583 -0.4033  0.2026
 5318TIP3    H237446   2.915   1.571  10.377  0.9030  0.8489  0.4094
 5319TIP3   OH237447   3.658   5.274  10.416  0.1974 -0.0984  0.3222
 5319TIP3    H137448   3.698   5.351  10.377 -1.3581  0.8525  0.4971
 5319TIP3    H237449   3.676   5.283  10.510  0.5734 -0.2984  0.2703
 5320TIP3   OH237450   3.141   3.857   1.375 -0.2240  0.7659  0.0065
 5320TIP3    H137451   3.198   3.918   1.422  0.6898  0.3108 -0.4721
 5320TIP3    H237452   3.073   3.833   1.438  1.0074  0.1143  1.1318
 5321TIP3   OH237453   4.169   5.680  11.334  0.0926  0.0351  0.3811
 5321TIP3    H137454   4.202   5.767  11.314 -0.4072  0.1541  0.0512
 5321TIP3    H237455   4.081   5.679  11.297  0.7355 -1.2346 -1.1850
 5322TIP3   OH237456   6.177   0.177  15.037  0.7286  1.0751 -0.2312
 5322TIP3    H137457   6.243   0.235  15.076 -1.0630  2.5657  0.7187
 5322TIP3    H237458   6.119   0.235  14.989 -0.9552  0.0461  0.4694
 5323TIP3   OH237459   5.014   1.394  12.053  0.6596  0.0656 -0.1084
 5323TIP3    H137460   5.037   1.411  11.962  2.9291 -0.3598  0.3217
 5323TIP3    H237461   5.087   1.431  12.103  0.4695 -1.5050  1.4164
 5324TIP3   OH237462   3.937   3.618   0.943 -0.2636  0.0976 -0.5359
 5324TIP3    H137463   3.909   3.563   0.871  1.8098  0.1751 -1.4659
 5324TIP3    H237464   4.016   3.662   0.911 -0.2632  1.4683  1.1683
 5325TIP3   OH237465   2.033   5.765  15.513 -0.4653 -0.0596 -0.0345
 5325TIP3    H137466   2.026   5.782  15.607  0.2602 -0.7142  0.1553
 5325TIP3    H237467   2.067   5.675  15.507  0.0053  0.1576 -0.9065
 5326TIP3   OH237468   4.888   3.838  12.493  0.0060 -0.1732 -0.0949
 5326TIP3    H137469   4.857   3.827  12.403  0.2582 -0.4242 -0.1536
 5326TIP3    H237470   4.853   3.923  12.520  0.2953  0.1049 -0.5786
 5327TIP3   OH237471   7.050   5.310  11.924  0.5197  0.2323  0.8238
 5327TIP3    H137472   7.144   5.302  11.914  0.4998  0.3191  0.5800
 5327TIP3    H237473   7.038   5.384  11.983  0.5316  1.7186 -0.9634
 5328TIP3   OH237474   0.493   7.053  10.660 -0.2180 -0.0580 -0.2983
 5328TIP3    H137475   0.491   7.137  10.706 -1.2035 -0.5591  0.6217
 5328TIP3    H237476   0.440   7.066  10.582  0.9446  0.6163 -1.0022
 5329TIP3   OH237477   1.562   3.398   1.302 -0.0827  0.5663  0.1866
 5329TIP3    H137478   1.615   3.320   1.286  0.7723  1.0497  0.6077
 5329TIP3    H237479   1.625   3.466   1.324 -0.5812  2.0284 -2.4707
 5330TIP3   OH237480   3.924   5.166  11.058 -0.1917  0.2428  0.1076
 5330TIP3    H137481   3.908   5.220  10.981  0.0217  1.8046  1.1143
 5330TIP3    H237482   3.836   5.144  11.090 -0.2776  0.3173 -0.0732
 5331TIP3   OH237483   0.166   2.184   3.598 -0.1849 -0.2627 -0.4379
 5331TIP3    H137484   0.229   2.163   3.667  1.0663 -1.9893 -1.9953
 5331TIP3    H237485   0.195   2.268   3.564  0.3666 -0.3215 -0.1279
 5332TIP3   OH237486   4.217   6.303  12.979  0.1612 -0.0372 -0.9270
 5332TIP3    H137487   4.248   6.379  12.930 -0.5339  0.1059 -1.1427
 5332TIP3    H237488   4.203   6.236  12.912  0.1506 -0.1547 -0.8078
 5333TIP3   OH237489   6.328   6.274  11.560 -0.0552  0.1764  0.2031
 5333TIP3    H137490   6.303   6.208  11.497  3.6403 -1.8640  0.5451
 5333TIP3    H237491   6.363   6.346  11.508 -0.8133  0.3057 -0.1252
 5334TIP3   OH237492   6.871   3.358  12.911  0.4800 -0.9944 -0.2872
 5334TIP3    H137493   6.881   3.353  13.006  0.9639  0.7309 -0.2112
 5334TIP3    H237494   6.918   3.438  12.886 -2.2829  0.3753 -1.5513
 5335TIP3   OH237495   3.645   7.091  10.307 -0.5322  0.0132 -0.0601
 5335TIP3    H137496   3.672   7.019  10.250  1.6444  1.4553 -0.9520
 5335TIP3    H237497   3.655   7.055  10.396 -3.4798 -2.0849 -0.4092
 5336TIP3   OH237498   3.245   6.116  10.393  0.6814 -0.7512 -0.1505
 5336TIP3    H137499   3.281   6.139  10.478  0.8056 -1.4234 -0.0114
 5336TIP3    H237500   3.313   6.139  10.331  0.4405  0.0909 -0.1059
 5337TIP3   OH237501   1.206   2.599  15.190 -0.2456 -0.6115 -0.6140
 5337TIP3    H137502   1.205   2.575  15.283 -1.9457 -0.0441 -0.4479
 5337TIP3    H237503   1.179   2.691  15.189 -0.0992 -0.5731 -1.6576
 5338TIP3   OH237504   5.175   5.101  13.795 -0.0729 -0.1769  0.7205
 5338TIP3    H137505   5.127   5.183  13.807 -0.3140 -0.2721  0.4149
 5338TIP3    H237506   5.258   5.127  13.755 -0.0480 -0.0603  0.8463
 5339TIP3   OH237507   0.780   0.022  14.232  0.0687 -0.5645  0.3212
 5339TIP3    H137508   0.715   0.033  14.301 -0.0899 -0.7560  0.2043
 5339TIP3    H237509   0.857  -0.015  14.277  0.7260  1.2563  0.7769
 5340TIP3   OH237510   5.149   5.353   3.779  0.2926  0.4845  0.1082
 5340TIP3    H137511   5.100   5.280   3.817  1.2389  0.0164  0.4582
 5340TIP3    H237512   5.142   5.423   3.844  0.1475  0.3967  0.1875
 5341TIP3   OH237513   4.092   1.247   2.852 -0.1353  0.1246  0.3876
 5341TIP3    H137514   4.183   1.217   2.850  0.0107  0.5763 -1.0790
 5341TIP3    H237515   4.096   1.339   2.829 -0.7657  0.8397  2.9088
 5342TIP3   OH237516   1.568   5.255   4.854 -0.2779  0.0857  0.3964
 5342TIP3    H137517   1.557   5.160   4.860  1.9218 -0.3650 -1.3394
 5342TIP3    H237518   1.497   5.284   4.797  0.4363 -0.9107 -1.0492
 5343TIP3   OH237519   3.173   6.711  10.308 -0.0985 -0.1179  0.5425
 5343TIP3    H137520   3.178   6.661  10.390  1.7910  0.5093  0.8426
 5343TIP3    H237521   3.146   6.799  10.335 -2.2868 -0.6024  0.1354
 5344TIP3   OH237522   6.484   5.587   3.874 -0.5707  0.1894  0.0818
 5344TIP3    H137523   6.419   5.587   3.804 -0.1013 -0.9991 -0.3794
 5344TIP3    H237524   6.550   5.651   3.847 -0.6364  0.0849 -0.3316
 5345TIP3   OH237525   0.845   1.122   1.217 -0.0318  0.1824 -0.0180
 5345TIP3    H137526   0.921   1.174   1.245 -0.0456 -0.5664  1.5459
 5345TIP3    H237527   0.769   1.174   1.243 -0.0462  0.2843 -0.2672
 5346TIP3   OH237528   2.924   5.957  10.943  0.2556  0.7395  0.0366
 5346TIP3    H137529   2.940   5.866  10.921 -0.2591  0.8640 -0.9385
 5346TIP3    H237530   3.011   5.992  10.965  0.8267  0.5540 -1.7495
 5347TIP3   OH237531   4.049   0.392   2.174 -0.1506 -0.7281  0.2358
 5347TIP3    H137532   4.001   0.378   2.092 -0.1892 -0.4481  0.2064
 5347TIP3    H237533   4.069   0.486   2.173 -4.7469  0.5944  2.9588
 5348TIP3   OH237534   0.997   3.560  11.350 -0.1790 -0.7485  0.2265
 5348TIP3    H137535   1.059   3.503  11.303 -1.8292 -2.4642 -0.0185
 5348TIP3    H237536   0.942   3.597  11.281  0.7549  1.0974  0.4069
 5349TIP3   OH237537   3.409   5.294   1.054  0.1703  0.2994 -0.1138
 5349TIP3    H137538   3.340   5.232   1.029 -0.1237  1.0140 -1.1621
 5349TIP3    H237539   3.486   5.240   1.068 -0.3365 -0.4059  0.0104
 5350TIP3   OH237540   0.598   5.597  15.287  0.1780  0.1645 -0.0864
 5350TIP3    H137541   0.573   5.532  15.353 -1.9373  1.3450  0.3813
 5350TIP3    H237542   0.618   5.676  15.338 -0.9162  0.9273 -0.7830
 5351TIP3   OH237543   6.131   2.151  10.575  0.6096  0.8693 -0.2607
 5351TIP3    H137544   6.166   2.127  10.660 -0.7349  0.2570  0.1398
 5351TIP3    H237545   6.037   2.163  10.589  0.6643  3.0191 -1.1814
 5352TIP3   OH237546   6.677   2.744   0.174 -0.4149  0.3221  0.4862
 5352TIP3    H137547   6.634   2.809   0.229 -2.1101 -1.1428  0.9882
 5352TIP3    H237548   6.605   2.695   0.134  0.7522 -1.9897  1.0304
 5353TIP3   OH237549   0.341   0.662  10.332  0.1642  0.4412 -0.3748
 5353TIP3    H137550   0.277   0.702  10.274  0.0650 -0.3166 -0.8002
 5353TIP3    H237551   0.395   0.735  10.362 -1.5802  1.2794  0.9079
 5354TIP3   OH237552   7.030   4.642  10.141  0.0720  0.2161 -0.0238
 5354TIP3    H137553   7.003   4.604  10.058  1.8391  0.8427 -0.9453
 5354TIP3    H237554   7.108   4.694  10.120  0.8508  0.0412  2.0892
 5355TIP3   OH237555   4.755   0.221  12.709 -0.0083  0.1128  0.0679
 5355TIP3    H137556   4.779   0.226  12.802 -1.0045  0.4531  0.3193
 5355TIP3    H237557   4.761   0.311  12.678  0.1384  0.0278 -0.1490
 5356TIP3   OH237558   5.064   3.918  14.846 -0.7325 -0.6398 -0.4019
 5356TIP3    H137559   5.154   3.944  14.862 -1.3431  1.4529 -0.0653
 5356TIP3    H237560   5.021   3.926  14.931 -1.3512 -1.0807 -0.6644
 5357TIP3   OH237561   4.422   3.222   2.222  0.0806  0.0692 -0.5629
 5357TIP3    H137562   4.455   3.309   2.199  0.1602  0.7302  1.7606
 5357TIP3    H237563   4.494   3.182   2.272 -0.9217 -0.2503  0.6864
 5358TIP3   OH237564   3.140   6.259  14.929  0.6038 -0.5321 -0.5279
 5358TIP3    H137565   3.168   6.169  14.945  0.4627 -1.2284 -3.5590
 5358TIP3    H237566   3.215   6.301  14.887  0.3084  0.4467 -0.1039
 5359TIP3   OH237567   1.191   3.323  12.770  0.0840  0.4552 -0.3583
 5359TIP3    H137568   1.139   3.380  12.828  0.1800  1.3195 -1.0987
 5359TIP3    H237569   1.181   3.362  12.683  0.3928 -0.5074 -0.8372
 5360TIP3   OH237570   4.792   2.834  14.050  0.6692  0.5784  0.5906
 5360TIP3    H137571   4.859   2.781  14.094 -0.2551 -0.8367  0.3594
 5360TIP3    H237572   4.710   2.808  14.092  0.1143  1.3508  0.0060
 5361TIP3   OH237573   1.684   4.488  11.701 -0.0713  0.0388 -0.0917
 5361TIP3    H137574   1.635   4.415  11.738 -0.4269  0.7268  0.8458
 5361TIP3    H237575   1.762   4.494  11.756 -0.5709  1.0269  0.5445
 5362TIP3   OH237576   1.613   1.209  13.570 -0.0280 -0.0050  0.1189
 5362TIP3    H137577   1.532   1.186  13.615 -0.7272  1.4254 -0.3506
 5362TIP3    H237578   1.615   1.305  13.571  1.6701 -0.0160  0.1284
 5363TIP3   OH237579   5.405   3.546  10.506 -0.3886 -0.1447 -0.3443
 5363TIP3    H137580   5.390   3.577  10.416 -1.7209 -0.5480 -0.2849
 5363TIP3    H237581   5.489   3.584  10.531 -1.3214  2.3860 -0.7357
 5364TIP3   OH237582   2.980   4.534   0.937  0.3908  0.2594 -0.4903
 5364TIP3    H137583   2.974   4.466   1.004 -0.1157  1.4974  0.7683
 5364TIP3    H237584   2.910   4.596   0.959  1.1786  1.4763 -1.2525
 5365TIP3   OH237585   3.830   5.790  11.575  0.5428  0.4109 -0.4562
 5365TIP3    H137586   3.757   5.766  11.633  1.7352 -1.2975  0.4227
 5365TIP3    H237587   3.806   5.752  11.490 -1.5350  3.4995 -1.4128
 5366TIP3   OH237588   6.914   6.832  12.744  0.1400  0.1415 -0.1252
 5366TIP3    H137589   6.843   6.873  12.794 -0.1329 -0.7322  0.2203
 5366TIP3    H237590   6.891   6.739  12.741  1.0364 -0.0806 -0.4105
 5367TIP3   OH237591   3.714   7.054   0.292 -0.1957  0.2213  0.2289
 5367TIP3    H137592   3.692   7.005   0.372 -0.3056 -0.8549 -0.4411
 5367TIP3    H237593   3.707   6.989   0.222  1.0299  0.8780 -0.5260
 5368TIP3   OH237594   1.854   3.099  10.896  0.2946 -0.6270 -0.2655
 5368TIP3    H137595   1.826   3.182  10.857 -1.7254 -1.4450 -0.6942
 5368TIP3    H237596   1.944   3.115  10.925  0.5832  1.1483 -1.9399
 5369TIP3   OH237597   5.335   3.683  14.890  0.1794 -0.1621  0.6303
 5369TIP3    H137598   5.404   3.702  14.826  0.5332 -0.9922  0.7425
 5369TIP3    H237599   5.362   3.731  14.969  0.1569  0.2307  0.4010
 5370TIP3   OH237600   2.658   4.665   0.763  0.5233  0.5809  0.5211
 5370TIP3    H137601   2.710   4.713   0.828  0.3883  4.3367 -1.8588
 5370TIP3    H237602   2.568   4.674   0.793  0.6084  0.7746  0.7210
 5371TIP3   OH237603   6.229   6.677   1.573 -0.5822  0.0945  1.0311
 5371TIP3    H137604   6.266   6.749   1.624 -0.9216  0.7315  0.3950
 5371TIP3    H237605   6.249   6.699   1.482 -1.9306  0.1184  0.7224
 5372TIP3   OH237606   4.436   2.131  13.091  0.2695  0.2047 -0.2240
 5372TIP3    H137607   4.472   2.194  13.029 -0.5037  0.1969 -0.6905
 5372TIP3    H237608   4.479   2.152  13.174 -0.2912  1.6227 -0.2703
 5373TIP3   OH237609   3.222   6.740  11.056 -0.0146  0.4964 -0.4244
 5373TIP3    H137610   3.246   6.774  11.142  1.3837 -0.3062 -0.4723
 5373TIP3    H237611   3.132   6.770  11.043 -0.1065  0.9869  1.1240
 5374TIP3   OH237612   6.201   0.682   9.119 -0.6041  0.3392  0.5474
 5374TIP3    H137613   6.257   0.604   9.125 -0.3545  0.4879  0.1991
 5374TIP3    H237614   6.124   0.659   9.170 -2.1277 -1.5541 -2.2641
 5375TIP3   OH237615   4.589   1.026  15.193 -0.3523 -0.0266 -0.0288
 5375TIP3    H137616   4.596   1.079  15.273 -1.4537  0.8866 -0.5039
 5375TIP3    H237617   4.547   0.945  15.222  2.4345 -1.2551  0.9322
 5376TIP3   OH237618   6.325   3.395  13.504 -0.4083  0.2680  0.8845
 5376TIP3    H137619   6.285   3.469  13.458 -2.2869 -1.2752 -0.1022
 5376TIP3    H237620   6.256   3.362  13.562  0.1735 -1.0672  0.8612
 5377TIP3   OH237621   6.643   7.142   9.864 -0.0343 -0.2199 -0.4761
 5377TIP3    H137622   6.594   7.075   9.816  0.6297 -1.4981  0.5577
 5377TIP3    H237623   6.689   7.191   9.797  0.1290 -1.3472 -1.2208
 5378TIP3   OH237624   2.129   2.297  11.080 -0.0039 -0.2015  0.1241
 5378TIP3    H137625   2.143   2.214  11.034 -0.3185  0.1130 -0.5679
 5378TIP3    H237626   2.184   2.360  11.032 -0.6709  0.2233 -0.1031
 5379TIP3   OH237627   2.924   0.234  15.576  0.0179  0.2210  0.4086
 5379TIP3    H137628   2.858   0.255  15.643 -1.1082 -0.5454 -0.4255
 5379TIP3    H237629   2.907   0.143  15.553  1.3999  0.0045  0.1769
 5380TIP3   OH237630   3.497   5.136  11.303  0.2642 -0.6320  0.0310
 5380TIP3    H137631   3.441   5.111  11.378  1.5741 -0.3337  1.1509
 5380TIP3    H237632   3.573   5.178  11.343  0.8001 -0.0557 -1.5211
 5381TIP3   OH237633   3.959   6.787   2.303 -0.2097  0.3409  0.3416
 5381TIP3    H137634   3.966   6.711   2.361  2.3271 -0.9823 -1.4486
 5381TIP3    H237635   3.937   6.750   2.218  2.0121  1.3847 -0.7928
 5382TIP3   OH237636   0.484   0.149  13.017 -0.3660  0.0639 -0.4161
 5382TIP3    H137637   0.504   0.126  12.926 -1.6111 -0.1109 -0.6583
 5382TIP3    H237638   0.460   0.066  13.058  0.5709  0.0790  0.1886
 5383TIP3   OH237639   1.502   5.264  11.720  0.0570 -0.8666  0.2596
 5383TIP3    H137640   1.507   5.286  11.813  0.3261 -0.5906  0.1815
 5383TIP3    H237641   1.593   5.253  11.693 -0.0922 -4.3397  0.8156
 5384TIP3   OH237642   1.977   3.423  10.454  0.2229 -0.2088 -0.9110
 5384TIP3    H137643   1.964   3.465  10.539  0.0914 -1.4783 -0.2793
 5384TIP3    H237644   1.902   3.451  10.401 -0.9980 -1.2989  0.1828
 5385TIP3   OH237645   3.837   1.376   5.093 -0.1896 -0.0066  0.3106
 5385TIP3    H137646   3.892   1.372   5.171 -1.3177 -0.3782  1.1193
 5385TIP3    H237647   3.817   1.469   5.082 -2.1879 -0.1394  2.0904
 5386TIP3   OH237648   0.722   3.972  14.988  0.4312  0.3988 -0.3060
 5386TIP3    H137649   0.667   3.902  15.024  2.7456 -1.1389  0.5059
 5386TIP3    H237650   0.709   4.046  15.048  0.4470 -0.4819  0.8238
 5387TIP3   OH237651   5.602   1.577  12.371  0.3798 -0.4631  0.2446
 5387TIP3    H137652   5.567   1.655  12.327  1.1368  0.1242  0.6527
 5387TIP3    H237653   5.686   1.561  12.327 -0.1220 -1.5404 -0.3737
 5388TIP3   OH237654   0.243   5.555  12.854  0.0001 -0.3180  0.1677
 5388TIP3    H137655   0.198   5.637  12.832  0.0972 -0.7836 -1.9668
 5388TIP3    H237656   0.232   5.547  12.949 -2.0502  0.9795  0.1181
 5389TIP3   OH237657   1.410   2.406  10.326 -0.0172 -0.2832  0.1370
 5389TIP3    H137658   1.390   2.499  10.332 -1.0024 -0.1933 -2.9434
 5389TIP3    H237659   1.437   2.392  10.235  3.3385 -2.4897  1.2902
 5390TIP3   OH237660   1.874   6.695  14.472 -0.3706  0.1599 -0.2110
 5390TIP3    H137661   1.791   6.741  14.484  0.4776  1.5667  0.6095
 5390TIP3    H237662   1.855   6.605  14.499 -1.5682  0.5001  0.1677
 5391TIP3   OH237663   1.434   5.794   9.949 -0.2693  0.3118  0.3563
 5391TIP3    H137664   1.529   5.804   9.939 -0.0870 -0.5909  1.0391
 5391TIP3    H237665   1.397   5.861   9.892  0.7872  1.3195  0.8115
 5392TIP3   OH237666   5.002   0.245  12.518 -0.0702 -0.0816  0.4858
 5392TIP3    H137667   5.019   0.165  12.567  0.4127  0.9099  2.0124
 5392TIP3    H237668   5.063   0.242  12.444 -0.3730 -1.3165  0.2666
 5393TIP3   OH237669   4.977   1.873  14.563 -1.4006 -0.4847 -0.0269
 5393TIP3    H137670   4.963   1.901  14.473  2.1966 -2.1144 -1.2970
 5393TIP3    H237671   4.949   1.947  14.617 -1.8660  1.3028 -2.5625
 5394TIP3   OH237672   4.486   6.662  11.195 -0.7641 -0.7516 -0.5778
 5394TIP3    H137673   4.480   6.757  11.192  1.7449 -0.4873  0.2749
 5394TIP3    H237674   4.415   6.635  11.253 -0.4897  0.7563  0.5272
 5395TIP3   OH237675   6.778   6.500  11.994 -0.4551 -0.5511 -0.1286
 5395TIP3    H137676   6.727   6.443  12.052 -1.3737 -0.9048 -1.2488
 5395TIP3    H237677   6.862   6.456  11.985 -0.5222 -0.8037  0.4471
 5396TIP3   OH237678   5.907   4.346  11.572  0.1761  0.5176  0.8477
 5396TIP3    H137679   5.814   4.331  11.589 -0.9447  2.0990 -2.7707
 5396TIP3    H237680   5.931   4.419  11.629 -0.9528  0.4717  1.4057
 5397TIP3   OH237681   6.842   3.424  13.175  0.2315  0.3213 -0.1831
 5397TIP3    H137682   6.756   3.455  13.147  0.0945  0.4095  0.3155
 5397TIP3    H237683   6.899   3.501  13.168  0.4138  0.1189 -1.0724
 5398TIP3   OH237684   0.887   0.815  11.749  0.2102 -0.3656  0.3685
 5398TIP3    H137685   0.929   0.799  11.834 -0.2452 -1.2354  0.4430
 5398TIP3    H237686   0.801   0.772  11.756  0.5731 -1.3630 -0.8901
 5399TIP3   OH237687   3.544   4.227   0.216 -0.5175 -0.2181 -0.4283
 5399TIP3    H137688   3.491   4.292   0.170 -0.8707 -1.1418 -1.3681
 5399TIP3    H237689   3.603   4.192   0.149  2.1949  1.6384  0.8406
 5400TIP3   OH237690   6.314   0.319  15.591  0.1005 -0.0015 -0.3048
 5400TIP3    H137691   6.356   0.242  15.553  0.2743  0.8821 -1.9899
 5400TIP3    H237692   6.274   0.364  15.517 -0.8717  1.0118  0.7873
 5401TIP3   OH237693   4.485   0.062   1.601  0.5655 -0.5839  0.1469
 5401TIP3    H137694   4.406   0.076   1.655  2.1237  2.5827  1.9288
 5401TIP3    H237695   4.452   0.060   1.511 -1.5038  3.2194  0.5823
 5402TIP3   OH237696   5.066   3.719  14.180 -0.0463  0.5959  0.1225
 5402TIP3    H137697   5.000   3.788  14.181  0.1098  0.9474 -3.1519
 5402TIP3    H237698   5.028   3.649  14.234 -3.0481  0.8830 -1.3859
 5403TIP3   OH237699   5.196   4.560   3.788  0.8839  0.1040  0.0507
 5403TIP3    H137700   5.243   4.535   3.709  1.8550  2.3115 -0.1229
 5403TIP3    H237701   5.157   4.645   3.767  0.9137  0.5888  1.8321
 5404TIP3   OH237702   5.149   6.878  10.912  0.0584  0.3599 -0.1096
 5404TIP3    H137703   5.230   6.924  10.932 -0.8566  1.5161  1.1092
 5404TIP3    H237704   5.169   6.828  10.833  1.0751  3.0137 -1.6692
 5405TIP3   OH237705   6.366   4.996   3.737 -0.1844 -0.2999  0.4929
 5405TIP3    H137706   6.278   4.991   3.777  0.2265 -1.8972  1.2906
 5405TIP3    H237707   6.426   4.980   3.810  0.6345 -2.4673 -0.5597
 5406TIP3   OH237708   1.551   4.063  10.608 -0.0438  0.0161  0.6579
 5406TIP3    H137709   1.638   4.074  10.648 -0.4153  0.3673  1.3974
 5406TIP3    H237710   1.493   4.050  10.683 -0.7299  0.4365  0.2030
 5407TIP3   OH237711   6.680   5.714  10.300  0.3532 -0.2205  0.1389
 5407TIP3    H137712   6.610   5.779  10.314  1.0104  0.5390  0.0023
 5407TIP3    H237713   6.736   5.723  10.377  2.7030  2.3299 -1.6565
 5408TIP3   OH237714   0.346   5.811  10.273  0.4170  0.1619 -0.4687
 5408TIP3    H137715   0.265   5.760  10.277  1.1727 -0.9896  1.8278
 5408TIP3    H237716   0.317   5.901  10.263 -1.0323 -0.4488 -2.4067
 5409TIP3   OH237717   4.943   4.714   0.118 -0.4216 -0.3844  0.3522
 5409TIP3    H137718   4.933   4.667   0.201 -0.1525 -1.9062 -0.4463
 5409TIP3    H237719   4.864   4.694   0.069 -0.5745  0.4994  0.2250
 5410TIP3   OH237720   6.500   1.911   3.347 -0.0778  0.1317 -0.0582
 5410TIP3    H137721   6.596   1.903   3.349 -0.1333 -0.4850  1.3812
 5410TIP3    H237722   6.484   1.993   3.300  1.1524  0.2164 -0.3677
 5411TIP3   OH237723   6.281   4.411  11.614  0.1255  0.4742  0.1686
 5411TIP3    H137724   6.360   4.378  11.656  0.2786  1.1360  0.4131
 5411TIP3    H237725   6.231   4.451  11.685  1.3523  3.5264 -0.5054
 5412TIP3   OH237726   7.118   0.075   4.506 -0.5565  0.5778  0.2437
 5412TIP3    H137727   7.122   0.047   4.598 -0.4284 -1.8154 -0.4239
 5412TIP3    H237728   7.202   0.119   4.491  0.1037 -0.4283  0.8796
 5413TIP3   OH237729   1.098   5.920   2.215  0.5496  0.1902 -0.6023
 5413TIP3    H137730   1.099   5.837   2.264  0.6543 -0.1442 -1.1558
 5413TIP3    H237731   1.155   5.903   2.140 -0.5869  0.2702 -1.5103
 5414TIP3   OH237732   4.905   0.244  14.997  0.0709  0.1383  0.5685
 5414TIP3    H137733   4.990   0.205  15.018  0.0035 -0.4453 -0.1843
 5414TIP3    H237734   4.919   0.338  15.006  1.1882  0.1449 -0.8023
 5415TIP3   OH237735   6.283   6.010   0.449  0.0935  0.7785  0.3041
 5415TIP3    H137736   6.216   5.968   0.502  1.0350  1.4376  2.0789
 5415TIP3    H237737   6.362   6.010   0.504  0.6430  3.0612 -0.3646
 5416TIP3   OH237738   4.438   2.879  13.265  0.1373  0.3644  0.1422
 5416TIP3    H137739   4.457   2.830  13.345  0.2640 -0.1494 -0.2034
 5416TIP3    H237740   4.346   2.903  13.273 -0.2435 -0.9075 -0.2024
 5417TIP3   OH237741   5.654   5.653  13.149 -0.2528 -0.1486  0.4678
 5417TIP3    H137742   5.580   5.650  13.211  0.5760  0.9501  1.5820
 5417TIP3    H237743   5.703   5.573  13.166 -0.8914 -0.6311  0.0861
 5418TIP3   OH237744   0.131   1.078  12.191  0.6279  0.5031  0.2904
 5418TIP3    H137745   0.125   0.996  12.239  2.9198  0.1979  0.1274
 5418TIP3    H237746   0.040   1.108  12.185 -0.4627 -2.5797 -0.6998
 5419TIP3   OH237747   4.025   6.839  11.781 -0.2850 -0.9798  0.5524
 5419TIP3    H137748   3.994   6.889  11.856  0.2953  0.1134  0.0945
 5419TIP3    H237749   4.032   6.904  11.710  0.4396 -1.7172 -0.0792
 5420TIP3   OH237750   5.865   6.214  14.144  0.0789 -0.0804  0.0114
 5420TIP3    H137751   5.815   6.136  14.165 -1.0708 -0.5779 -3.8411
 5420TIP3    H237752   5.809   6.287  14.171 -0.6089 -0.6276  0.0715
 5421TIP3   OH237753   6.267   4.041   9.495 -0.1035  0.1228  0.0367
 5421TIP3    H137754   6.215   4.110   9.535 -0.9136  0.5443 -1.6482
 5421TIP3    H237755   6.246   3.962   9.545  2.3724  1.3050  3.3378
 5422TIP3   OH237756   6.528   0.746   1.971  0.3876  0.2101 -0.2985
 5422TIP3    H137757   6.509   0.840   1.975 -0.4802  0.0685 -0.8766
 5422TIP3    H237758   6.589   0.737   1.899 -2.1514 -0.0394 -2.5646
 5423TIP3   OH237759   5.600   5.281   3.721  0.6539  0.4866  0.2654
 5423TIP3    H137760   5.574   5.232   3.800 -0.9174 -0.9256 -1.0220
 5423TIP3    H237761   5.689   5.252   3.703  0.7930  0.3300  1.1651
 5424TIP3   OH237762   1.569   0.999  11.780 -0.2643 -0.5677  0.3725
 5424TIP3    H137763   1.533   0.931  11.837 -0.2826 -0.9602 -0.1041
 5424TIP3    H237764   1.545   0.973  11.692 -2.5505  1.3965  0.3178
 5425TIP3   OH237765   4.327   2.983   1.891  0.7095  0.0070  0.3134
 5425TIP3    H137766   4.412   2.942   1.908  0.8135 -0.4913 -1.2574
 5425TIP3    H237767   4.270   2.911   1.864  0.1495  0.5274  0.0877
 5426TIP3   OH237768   3.706   4.897  12.338  0.0787 -0.1034  0.2135
 5426TIP3    H137769   3.616   4.866  12.331  0.0271  0.2942 -1.1587
 5426TIP3    H237770   3.718   4.955  12.263  1.1565  0.6958  0.9658
 5427TIP3   OH237771   0.770   5.908  14.342 -0.1199 -1.0536 -0.1132
 5427TIP3    H137772   0.816   5.828  14.368 -1.0723 -1.3026  0.8949
 5427TIP3    H237773   0.737   5.889  14.254  2.5623 -0.4571 -1.3327
 5428TIP3   OH237774   0.131   4.583  12.644 -0.5462  0.2945  0.8951
 5428TIP3    H137775   0.196   4.547  12.584 -1.8163  1.5184 -1.3312
 5428TIP3    H237776   0.155   4.546  12.729 -0.2408 -3.7132 -0.7220
 5429TIP3   OH237777   3.239   6.482  12.196  0.6487  0.6696  0.2052
 5429TIP3    H137778   3.250   6.396  12.156  3.9477  0.6964  0.7530
 5429TIP3    H237779   3.222   6.464  12.288 -4.2456  0.6597 -0.4742
 5430TIP3   OH237780   5.686   2.669  10.972 -0.1958  0.1758 -0.2454
 5430TIP3    H137781   5.670   2.758  10.942  1.3769  0.3578 -0.6234
 5430TIP3    H237782   5.779   2.653  10.954 -0.0599 -0.9935  1.2320
 5431TIP3   OH237783   7.146   0.770  11.437 -0.2885  0.8176  0.0629
 5431TIP3    H137784   7.220   0.803  11.386  0.1893 -1.1201 -0.5783
 5431TIP3    H237785   7.186   0.720  11.508 -0.9864  1.8813  1.2475
 5432TIP3   OH237786   6.988   7.054  11.129 -0.2285 -0.1321 -0.4687
 5432TIP3    H137787   7.051   6.997  11.173 -1.4973 -1.3709 -0.1818
 5432TIP3    H237788   6.947   7.103  11.200  0.2352  0.5221 -0.6380
 5433TIP3   OH237789   3.114   2.148  13.863  0.1378 -0.3624  0.2350
 5433TIP3    H137790   3.146   2.211  13.798  1.5050 -0.5167  0.7184
 5433TIP3    H237791   3.062   2.086  13.813  0.1750  0.1974 -0.5200
 5434TIP3   OH237792   3.393   4.263  10.129 -0.6216  0.4109  0.2945
 5434TIP3    H137793   3.470   4.313  10.101 -1.0679  0.9553  0.0117
 5434TIP3    H237794   3.405   4.177  10.090 -0.3971  0.6462 -0.1657
 5435TIP3   OH237795   0.979   1.904  15.532  0.1262  0.4328 -0.0126
 5435TIP3    H137796   1.050   1.885  15.593 -0.6981 -0.0045  0.8324
 5435TIP3    H237797   0.985   1.998  15.516  1.0068  0.3661 -0.1027
 5436TIP3   OH237798   6.973   5.806  11.836  0.0483  0.2179  0.1342
 5436TIP3    H137799   6.878   5.807  11.838 -0.0192  2.6245 -0.6028
 5436TIP3    H237800   6.999   5.807  11.928 -0.7375  1.8885  0.3892
 5437TIP3   OH237801   0.047   6.337  12.404  0.0102  0.5629 -0.0525
 5437TIP3    H137802  -0.031   6.377  12.442  0.3858  0.5124  0.7752
 5437TIP3    H237803   0.119   6.393  12.433  0.3791  0.1169 -0.0948
 5438TIP3   OH237804   4.480   6.702  14.807 -0.2750  0.0705 -0.2777
 5438TIP3    H137805   4.414   6.694  14.876  0.3897  0.7377  0.4410
 5438TIP3    H237806   4.432   6.737  14.732 -0.4345  2.2147  0.7539
 5439TIP3   OH237807   0.454   5.894   1.207  0.0422 -0.0022 -0.6693
 5439TIP3    H137808   0.361   5.896   1.231  0.3991  0.7119  0.7550
 5439TIP3    H237809   0.469   5.978   1.164 -0.1246 -0.4276 -1.5819
 5440TIP3   OH237810   2.494   2.953   4.392 -0.5642  0.6445  0.3630
 5440TIP3    H137811   2.498   2.918   4.481 -1.1965  0.8546  0.4747
 5440TIP3    H237812   2.575   3.004   4.383  0.6048 -1.1757  0.0473
 5441TIP3   OH237813   7.122   7.081   0.262 -0.0886 -0.6311 -0.2963
 5441TIP3    H137814   7.200   7.079   0.207 -1.1104  1.0946 -1.9373
 5441TIP3    H237815   7.146   7.031   0.340  2.4745 -0.5432 -0.9472
 5442TIP3   OH237816   1.760   3.543   1.462  0.0997 -0.0439  0.3640
 5442TIP3    H137817   1.833   3.561   1.402  1.8144 -2.2783  1.6553
 5442TIP3    H237818   1.750   3.624   1.512 -0.4714  1.3989 -1.8847
 5443TIP3   OH237819   1.967   1.579  10.143 -0.1352  0.2516  0.3701
 5443TIP3    H137820   1.938   1.568  10.053 -2.2122  0.3733  0.9871
 5443TIP3    H237821   2.056   1.612  10.136 -0.1203 -0.1236 -1.6197
 5444TIP3   OH237822   0.322   1.404   3.842 -0.2766  0.1075 -0.4613
 5444TIP3    H137823   0.415   1.421   3.830  0.1691 -0.2806  1.9616
 5444TIP3    H237824   0.278   1.479   3.801  0.9810 -0.2981 -2.7380
 5445TIP3   OH237825   0.280   1.414  10.347  0.5932 -0.7638 -0.2027
 5445TIP3    H137826   0.268   1.439  10.439  0.8342  1.0055 -0.6191
 5445TIP3    H237827   0.341   1.341  10.350  0.4530 -0.8465  1.0665
 5446TIP3   OH237828   3.181   3.082   9.803  0.9251 -0.7820  0.0277
 5446TIP3    H137829   3.197   3.171   9.834  2.5193 -1.2625  0.7013
 5446TIP3    H237830   3.086   3.077   9.792  0.5862  0.4027  1.9191
 5447TIP3   OH237831   0.980   3.642  10.180 -0.2317  0.2244 -0.4666
 5447TIP3    H137832   0.985   3.695  10.260  0.9903 -1.3965  0.6072
 5447TIP3    H237833   1.063   3.659  10.136  0.0201 -0.4969 -0.2871
 5448TIP3   OH237834   4.663   6.959  11.554  0.3214  0.3977  0.4042
 5448TIP3    H137835   4.643   6.885  11.612  0.1649  0.5484  0.5431
 5448TIP3    H237836   4.716   7.017  11.609 -1.1833  1.3182  0.9225
 5449TIP3   OH237837   5.192   5.941  11.462 -0.1953 -0.1804 -0.5465
 5449TIP3    H137838   5.284   5.931  11.436  0.6504 -1.9373  2.5498
 5449TIP3    H237839   5.191   6.018  11.518 -1.0190  0.7927 -1.8309
 5450TIP3   OH237840   1.080   1.087  10.797  0.3132 -0.5634 -0.1460
 5450TIP3    H137841   1.153   1.035  10.763  0.0875 -0.5823 -0.6115
 5450TIP3    H237842   1.019   1.093  10.723  0.1876  0.0900  0.0089
 5451TIP3   OH237843   5.068   0.036  11.631 -0.0606  0.0071 -1.5327
 5451TIP3    H137844   5.164   0.034  11.637 -0.0124 -1.1543 -2.3149
 5451TIP3    H237845   5.041  -0.053  11.655 -1.0273  0.6164 -0.2551
 5452TIP3   OH237846   2.419   2.755  13.278  0.8097 -0.4568 -0.2728
 5452TIP3    H137847   2.349   2.804  13.234 -0.1432 -2.1625 -0.7546
 5452TIP3    H237848   2.380   2.726  13.360  1.2210 -0.7600 -0.1810
 5453TIP3   OH237849   6.981   2.328   3.809  0.2040 -0.3083 -0.2696
 5453TIP3    H137850   7.011   2.402   3.756 -0.3057 -0.8577 -1.3610
 5453TIP3    H237851   6.980   2.361   3.899  1.6619  0.4753 -0.5072
 5454TIP3   OH237852   1.005   3.502  10.855 -0.1121 -0.2991 -0.3381
 5454TIP3    H137853   1.099   3.489  10.865  0.1430  1.2773 -0.5364
 5454TIP3    H237854   0.990   3.504  10.761  0.0043  1.6528 -0.3385
 5455TIP3   OH237855   6.199   5.101  12.731 -0.1171 -0.1289 -0.3325
 5455TIP3    H137856   6.267   5.161  12.700  0.9088 -1.6605 -1.1765
 5455TIP3    H237857   6.216   5.092  12.825 -0.5191  1.1544 -0.1208
 5456TIP3   OH237858   4.011   1.309   3.099 -0.3784 -0.2270 -0.7218
 5456TIP3    H137859   4.017   1.292   3.005 -0.5547 -2.3699 -0.3947
 5456TIP3    H237860   3.920   1.288   3.121 -0.3133  0.1640 -0.0357
 5457TIP3   OH237861   5.053   4.930   0.281  0.7135 -0.4621 -0.1466
 5457TIP3    H137862   5.067   4.841   0.313 -0.2145 -0.0794  1.4321
 5457TIP3    H237863   5.067   4.986   0.358 -0.7849  0.5727 -0.5653
 5458TIP3   OH237864   0.631   0.336  11.701 -0.1124 -0.0635 -0.1147
 5458TIP3    H137865   0.594   0.333  11.613 -1.3719  0.9747  0.3409
 5458TIP3    H237866   0.637   0.429  11.722 -2.3232 -0.2531  1.8459
 5459TIP3   OH237867   4.371   1.171  14.794  0.4462  0.0841  0.2800
 5459TIP3    H137868   4.345   1.195  14.705  1.2141 -1.7509 -0.4898
 5459TIP3    H237869   4.449   1.224  14.811 -0.9589  2.0975  0.7703
 5460TIP3   OH237870   4.412   3.692   9.824 -0.2057 -0.1741  0.0829
 5460TIP3    H137871   4.353   3.748   9.874 -0.7672 -0.0919 -0.6632
 5460TIP3    H237872   4.468   3.753   9.776 -1.0534 -0.2309 -1.0099
 5461TIP3   OH237873   3.366   5.179  14.968  0.1988  0.0611 -0.0268
 5461TIP3    H137874   3.297   5.204  14.907 -0.0013  0.3302  0.3060
 5461TIP3    H237875   3.409   5.104  14.926  1.1151  1.2204 -1.2820
 5462TIP3   OH237876   3.748   2.248   3.469 -0.3793 -0.5355 -0.1660
 5462TIP3    H137877   3.818   2.271   3.408  0.1135 -0.9588  0.2270
 5462TIP3    H237878   3.785   2.265   3.556 -1.4280  1.0422  0.0005
 5463TIP3   OH237879   4.563   4.859  10.906  0.0091 -0.0775  0.1453
 5463TIP3    H137880   4.645   4.828  10.944  0.8274  1.5477 -0.1822
 5463TIP3    H237881   4.498   4.843  10.974  0.7446 -0.6860  0.7301
 5464TIP3   OH237882   3.651   2.100  13.201 -0.4358  0.4898  0.0095
 5464TIP3    H137883   3.605   2.056  13.273  0.4203 -1.3829 -0.5393
 5464TIP3    H237884   3.725   2.144  13.244 -0.0527 -0.4315  0.3194
 5465TIP3   OH237885   6.843   5.214   2.121  0.1710  0.6050  0.5158
 5465TIP3    H137886   6.901   5.180   2.189  0.2320 -3.2035 -1.1758
 5465TIP3    H237887   6.895   5.212   2.041 -1.6855 -1.4306 -0.7615
 5466TIP3   OH237888   6.019   6.054   2.000  0.7260  0.2210 -0.0911
 5466TIP3    H137889   5.940   6.098   2.031 -0.7307 -2.3231  0.1073
 5466TIP3    H237890   6.015   6.061   1.905  3.2578  4.7902 -0.1477
 5467TIP3   OH237891   2.396   0.306  11.089 -0.0573  0.6481  0.3153
 5467TIP3    H137892   2.360   0.254  11.017 -1.1876  1.3980  0.3069
 5467TIP3    H237893   2.486   0.276  11.098 -0.3493 -0.5085 -0.4269
 5468TIP3   OH237894   1.908   5.398   1.014 -0.4568 -0.3187 -0.2926
 5468TIP3    H137895   1.836   5.437   1.064  0.4680  0.3307  0.5765
 5468TIP3    H237896   1.869   5.321   0.972 -1.4475 -0.4737  0.8489
 5469TIP3   OH237897   6.381   4.865   2.269  0.2814 -0.2615  0.5081
 5469TIP3    H137898   6.354   4.778   2.240 -0.4870  0.0263  0.3371
 5469TIP3    H237899   6.308   4.922   2.245  0.5042  0.3230  1.1858
 5470TIP3   OH237900   5.369   1.408  10.783 -0.1116 -0.0887 -0.1215
 5470TIP3    H137901   5.463   1.430  10.782  0.2910 -1.4170  2.1945
 5470TIP3    H237902   5.333   1.456  10.708  2.7534 -1.1627 -2.4085
 5471TIP3   OH237903   3.691   4.859   5.594 -0.3475  0.7095  0.0242
 5471TIP3    H137904   3.656   4.793   5.654 -0.9558 -0.9054 -2.0105
 5471TIP3    H237905   3.625   4.929   5.595 -1.2985 -0.1550 -0.1559
 5472TIP3   OH237906   7.054   0.877   2.453  0.4106  0.2119 -0.9260
 5472TIP3    H137907   7.146   0.850   2.449  0.8019  1.5655 -1.9042
 5472TIP3    H237908   7.047   0.949   2.390 -1.1369  0.6840 -0.2806
 5473TIP3   OH237909   3.808   3.182  13.903 -0.4936 -0.3779  0.0701
 5473TIP3    H137910   3.866   3.256  13.887 -0.0710 -0.6508  0.3343
 5473TIP3    H237911   3.728   3.204  13.855  0.0239 -0.2505 -0.7588
 5474TIP3   OH237912   6.547   3.299   1.290  0.2874  0.2928  0.9171
 5474TIP3    H137913   6.620   3.242   1.264 -0.5324 -0.5870  0.4775
 5474TIP3    H237914   6.575   3.337   1.373  1.8024  1.0007  0.1363
 5475TIP3   OH237915   4.825   2.466  13.243 -0.0784  0.2684  0.2000
 5475TIP3    H137916   4.781   2.492  13.323 -1.7276 -0.7719 -0.3381
 5475TIP3    H237917   4.866   2.547  13.212 -1.0767  1.1318  1.0523
 5476TIP3   OH237918   5.195   4.670  15.127 -0.3818  0.5193  0.0742
 5476TIP3    H137919   5.248   4.620  15.189 -0.9085 -3.3526 -2.2529
 5476TIP3    H237920   5.255   4.687  15.054 -1.3344 -0.7327 -1.0409
 5477TIP3   OH237921   2.414   3.936   0.277  0.1817 -0.4682  0.1203
 5477TIP3    H137922   2.448   3.868   0.335 -1.6133 -2.5176 -1.1057
 5477TIP3    H237923   2.461   3.924   0.195 -0.6048 -0.6632 -0.3055
 5478TIP3   OH237924   3.991   0.612   2.851 -0.3547 -0.2758 -0.6200
 5478TIP3    H137925   4.050   0.568   2.790  0.6716  0.6749 -0.3532
 5478TIP3    H237926   3.938   0.542   2.888  0.4435 -1.1347 -1.0579
 5479TIP3   OH237927   6.133   3.553   0.883  0.4027 -0.6992  0.4063
 5479TIP3    H137928   6.163   3.643   0.873 -0.5934 -0.3927  0.0169
 5479TIP3    H237929   6.084   3.554   0.966 -0.2612 -0.6838  0.0213
 5480TIP3   OH237930   6.339   7.073  12.823  0.1534 -0.3181 -0.2913
 5480TIP3    H137931   6.373   7.121  12.748  0.7639 -0.1524  0.0847
 5480TIP3    H237932   6.411   7.015  12.849  0.9719  1.4988  1.7935
 5481TIP3   OH237933   3.223   6.972   0.924  0.1520 -0.0526 -0.0517
 5481TIP3    H137934   3.206   6.882   0.950 -1.5634 -0.6394 -2.7325
 5481TIP3    H237935   3.282   7.007   0.991  1.4481 -3.3543  0.6884
 5482TIP3   OH237936   3.028   2.233  11.972  0.8151  0.2533 -0.1764
 5482TIP3    H137937   3.089   2.223  11.899  0.3309  0.7678 -0.6591
 5482TIP3    H237938   3.026   2.147  12.014 -0.1347 -0.5295 -1.7506
 5483TIP3   OH237939   1.543   5.316  13.729 -0.4322  0.2195  0.4068
 5483TIP3    H137940   1.637   5.318  13.715 -0.4130 -0.5529  0.3846
 5483TIP3    H237941   1.513   5.404  13.705  0.4077  0.7870  1.3750
 5484TIP3   OH237942   3.644   4.993   1.504  0.1037 -0.5731 -0.8322
 5484TIP3    H137943   3.599   5.035   1.431  0.2107  2.1692  0.5182
 5484TIP3    H237944   3.712   5.056   1.528 -0.0726 -1.2551  1.7187
 5485TIP3   OH237945   4.722   0.961  12.982 -0.1388 -0.0431  0.3628
 5485TIP3    H137946   4.639   0.918  13.004 -0.6441  0.3206 -0.7865
 5485TIP3    H237947   4.748   0.922  12.899 -1.7074  3.2362 -1.8888
 5486TIP3   OH237948   4.773   2.744  10.456  0.0873 -0.2814  0.6000
 5486TIP3    H137949   4.730   2.807  10.514  1.0914  0.2129  0.8255
 5486TIP3    H237950   4.728   2.753  10.373  1.0552  1.7193  0.2340
 5487TIP3   OH237951   6.627   5.850  12.167 -0.4625  0.2183 -0.5225
 5487TIP3    H137952   6.631   5.790  12.093  1.4490  0.5759 -0.7656
 5487TIP3    H237953   6.609   5.936  12.128 -0.0973  0.2992 -0.5212
 5488TIP3   OH237954   4.983   2.128  14.403  0.2175 -0.2051 -0.0805
 5488TIP3    H137955   5.029   2.192  14.458 -0.6096  1.4022 -1.1690
 5488TIP3    H237956   4.915   2.179  14.359 -0.2626 -1.7874 -1.2638
 5489TIP3   OH237957   3.773   4.142  15.308  0.1243  0.0585  0.1028
 5489TIP3    H137958   3.740   4.124  15.220 -0.1518  0.6904  0.0649
 5489TIP3    H237959   3.814   4.061  15.337 -1.7111 -0.8614  0.2510
 5490TIP3   OH237960   2.464   2.954  11.401 -0.2287 -0.6812  0.0507
 5490TIP3    H137961   2.369   2.963  11.396 -0.1739 -0.6515 -1.3580
 5490TIP3    H237962   2.496   3.043  11.413 -0.3493 -0.5896 -0.2868
 5491TIP3   OH237963   0.186   2.353  12.548 -0.3199 -0.1780  0.3164
 5491TIP3    H137964   0.250   2.425  12.542 -1.7506  1.0943 -0.3483
 5491TIP3    H237965   0.115   2.388  12.602 -0.4523 -1.5936  1.1061
 5492TIP3   OH237966   0.304   3.144  12.432 -0.3332  0.1123  0.0706
 5492TIP3    H137967   0.327   3.228  12.392 -1.4340 -0.0282 -0.9415
 5492TIP3    H237968   0.211   3.133  12.411 -0.2302 -1.3143  0.2774
 5493TIP3   OH237969   7.046   0.954  12.844  0.5828 -0.3786  0.1436
 5493TIP3    H137970   7.091   1.002  12.775 -0.4728 -1.2842 -1.2477
 5493TIP3    H237971   7.031   0.867  12.806  0.8527 -1.2474  1.9048
 5494TIP3   OH237972   6.718   4.696  10.407 -0.2041 -0.0533  0.6434
 5494TIP3    H137973   6.717   4.671  10.315 -1.6552 -2.2801  1.1715
 5494TIP3    H237974   6.790   4.759  10.414 -0.0975  0.2312 -1.9877
 5495TIP3   OH237975   0.131   5.564  13.520  0.5480  0.3404  0.0382
 5495TIP3    H137976   0.185   5.487  13.542 -0.7611 -0.4548  0.5628
 5495TIP3    H237977   0.194   5.636  13.517  1.7777 -0.6999 -0.2331
 5496TIP3   OH237978   2.751   3.823  14.885 -0.2098 -0.5562  0.8964
 5496TIP3    H137979   2.738   3.911  14.920 -0.9042  0.0355 -0.7382
 5496TIP3    H237980   2.776   3.837  14.794 -0.4433 -2.0506  0.5780
 5497TIP3   OH237981   2.246   1.579  11.516 -0.2766  0.1623  0.4336
 5497TIP3    H137982   2.227   1.505  11.574 -0.2952  1.0116  1.5446
 5497TIP3    H237983   2.246   1.541  11.428 -1.9351 -0.8365  0.8248
 5498TIP3   OH237984   2.120   2.627  11.338  0.0887 -0.0756  0.3086
 5498TIP3    H137985   2.034   2.595  11.310 -1.1873  0.7930  2.8740
 5498TIP3    H237986   2.120   2.719  11.312  0.1313 -0.0086  0.5494
 5499TIP3   OH237987   6.461   2.211   4.910  0.8758 -0.3388 -0.3958
 5499TIP3    H137988   6.544   2.254   4.930  0.1180  0.8067  0.3873
 5499TIP3    H237989   6.419   2.197   4.995  0.7995 -2.0860 -0.6704
 5500TIP3   OH237990   3.408   4.763  11.537  0.2653 -0.1906  0.1640
 5500TIP3    H137991   3.341   4.796  11.477 -0.0847 -0.1365  0.5784
 5500TIP3    H237992   3.460   4.703  11.484  0.2879  0.2613 -0.3305
 5501TIP3   OH237993   3.830   3.610  13.643 -0.7319  0.2419 -0.6021
 5501TIP3    H137994   3.818   3.571  13.557 -2.4737  4.5927 -2.6351
 5501TIP3    H237995   3.742   3.636  13.670  0.1361  1.8623  0.9252
 5502TIP3   OH237996   4.101   4.214   3.499 -0.6165  0.0870 -0.0646
 5502TIP3    H137997   4.180   4.174   3.536  0.1098  1.0355 -0.5272
 5502TIP3    H237998   4.116   4.211   3.404 -0.0429  2.3243 -0.1074
 5503TIP3   OH237999   6.494   4.018  10.418 -0.3311  0.6739  0.1631
 5503TIP3    H138000   6.525   3.943  10.469  2.7248  2.2984  0.9587
 5503TIP3    H238001   6.458   4.078  10.484 -1.0911  0.6669 -0.2401
 5504TIP3   OH238002   2.762   3.305  12.569 -0.2091 -0.2027 -0.7762
 5504TIP3    H138003   2.812   3.274  12.645  0.0781 -0.0115 -0.8818
 5504TIP3    H238004   2.671   3.298  12.595 -0.1335 -0.7709 -0.6625
 5505TIP3   OH238005   0.285   4.681  14.541 -0.2049 -0.6966  0.5007
 5505TIP3    H138006   0.196   4.659  14.568 -0.7783 -0.7380 -1.2470
 5505TIP3    H238007   0.333   4.693  14.622 -2.1466  0.7779  1.5146
 5506TIP3   OH238008   1.102   1.561  11.498  0.5475 -0.5418  0.1604
 5506TIP3    H138009   1.185   1.564  11.451  0.1651 -2.1639 -0.7055
 5506TIP3    H238010   1.045   1.507  11.443 -0.3669 -1.3679  1.8279
 5507TIP3   OH238011   2.163   4.381   9.604 -0.1164  0.0867  0.0353
 5507TIP3    H138012   2.210   4.372   9.688  0.3115 -0.7525 -0.2829
 5507TIP3    H238013   2.197   4.309   9.550 -3.2297 -1.9305  0.4776
 5508TIP3   OH238014   3.421   5.673  11.037  0.2194 -1.0274 -0.0304
 5508TIP3    H138015   3.388   5.714  10.957 -0.1134  1.0603  1.0989
 5508TIP3    H238016   3.510   5.706  11.047  0.2406 -1.2296  0.4945
 5509TIP3   OH238017   4.841   6.362  15.089 -0.1799 -0.0395 -0.4942
 5509TIP3    H138018   4.894   6.400  15.159 -0.8087 -0.9929  0.5431
 5509TIP3    H238019   4.871   6.272  15.082 -0.1350  0.0373 -1.4662
 5510TIP3   OH238020   4.575   3.428  12.750 -0.3323 -0.4502  0.6343
 5510TIP3    H138021   4.621   3.495  12.801  1.2120 -0.9695 -0.0210
 5510TIP3    H238022   4.644   3.383  12.701 -1.5867 -0.9846 -0.7386
 5511TIP3   OH238023   6.340   3.988  12.027  0.1387 -0.0854  0.0495
 5511TIP3    H138024   6.291   4.064  12.060  1.2385 -0.1908  2.1495
 5511TIP3    H238025   6.339   3.998  11.932 -0.0962  2.3646  0.2278
 5512TIP3   OH238026   4.699   4.679  11.781 -0.0158 -0.1023 -0.3264
 5512TIP3    H138027   4.692   4.635  11.697 -1.3727  0.2781 -0.4436
 5512TIP3    H238028   4.696   4.773  11.759  0.0260  0.0050  0.1134
 5513TIP3   OH238029   4.318   0.559  13.616 -0.0616  0.3819 -0.1402
 5513TIP3    H138030   4.384   0.511  13.665 -0.2413 -1.5425 -1.6722
 5513TIP3    H238031   4.275   0.493  13.561 -1.6773  1.9673 -0.9059
 5514TIP3   OH238032   5.920   6.985  11.058  0.5887  0.2714 -0.0719
 5514TIP3    H138033   5.915   6.961  10.965 -0.0150  2.1734 -0.5723
 5514TIP3    H238034   5.845   7.043  11.072 -1.3850 -2.6284  2.5099
 5515TIP3   OH238035   4.012   0.058  10.544 -0.1463 -0.5764  0.2506
 5515TIP3    H138036   4.045   0.090  10.460  2.5377 -0.5606  1.2052
 5515TIP3    H238037   4.003  -0.036  10.532  1.2377 -0.7313  0.1734
 5516TIP3   OH238038   4.394   6.704  12.490 -0.2703  0.1505 -0.3590
 5516TIP3    H138039   4.423   6.778  12.437  1.0109 -1.4581 -2.0280
 5516TIP3    H238040   4.304   6.687  12.460 -1.3665  2.1644  1.4487
 5517TIP3   OH238041   2.710   1.227  13.853 -0.4566 -0.8514  0.2146
 5517TIP3    H138042   2.779   1.161  13.863 -0.4752 -0.7614  0.9963
 5517TIP3    H238043   2.663   1.200  13.775  0.6232 -0.7736 -0.4898
 5518TIP3   OH238044   4.411   4.221  10.409 -0.3476  0.2745 -0.0194
 5518TIP3    H138045   4.323   4.258  10.417 -0.2342  0.6471 -0.4808
 5518TIP3    H238046   4.413   4.184  10.321 -0.4310 -0.7622  0.4021
 5519TIP3   OH238047   5.249   6.101  11.976 -0.3384 -0.1199 -0.0540
 5519TIP3    H138048   5.265   6.150  12.057  0.8428 -0.2480 -0.1908
 5519TIP3    H238049   5.244   6.009  12.004  0.4322 -0.1991 -0.1646
 5520TIP3   OH238050   1.080   0.293  11.190 -0.7224  0.5678  0.2296
 5520TIP3    H138051   1.129   0.326  11.115  0.1748 -1.1350  0.0304
 5520TIP3    H238052   0.996   0.338  11.185 -0.8274  0.2262 -2.0306
 5521TIP3   OH238053   1.947   3.515  10.974 -0.1785 -0.4575 -0.3763
 5521TIP3    H138054   2.018   3.578  10.983  0.5263 -1.0422 -1.5407
 5521TIP3    H238055   1.989   3.430  10.990 -1.3878 -0.6127  2.5625
 5522TIP3   OH238056   1.875   4.435  14.783 -0.1074  0.4468  0.1637
 5522TIP3    H138057   1.791   4.475  14.805 -0.0586  0.9267 -0.4791
 5522TIP3    H238058   1.861   4.341  14.792 -0.7993  0.5099 -0.2153
 5523TIP3   OH238059   4.303   5.007  12.702 -0.6296  0.3269 -0.0926
 5523TIP3    H138060   4.234   4.985  12.639  1.4011 -3.5143 -1.2438
 5523TIP3    H238061   4.376   5.038  12.649  0.3623 -0.8272  0.5717
 5524TIP3   OH238062   6.574   1.960  12.814  0.7368 -0.1423 -0.2914
 5524TIP3    H138063   6.553   1.885  12.870 -2.2335  1.2045  0.6385
 5524TIP3    H238064   6.664   1.983  12.837 -0.0605 -0.1627  3.4534
 5525TIP3   OH238065   0.521   2.022  12.911  0.1024  0.1898  0.1058
 5525TIP3    H138066   0.522   2.113  12.938 -0.1473 -0.0847  1.0925
 5525TIP3    H238067   0.613   1.998  12.899  0.1975  0.4192  0.3858
 5526TIP3   OH238068   5.221   3.340   3.267  0.5630 -0.2762  0.1451
 5526TIP3    H138069   5.139   3.336   3.217  0.4235 -2.9235  0.4422
 5526TIP3    H238070   5.200   3.392   3.344 -0.3032  0.5773 -0.6326
 5527TIP3   OH238071   1.413   4.841   9.778 -0.6711  0.2668  0.0286
 5527TIP3    H138072   1.493   4.893   9.789 -0.2082 -0.5314  0.5300
 5527TIP3    H238073   1.437   4.754   9.810 -2.1575  0.3551  1.5109
 5528TIP3   OH238074   7.051   5.555  11.738 -0.0725 -0.5439 -0.1525
 5528TIP3    H138075   7.063   5.648  11.760  1.6134 -1.3161  2.7844
 5528TIP3    H238076   7.009   5.517  11.815 -1.7896 -2.0690 -1.7587
 5529TIP3   OH238077   4.957   1.162   2.081 -0.3135  0.8480  0.3573
 5529TIP3    H138078   4.933   1.094   2.143  0.0317 -0.6994 -1.1429
 5529TIP3    H238079   4.890   1.158   2.012 -0.0575  1.7351  0.0400
 5530TIP3   OH238080   1.527   7.100  12.376  0.5314  0.3072  0.3227
 5530TIP3    H138081   1.490   7.188  12.382  0.1709  0.2895 -1.1961
 5530TIP3    H238082   1.622   7.114  12.370  0.4815  0.5815  0.1863
 5531TIP3   OH238083   0.559   1.792  14.758 -0.2495 -0.2332 -0.4241
 5531TIP3    H138084   0.637   1.762  14.805  0.1918  1.3901 -0.0793
 5531TIP3    H238085   0.486   1.764  14.814  0.2341  0.8824  0.8351
 5532TIP3   OH238086   3.540   5.968   0.803  0.2128  0.1875 -0.0316
 5532TIP3    H138087   3.472   5.938   0.743  0.3547  1.9578 -1.1727
 5532TIP3    H238088   3.622   5.960   0.753  0.3584  1.5219 -0.0617
 5533TIP3   OH238089   5.172   0.989  12.860 -0.5498 -0.1322 -0.6634
 5533TIP3    H138090   5.175   0.984  12.765 -0.3583 -1.2570 -0.6092
 5533TIP3    H238091   5.144   0.902  12.888 -0.3797  0.1137  0.3206
 5534TIP3   OH238092   6.151   1.106  14.528 -0.2316  0.6277 -0.1261
 5534TIP3    H138093   6.170   1.196  14.503  0.0991  0.6998  0.3619
 5534TIP3    H238094   6.200   1.093  14.609  0.3393 -0.2336 -0.5962
 5535TIP3   OH238095   2.242   2.064   0.468 -0.0637  0.3240  0.3426
 5535TIP3    H138096   2.234   2.137   0.529  0.0538  3.9422 -3.5264
 5535TIP3    H238097   2.335   2.045   0.465 -0.0655  0.1258  1.1650
 5536TIP3   OH238098   6.764   3.565   2.160 -0.0187  0.4324 -0.2301
 5536TIP3    H138099   6.816   3.619   2.220 -1.2117 -0.0665  1.3062
 5536TIP3    H238100   6.712   3.627   2.110  1.7267  0.9227 -1.5618
 5537TIP3   OH238101   0.320   1.957  13.581  0.2371 -0.1103  0.2428
 5537TIP3    H138102   0.271   2.017  13.525  1.4508  0.6521 -0.0307
 5537TIP3    H238103   0.377   1.909  13.521  0.2508 -0.5817  0.6240
 5538TIP3   OH238104   0.234   0.812  14.781 -0.1678  0.1269  0.1196
 5538TIP3    H138105   0.183   0.734  14.757  0.9632 -0.0412 -1.9603
 5538TIP3    H238106   0.304   0.779  14.836 -1.6522  0.2258  2.1873
 5539TIP3   OH238107   0.719   3.804   1.204 -0.7041  0.3402 -0.0165
 5539TIP3    H138108   0.748   3.890   1.233 -1.3398  0.1869  1.1338
 5539TIP3    H238109   0.773   3.785   1.127 -1.3084  2.2264 -0.9638
 5540TIP3   OH238110   1.748   4.070   3.634 -0.0828 -0.3235  0.4209
 5540TIP3    H138111   1.702   3.989   3.655  0.5075 -0.7075  0.2307
 5540TIP3    H238112   1.749   4.119   3.717 -1.4605  0.0200  0.2738
 5541TIP3   OH238113   4.350   4.587   0.143  0.3738  0.0661  0.6157
 5541TIP3    H138114   4.342   4.681   0.129 -1.5266  0.1471  1.8555
 5541TIP3    H238115   4.277   4.565   0.199  1.7215 -1.8946  1.7335
 5542TIP3   OH238116   2.398   1.920  11.334 -0.3531 -0.6487 -0.2976
 5542TIP3    H138117   2.393   1.890  11.425  2.5371 -1.7753 -0.3905
 5542TIP3    H238118   2.375   2.013  11.337 -1.7083 -0.9981  1.3269
 5543TIP3   OH238119   3.141   5.521  12.402 -0.3314 -0.0775 -0.2813
 5543TIP3    H138120   3.078   5.486  12.466 -1.5748  1.2527 -0.7053
 5543TIP3    H238121   3.096   5.596  12.365  1.1596  0.3199 -1.3395
 5544TIP3   OH238122   0.769   3.565   3.919  0.3328 -0.1630 -0.1878
 5544TIP3    H138123   0.859   3.534   3.907  0.2064 -1.1700  1.1181
 5544TIP3    H238124   0.714   3.492   3.887 -0.0166  0.2477 -0.5362
 5545TIP3   OH238125   6.122   0.777  13.417  0.0791  0.0506 -0.2444
 5545TIP3    H138126   6.178   0.817  13.484 -0.4188  1.2120 -0.5098
 5545TIP3    H238127   6.175   0.706  13.381  0.5694 -0.2297  0.9808
 5546TIP3   OH238128   1.942   5.057   5.344 -0.0720 -0.7470 -0.0923
 5546TIP3    H138129   1.993   5.013   5.277 -1.3812 -0.8386 -1.0632
 5546TIP3    H238130   1.855   5.069   5.305 -0.1036  1.6961  0.5257
 5547TIP3   OH238131   5.507   6.753  11.255 -0.0565  0.2237  0.1929
 5547TIP3    H138132   5.491   6.846  11.240 -0.7913  0.0659 -0.0322
 5547TIP3    H238133   5.575   6.730  11.192 -1.7885 -0.0072 -1.7170
 5548TIP3   OH238134   1.484   0.817   1.181  0.9029 -0.3727  0.1491
 5548TIP3    H138135   1.527   0.743   1.224  1.2789  0.6098  1.5753
 5548TIP3    H238136   1.553   0.858   1.129  1.2017  0.0428  0.8528
 5549TIP3   OH238137   1.271   4.103  13.687  0.1206  0.5938 -0.4705
 5549TIP3    H138138   1.296   4.161  13.615 -0.4552  0.9143 -0.4173
 5549TIP3    H238139   1.347   4.046  13.700 -0.1333 -0.1483 -2.0111
 5550TIP3   OH238140   1.561   1.774  10.608 -0.2065 -0.6362 -0.3889
 5550TIP3    H138141   1.611   1.724  10.674 -2.0982  1.0321  2.4948
 5550TIP3    H238142   1.480   1.725  10.598 -0.0537 -0.7166 -1.3389
 5551TIP3   OH238143   4.013   4.570  11.938  0.8399  0.1624 -0.4228
 5551TIP3    H138144   3.953   4.509  11.981  0.6638  1.5508  1.4540
 5551TIP3    H238145   4.031   4.636  12.005  1.4251  1.8845 -2.1989
 5552TIP3   OH238146   1.665   1.736  13.362  0.1187  0.2311 -0.2463
 5552TIP3    H138147   1.601   1.791  13.316  2.0872  0.6254 -2.7119
 5552TIP3    H238148   1.658   1.651  13.318 -1.4044 -1.0002  2.1410
 5553TIP3   OH238149   0.523   1.343  15.551  0.4789 -0.5963  0.3590
 5553TIP3    H138150   0.486   1.430  15.534  0.4735 -0.2242  2.0326
 5553TIP3    H238151   0.599   1.337  15.493  0.0399  0.2265 -0.3172
 5554TIP3   OH238152   4.534   6.536  13.379 -0.7098  0.2361 -0.1951
 5554TIP3    H138153   4.531   6.503  13.289  1.4468  0.7142 -0.4857
 5554TIP3    H238154   4.455   6.589  13.388 -2.1114 -1.5938 -1.0571
 5555TIP3   OH238155   6.398   5.022  11.310  0.3358  0.3734  0.1887
 5555TIP3    H138156   6.409   4.973  11.229 -1.4323  0.4668 -0.1387
 5555TIP3    H238157   6.410   5.114  11.284  0.2296  0.3689  0.1249
 5556TIP3   OH238158   1.703   1.595  12.926 -0.1525 -0.1291  0.5720
 5556TIP3    H138159   1.630   1.533  12.933 -0.9231  0.3567 -2.0073
 5556TIP3    H238160   1.676   1.670  12.978 -0.9441 -0.4661  0.6624
 5557TIP3   OH238161   1.928   3.897  13.690 -0.1567 -0.0597  0.0316
 5557TIP3    H138162   1.852   3.844  13.718 -1.4551  0.5573 -2.0775
 5557TIP3    H238163   1.979   3.837  13.636 -1.2853  0.5542 -1.8154
 5558TIP3   OH238164   6.544   0.865  11.302 -0.1130  0.0474  0.6282
 5558TIP3    H138165   6.576   0.827  11.220 -1.8701  0.4883 -0.3304
 5558TIP3    H238166   6.604   0.834  11.369  0.5566 -1.4943 -0.6346
 5559TIP3   OH238167   6.356   5.757  13.735  0.2625  0.0080 -0.8412
 5559TIP3    H138168   6.419   5.688  13.753  0.1654 -0.0664 -0.7847
 5559TIP3    H238169   6.335   5.794  13.821 -0.2379 -0.3817 -0.7863
 5560TIP3   OH238170   6.330   4.931   5.431 -0.3198  0.1260 -0.1607
 5560TIP3    H138171   6.252   4.961   5.383  0.3403  0.4040 -1.0986
 5560TIP3    H238172   6.325   4.975   5.515  0.3013  2.5079 -1.2705
 5561TIP3   OH238173   3.175   4.726   2.891  0.0160 -0.2642  0.3403
 5561TIP3    H138174   3.238   4.656   2.873  1.5631  1.6558 -2.6388
 5561TIP3    H238175   3.103   4.709   2.830 -0.2248 -0.0011  0.5542
 5562TIP3   OH238176   0.980   5.450  13.328 -0.1371  0.1113  0.2486
 5562TIP3    H138177   0.966   5.499  13.247  0.0636 -0.3238 -0.0523
 5562TIP3    H238178   1.013   5.365  13.299 -1.4176 -0.5650  0.7005
 5563TIP3   OH238179   5.677   1.057  13.482 -0.3630 -0.2815  0.1867
 5563TIP3    H138180   5.750   1.063  13.543 -0.2665  2.3500 -0.0895
 5563TIP3    H238181   5.655   1.148  13.461 -2.2928 -1.0435 -1.4447
 5564TIP3   OH238182   7.045   3.381  15.633 -0.5349 -0.3398 -0.0132
 5564TIP3    H138183   7.099   3.340  15.565  0.1857 -1.5898  1.2539
 5564TIP3    H238184   7.056   3.475  15.618  2.0572 -0.5319  0.1709
 5565TIP3   OH238185   4.211   1.619   9.641 -0.0843  0.5400  0.2841
 5565TIP3    H138186   4.164   1.543   9.674 -0.6733  1.6816  2.2451
 5565TIP3    H238187   4.287   1.582   9.594 -0.6964 -1.2261  0.6064
 5566TIP3   OH238188   6.082   2.020   0.332 -0.1271  0.1816 -0.5926
 5566TIP3    H138189   6.034   2.090   0.375  0.2369 -0.5713  1.1230
 5566TIP3    H238190   6.152   1.997   0.394 -0.4782 -1.9438 -0.8998
 5567TIP3   OH238191   0.505   7.017   1.310  0.4655 -0.5749 -0.2636
 5567TIP3    H138192   0.598   7.012   1.290  0.4954 -0.7714 -0.0777
 5567TIP3    H238193   0.485   6.935   1.356  0.3964 -0.1468  0.4890
 5568TIP3   OH238194   0.402   1.011  12.312 -0.0608 -0.2918 -0.3642
 5568TIP3    H138195   0.392   1.021  12.218  0.0531 -1.6046 -0.5291
 5568TIP3    H238196   0.321   1.047  12.349  0.7800  2.2188 -0.7903
 5569TIP3   OH238197   6.127   3.854   3.741  0.2982 -0.0378 -0.3507
 5569TIP3    H138198   6.154   3.777   3.692 -2.2217 -0.1199 -1.7811
 5569TIP3    H238199   6.202   3.914   3.736  1.0445 -1.0531 -2.1625
 5570TIP3   OH238200   3.791   2.102  12.582 -0.1029 -0.2576  0.3251
 5570TIP3    H138201   3.844   2.182  12.589  1.9312 -1.4784 -0.2516
 5570TIP3    H238202   3.703   2.129  12.608  0.9458  1.7023  2.1273
 5571TIP3   OH238203   3.187   0.391   0.112 -0.0490  0.7554  0.2588
 5571TIP3    H138204   3.232   0.343   0.042  0.6100  1.6790  0.0311
 5571TIP3    H238205   3.168   0.324   0.178  0.3721  0.0805 -0.2844
 5572TIP3   OH238206   6.948   0.975  14.313  0.4140  0.0403 -0.1774
 5572TIP3    H138207   6.988   1.058  14.337  0.3055 -0.0530  0.3392
 5572TIP3    H238208   7.017   0.910  14.330  0.8598  0.1208 -1.5582
 5573TIP3   OH238209   7.151   3.325  15.113 -0.0322  0.0239 -0.1741
 5573TIP3    H138210   7.205   3.317  15.035 -0.3623 -0.0322 -0.4022
 5573TIP3    H238211   7.181   3.405  15.156  2.5688 -1.7180  1.5475
 5574TIP3   OH238212   0.561   0.080   6.056 -0.0712 -0.3325  0.3700
 5574TIP3    H138213   0.648   0.056   6.087  0.3451 -0.3538 -0.7504
 5574TIP3    H238214   0.550   0.171   6.083  0.7486  0.0080 -0.3769
 5575TIP3   OH238215   6.105   5.375  12.704  0.4157  0.6886 -0.3514
 5575TIP3    H138216   6.141   5.299  12.750  1.0543  1.5378  0.5967
 5575TIP3    H238217   6.067   5.429  12.773  0.1314  1.3309 -0.9919
 5576TIP3   OH238218   6.434   5.822  15.017 -0.5732  0.1744 -0.6402
 5576TIP3    H138219   6.385   5.746  14.986  0.3125 -0.9412  0.5663
 5576TIP3    H238220   6.476   5.857  14.938  0.7493 -1.9189 -0.9384
 5577TIP3   OH238221   0.718   0.709   9.417  0.3051 -0.4101 -0.3686
 5577TIP3    H138222   0.776   0.673   9.350  1.9862  0.8546  0.3344
 5577TIP3    H238223   0.652   0.758   9.368  2.5292  2.0206 -1.1656
 5578TIP3   OH238224   5.070   2.717   0.071 -0.0743 -0.5133  0.2822
 5578TIP3    H138225   5.100   2.763   0.149  0.3560  0.3433 -0.3585
 5578TIP3    H238226   5.040   2.632   0.102 -0.6047  0.0856  1.4711
 5579TIP3   OH238227   0.175   6.846  12.130 -0.5474 -0.1819  0.3086
 5579TIP3    H138228   0.190   6.902  12.206 -1.7756  1.8351 -0.8292
 5579TIP3    H238229   0.088   6.872  12.099 -0.2530 -1.2355 -1.5370
 5580TIP3   OH238230   7.055   6.792   5.230  0.1511  0.3310  0.3769
 5580TIP3    H138231   7.117   6.740   5.281  0.6080  0.2483 -0.2628
 5580TIP3    H238232   7.059   6.879   5.269 -0.4318 -0.0311  1.2905
 5581TIP3   OH238233   6.860   6.760  13.102  0.2349 -0.0695  0.2650
 5581TIP3    H138234   6.768   6.758  13.129 -0.1795 -0.4786 -1.1149
 5581TIP3    H238235   6.884   6.852  13.106 -0.4041  0.1077  0.1114
 5582TIP3   OH238236   0.582   5.695  12.989 -0.1938 -0.3098 -0.3816
 5582TIP3    H138237   0.539   5.687  12.904 -1.1154 -1.2744  0.1458
 5582TIP3    H238238   0.622   5.782  12.988  0.2084 -0.4858 -1.9677
 5583TIP3   OH238239   0.672   0.215   0.678 -0.1375 -0.4106  0.0123
 5583TIP3    H138240   0.743   0.250   0.732 -1.0141  1.0328  0.2834
 5583TIP3    H238241   0.716   0.182   0.600  0.8191  0.7075  0.0488
 5584TIP3   OH238242   3.512   6.292  13.506  0.2485  0.5211  0.2943
 5584TIP3    H138243   3.514   6.221  13.442  1.9898  0.0843  0.7695
 5584TIP3    H238244   3.511   6.248  13.590 -1.0213  1.0929  0.5954
 5585TIP3   OH238245   0.352   2.999   3.539 -0.0105 -0.1726 -0.3985
 5585TIP3    H138246   0.395   3.045   3.466  1.7783  1.4663  1.5640
 5585TIP3    H238247   0.412   2.927   3.560 -0.3827 -0.4671 -0.3242
 5586TIP3   OH238248   2.116   6.250   9.839 -0.3320  0.3688  0.5755
 5586TIP3    H138249   2.177   6.287   9.902 -0.4688 -0.5853  1.2930
 5586TIP3    H238250   2.029   6.268   9.876 -0.5204  1.7148 -0.4356
 5587TIP3   OH238251   1.430   1.443  14.319 -0.6435  0.4580 -0.1587
 5587TIP3    H138252   1.449   1.530  14.354 -0.4934 -0.3910  2.0268
 5587TIP3    H238253   1.343   1.422  14.352 -0.2107 -0.6614  0.3072
 5588TIP3   OH238254   6.163   1.882   9.872 -0.2031  0.2584 -0.1411
 5588TIP3    H138255   6.173   1.967   9.916  2.3472 -1.2663  2.6445
 5588TIP3    H238256   6.244   1.872   9.821  0.1654 -0.9886  0.6374
 5589TIP3   OH238257   1.259   0.806  15.377  0.0181  0.1047 -0.6395
 5589TIP3    H138258   1.164   0.807  15.390 -0.1424  0.0493 -1.7130
 5589TIP3    H238259   1.288   0.724  15.417 -0.1072  0.9822  1.3550
 5590TIP3   OH238260   0.562   3.043  15.588  0.4140  0.1209 -0.0007
 5590TIP3    H138261   0.500   3.069  15.520 -1.0986 -0.9594  0.8914
 5590TIP3    H238262   0.528   2.959  15.620  1.2165  0.4696  1.9036
 5591TIP3   OH238263   0.637   5.092  12.346  0.3745 -0.6174  0.1878
 5591TIP3    H138264   0.681   5.015  12.310  2.2990  1.0603 -1.3331
 5591TIP3    H238265   0.664   5.164  12.288 -0.3301  1.4289  2.2377
 5592TIP3   OH238266   6.952   0.496   1.212  1.0788  0.1475  0.1892
 5592TIP3    H138267   6.914   0.582   1.195 -0.8776 -0.9070 -1.1381
 5592TIP3    H238268   6.910   0.467   1.293  0.8187 -0.0621 -0.0215
 5593TIP3   OH238269   5.655   3.649  11.619 -0.6027 -0.4479  0.2274
 5593TIP3    H138270   5.645   3.604  11.535 -1.2392 -2.1578  1.1520
 5593TIP3    H238271   5.749   3.656  11.631 -0.4731  1.2670 -1.3098
 5594TIP3   OH238272   0.997   5.085  10.271  0.5272  0.2958 -0.1633
 5594TIP3    H138273   1.011   5.111  10.180  0.3998  0.6531 -0.0804
 5594TIP3    H238274   1.083   5.090  10.311  0.1883  2.5886  0.3758
 5595TIP3   OH238275   5.387   1.714   0.650 -0.0758  0.2846 -0.3408
 5595TIP3    H138276   5.340   1.644   0.694  0.4340  0.1043 -0.0662
 5595TIP3    H238277   5.479   1.686   0.653 -0.0310  0.2827 -1.4999
 5596TIP3   OH238278   3.839   2.596  14.539 -0.1948 -0.2037 -0.4131
 5596TIP3    H138279   3.929   2.628  14.546 -0.1663  0.3884 -2.6271
 5596TIP3    H238280   3.841   2.510  14.579  0.5995  1.0047  2.3722
 5597TIP3   OH238281   2.257   4.841  12.414  0.0214  0.1989  0.1496
 5597TIP3    H138282   2.338   4.804  12.448  1.2836  2.1805 -0.4994
 5597TIP3    H238283   2.227   4.901  12.482 -0.3635  0.1889 -0.0093
 5598TIP3   OH238284   4.174   6.050  11.499 -0.5203 -0.7127  0.7800
 5598TIP3    H138285   4.089   6.011  11.520 -0.7775  0.1920  1.4439
 5598TIP3    H238286   4.153   6.138  11.468  0.1236 -0.7545  0.1989
 5599TIP3   OH238287   6.410   6.912  15.447 -0.0096 -0.0526  0.6032
 5599TIP3    H138288   6.412   6.881  15.356 -3.6115 -0.2460  0.4544
 5599TIP3    H238289   6.407   7.007  15.440  2.0772  0.0567  0.6856
 5600TIP3   OH238290   0.594   5.006  14.367  0.2041 -0.6116 -0.3025
 5600TIP3    H138291   0.607   5.089  14.321  2.0144 -0.8091 -0.2007
 5600TIP3    H238292   0.630   5.022  14.454 -1.2998 -0.8941  0.3998
 5601TIP3   OH238293   5.912   3.852  12.294 -0.4119 -0.0264  0.0947
 5601TIP3    H138294   5.858   3.905  12.353  0.9198 -1.1881  2.5246
 5601TIP3    H238295   5.954   3.915  12.236 -2.2086  1.1174 -0.0438
 5602TIP3   OH238296   4.317   5.278  11.023 -0.1097 -0.0329 -0.6390
 5602TIP3    H138297   4.262   5.200  11.025 -1.9381  1.1823 -1.2736
 5602TIP3    H238298   4.295   5.321  10.941 -0.0747  1.7844  0.2556
 5603TIP3   OH238299   2.529   0.209   0.709 -0.0812  0.2717  0.4963
 5603TIP3    H138300   2.624   0.217   0.717  0.2413 -0.5763 -1.6676
 5603TIP3    H238301   2.499   0.191   0.798  2.1607 -2.6027  0.8446
 5604TIP3   OH238302   6.912   2.576  13.774 -0.4253 -0.1056  0.2450
 5604TIP3    H138303   6.998   2.611  13.749  0.2088 -1.4066  0.5158
 5604TIP3    H238304   6.915   2.570  13.869 -1.0954  0.5015  0.3104
 5605TIP3   OH238305   3.682   1.559   1.196  0.4951 -0.6252  0.5835
 5605TIP3    H138306   3.772   1.532   1.181  0.4090 -0.6617  0.1116
 5605TIP3    H238307   3.632   1.515   1.127  0.1205 -0.5821  0.8229
 5606TIP3   OH238308   2.698   5.013  15.431  0.2624 -0.2309 -0.6161
 5606TIP3    H138309   2.637   5.077  15.397  1.3584  1.1510 -0.0683
 5606TIP3    H238310   2.780   5.029  15.383  0.7364 -0.7683 -0.0066
 5607TIP3   OH238311   5.733   6.414  14.249 -0.0262  0.3412 -0.7210
 5607TIP3    H138312   5.786   6.478  14.201 -0.1379  1.1232  0.1710
 5607TIP3    H238313   5.701   6.462  14.326  0.7577 -1.0887  0.5311
 5608TIP3   OH238314   2.929   0.386  10.668  0.4463  0.1978 -0.1634
 5608TIP3    H138315   2.974   0.388  10.583  0.0954  0.0155 -0.3595
 5608TIP3    H238316   2.930   0.477  10.697 -0.3033  0.4400 -0.8397
 5609TIP3   OH238317   1.042   1.653  15.248  0.6375 -0.6925  0.0593
 5609TIP3    H138318   1.095   1.573  15.246  0.9831 -0.4941  1.0293
 5609TIP3    H238319   0.989   1.644  15.327  0.7372  0.0728  0.2139
 5610TIP3   OH238320   5.430   4.273   1.894  0.4451 -0.3639  0.5793
 5610TIP3    H138321   5.399   4.350   1.943  1.9485  0.4809  0.2772
 5610TIP3    H238322   5.510   4.303   1.851  0.1086 -1.6008 -1.0034
 5611TIP3   OH238323   0.918   0.836  12.392  1.0654  0.4722  0.4307
 5611TIP3    H138324   0.882   0.748  12.400  1.1200  0.5305  1.5333
 5611TIP3    H238325   0.989   0.828  12.328  1.4636 -0.4109  0.9691
 5612TIP3   OH238326   1.695   0.047   2.305 -0.8195  0.5351  0.1622
 5612TIP3    H138327   1.614   0.084   2.340 -0.6965 -0.3091  1.3861
 5612TIP3    H238328   1.683  -0.048   2.313 -0.3848  0.3415 -1.2135
 5613TIP3   OH238329   2.188   0.518   4.540  0.2129  0.0365  0.1655
 5613TIP3    H138330   2.107   0.468   4.542  0.9266 -1.1567  0.0644
 5613TIP3    H238331   2.192   0.561   4.626 -1.4132  1.6309 -0.4770
 5614TIP3   OH238332   2.485   3.789  15.328  0.3010 -0.0421  0.2141
 5614TIP3    H138333   2.434   3.711  15.305  0.3267  0.0731 -0.2455
 5614TIP3    H238334   2.461   3.808  15.419 -0.5014  0.0402 -0.0108
 5615TIP3   OH238335   3.136   6.800  14.612 -0.1383  0.2911 -0.2530
 5615TIP3    H138336   3.208   6.845  14.654 -0.6192  0.6092  0.2403
 5615TIP3    H238337   3.171   6.714  14.588  0.2425  0.2507  0.4554
 5616TIP3   OH238338   0.869   3.578  15.236  0.8536  0.0690 -0.6307
 5616TIP3    H138339   0.825   3.644  15.290  1.1994 -0.3998  0.2430
 5616TIP3    H238340   0.877   3.502  15.293  0.4961 -0.7249 -1.6122
 5617TIP3   OH238341   6.086   0.133   9.980  0.3558 -0.7333 -0.2226
 5617TIP3    H138342   6.137   0.056   9.953  1.9690 -0.2784  1.3189
 5617TIP3    H238343   5.995   0.103   9.978  0.9487 -2.8172  0.6149
 5618TIP3   OH238344   3.677   5.108  12.174  0.3623 -0.1717  0.1979
 5618TIP3    H138345   3.591   5.125  12.211  1.0621 -0.0222  1.8265
 5618TIP3    H238346   3.659   5.077  12.085 -1.2838  1.3664 -0.0556
 5619TIP3   OH238347   5.349   2.387  11.636 -0.0207  0.5332  0.0396
 5619TIP3    H138348   5.281   2.370  11.701  0.5396  2.5272  1.2246
 5619TIP3    H238349   5.429   2.399  11.687  0.7355  0.6672 -1.1404
 5620TIP3   OH238350   4.239   2.825   5.241 -0.2551  0.3889 -0.2949
 5620TIP3    H138351   4.299   2.791   5.175 -1.3476  0.0822 -1.1645
 5620TIP3    H238352   4.296   2.868   5.305  1.0541 -1.6560 -0.0001
 5621TIP3   OH238353   1.227   4.856  10.832 -0.5906 -0.4255  0.1681
 5621TIP3    H138354   1.197   4.854  10.742 -1.4661  0.2879  0.4355
 5621TIP3    H238355   1.181   4.930  10.872  0.1106 -0.4591  1.0840
 5622TIP3   OH238356   6.860   2.313  13.660  0.0446 -0.4479 -0.3928
 5622TIP3    H138357   6.863   2.377  13.731 -3.3133 -0.7586  0.1881
 5622TIP3    H238358   6.798   2.351  13.597 -0.3353 -2.1236 -1.0650
 5623TIP3   OH238359   1.069   5.993  12.106  0.0704 -0.1029  0.0906
 5623TIP3    H138360   1.085   5.990  12.201  1.5453 -1.7165 -0.1750
 5623TIP3    H238361   1.037   6.082  12.091  0.1160  0.3001  2.0475
 5624TIP3   OH238362   0.615   6.208  14.319 -0.8454 -0.0942 -0.7928
 5624TIP3    H138363   0.614   6.303  14.333 -0.7620 -0.3876  1.7062
 5624TIP3    H238364   0.595   6.197  14.226 -0.7413  2.3636 -1.1740
 5625TIP3   OH238365   6.071   4.655  10.774 -0.2487  0.7450  0.7841
 5625TIP3    H138366   6.007   4.719  10.804 -0.2318  0.6376  1.0482
 5625TIP3    H238367   6.032   4.618  10.695  0.6156  2.4806 -0.5131
 5626TIP3   OH238368   3.130   5.032  11.137  0.7508 -0.0417 -0.0769
 5626TIP3    H138369   3.059   5.095  11.130  0.2462 -0.6614 -0.7221
 5626TIP3    H238370   3.209   5.081  11.114  0.4590  0.5085  0.0897
 5627TIP3   OH238371   1.757   0.751  12.892 -0.4638 -0.6700 -0.0846
 5627TIP3    H138372   1.806   0.833  12.890 -0.1948 -0.8234 -2.0075
 5627TIP3    H238373   1.710   0.749  12.808 -0.9456 -2.1919  0.1879
 5628TIP3   OH238374   6.409   0.896  10.557  0.7961 -0.1546 -0.3411
 5628TIP3    H138375   6.464   0.838  10.609  0.0405  1.4814  2.5467
 5628TIP3    H238376   6.320   0.871  10.579  0.4230 -0.0711 -1.6905
 5629TIP3   OH238377   2.102   7.057   2.681 -0.1390  0.2969  0.4413
 5629TIP3    H138378   2.057   7.140   2.668 -0.1767  0.3283  0.7789
 5629TIP3    H238379   2.147   7.066   2.765  0.4077  0.2259  0.1604
 5630TIP3   OH238380   3.814   3.296  10.597 -0.4105 -0.1977  0.4395
 5630TIP3    H138381   3.755   3.224  10.618 -0.0520 -0.8296 -0.6063
 5630TIP3    H238382   3.863   3.264  10.520 -0.8737  1.4971 -0.6060
 5631TIP3   OH238383   6.870   1.293  12.801  0.0139 -0.3508 -0.2002
 5631TIP3    H138384   6.926   1.367  12.825 -0.2036 -0.0299 -0.6760
 5631TIP3    H238385   6.918   1.249  12.731 -1.1226  0.9732 -1.9052
 5632TIP3   OH238386   3.198   6.009  10.953 -0.1491 -0.2666 -0.0745
 5632TIP3    H138387   3.221   5.922  10.921 -1.7720 -0.4281 -0.8756
 5632TIP3    H238388   3.252   6.069  10.901 -0.6281 -0.6885 -1.0721
 5633TIP3   OH238389   1.497   5.337   0.497  0.3500  0.2813  0.1552
 5633TIP3    H138390   1.495   5.390   0.417  0.4043 -0.0215 -0.0450
 5633TIP3    H238391   1.448   5.258   0.475  1.9415 -0.6382 -0.1552
 5634TIP3   OH238392   5.195   3.335  10.421 -0.7675 -0.1828 -0.1045
 5634TIP3    H138393   5.103   3.323  10.447 -0.8949 -0.1106 -0.5119
 5634TIP3    H238394   5.224   3.410  10.472 -0.2847 -1.5047  1.6529
 5635TIP3   OH238395   3.112   3.056  11.250  1.0360  0.2426  0.0100
 5635TIP3    H138396   3.083   3.053  11.159 -0.8940 -1.9580  0.6190
 5635TIP3    H238397   3.042   3.101  11.297  1.8112  0.9719  0.5051
 5636TIP3   OH238398   3.541   3.899   9.710 -0.0360 -0.2310  0.5330
 5636TIP3    H138399   3.573   3.827   9.655 -0.1954  2.0010 -2.8234
 5636TIP3    H238400   3.620   3.938   9.748  0.2065 -1.1211  0.9536
 5637TIP3   OH238401   1.668   6.878   0.473 -0.6194  0.6594  0.3190
 5637TIP3    H138402   1.659   6.969   0.503  0.5307  0.8090  0.2808
 5637TIP3    H238403   1.665   6.826   0.553 -0.4008  0.8143  0.4304
 5638TIP3   OH238404   3.018   0.919  14.065  0.3459 -0.2898 -0.2574
 5638TIP3    H138405   3.021   1.010  14.095  0.2906 -0.0518 -0.9540
 5638TIP3    H238406   2.948   0.879  14.117 -0.8842  0.5495 -1.1952
 5639TIP3   OH238407   1.242   2.004  13.341 -0.1710  0.2656  0.0766
 5639TIP3    H138408   1.150   1.998  13.367 -0.0378 -0.4185  0.4077
 5639TIP3    H238409   1.261   2.098  13.342 -0.5957  0.3535  0.9970
 5640TIP3   OH238410   6.903   2.272  14.184  0.6336 -0.3687 -0.3091
 5640TIP3    H138411   6.821   2.258  14.136  0.0545  0.9861  0.2219
 5640TIP3    H238412   6.957   2.196  14.163  0.3880  0.1109 -3.0213
 5641TIP3   OH238413   6.480   4.384  14.573  0.5350  0.1386  0.1448
 5641TIP3    H138414   6.459   4.294  14.548  0.4500  0.5217 -1.2580
 5641TIP3    H238415   6.418   4.438  14.524  2.6396  1.1259 -1.6310
 5642TIP3   OH238416   2.064   3.383  13.102 -0.1595  0.0168  0.2811
 5642TIP3    H138417   2.130   3.318  13.080 -0.9125 -1.2728  1.6064
 5642TIP3    H238418   2.101   3.467  13.073  0.5968 -1.0334 -1.9866
 5643TIP3   OH238419   1.782   5.426   9.585 -0.0506 -0.2752  0.4710
 5643TIP3    H138420   1.794   5.332   9.580  0.2907 -0.1560 -1.5274
 5643TIP3    H238421   1.688   5.439   9.575 -0.0344 -0.3804  0.1752
 5644TIP3   OH238422   5.231   6.181   0.041 -0.0531 -0.0895  0.2838
 5644TIP3    H138423   5.219   6.252  -0.022  0.4143 -0.0752  0.2105
 5644TIP3    H238424   5.170   6.202   0.111  0.1464  0.4358  0.3070
 5645TIP3   OH238425   0.662   1.392  13.167  1.4582 -0.3869 -0.2438
 5645TIP3    H138426   0.625   1.447  13.098 -0.5742  0.4292  1.3859
 5645TIP3    H238427   0.649   1.302  13.136  0.9704 -0.0305 -1.0973
 5646TIP3   OH238428   2.940   4.860  14.002  0.3216  0.3490 -0.4346
 5646TIP3    H138429   2.928   4.952  13.982  0.8170  0.7943  1.1873
 5646TIP3    H238430   2.853   4.828  14.026  0.5124  1.0045  1.2650
 5647TIP3   OH238431   5.315   5.934  10.799 -0.1514 -0.1952  0.0842
 5647TIP3    H138432   5.265   5.880  10.738 -0.2306  0.8743 -0.8205
 5647TIP3    H238433   5.406   5.920  10.775 -0.1629 -0.0621 -0.0392
 5648TIP3   OH238434   4.805   0.989  15.032  0.0022 -0.3766  0.2870
 5648TIP3    H138435   4.723   1.001  15.080  0.4526  0.3173  0.9070
 5648TIP3    H238436   4.827   1.076  14.999  0.0969 -0.7022 -0.5509
 5649TIP3   OH238437   0.077   1.137  13.015 -0.4632 -0.2861 -0.1255
 5649TIP3    H138438   0.144   1.203  13.001 -1.0819  0.5573  0.7326
 5649TIP3    H238439   0.120   1.054  12.995  0.0607  0.4170 -2.1976
 5650TIP3   OH238440   3.639   2.010   4.884 -0.3535 -0.8393 -0.2064
 5650TIP3    H138441   3.628   1.951   4.809 -0.0601 -1.6905  0.4012
 5650TIP3    H238442   3.651   2.096   4.845 -0.9891 -1.1412 -1.1179
 5651TIP3   OH238443   1.454   4.984  15.467  0.9180 -0.3204 -0.3650
 5651TIP3    H138444   1.455   4.976  15.372 -2.1417  1.6105 -0.6794
 5651TIP3    H238445   1.492   5.070  15.485  3.6438 -1.5629  0.4676
 5652TIP3   OH238446   3.674   4.025  14.803 -0.1561  0.1503  0.6763
 5652TIP3    H138447   3.746   4.046  14.744  1.4463 -1.0532  2.1114
 5652TIP3    H238448   3.596   4.033  14.749  1.1198  0.5545 -1.1954
 5653TIP3   OH238449   6.265   6.076  12.889  0.3879 -0.1162  0.0268
 5653TIP3    H138450   6.262   6.110  12.800 -1.4983 -0.8974 -0.2636
 5653TIP3    H238451   6.272   5.981  12.878  1.0500 -0.1562  0.7321
 5654TIP3   OH238452   0.754   3.211  12.076 -0.5938 -0.5437 -0.1348
 5654TIP3    H138453   0.843   3.191  12.047 -0.4834 -0.2801  0.0143
 5654TIP3    H238454   0.716   3.262  12.005  0.2393  1.5588  0.8399
 5655TIP3   OH238455   5.219   0.409  15.415  0.1671  0.2049  0.5535
 5655TIP3    H138456   5.255   0.320  15.414  0.4289  0.3139 -0.1489
 5655TIP3    H238457   5.215   0.434  15.323  1.5464  1.5206  0.8211
 5656TIP3   OH238458   3.478   4.425  12.638 -0.1114 -0.2634  0.2263
 5656TIP3    H138459   3.444   4.496  12.692 -0.1523  0.2247 -0.4276
 5656TIP3    H238460   3.450   4.446  12.549 -0.6536 -1.4290  0.1003
 5657TIP3   OH238461   6.020   1.392   0.468  0.2667 -0.1338  0.4174
 5657TIP3    H138462   5.928   1.409   0.486  0.0183 -0.2363 -0.6826
 5657TIP3    H238463   6.067   1.451   0.527 -0.5265  1.1969 -0.2197
 5658TIP3   OH238464   0.871   5.176   1.421  0.7344 -0.3196  0.0476
 5658TIP3    H138465   0.826   5.120   1.357  0.0812 -0.3656  0.5340
 5658TIP3    H238466   0.802   5.231   1.457  1.0885 -0.3100  0.7317
 5659TIP3   OH238467   2.443   1.032  11.005  0.0612  0.0091 -0.2057
 5659TIP3    H138468   2.523   0.981  10.993 -0.0103 -0.2496  0.3629
 5659TIP3    H238469   2.472   1.115  11.043  0.1114  0.1231 -0.4936
 5660TIP3   OH238470   4.494   3.155  15.149 -0.0528  0.2995  0.3266
 5660TIP3    H138471   4.519   3.188  15.062  0.1225  0.0123  0.2673
 5660TIP3    H238472   4.449   3.073  15.131  0.0756  0.1889  0.5156
 5661TIP3   OH238473   0.127   3.233   2.191  0.0048 -0.0295  0.0706
 5661TIP3    H138474   0.034   3.258   2.186  0.6873  3.4640  1.5904
 5661TIP3    H238475   0.126   3.142   2.218 -2.9708 -0.2738 -0.4785
 5662TIP3   OH238476   1.545   0.142  10.607 -0.1728  0.6581 -0.0746
 5662TIP3    H138477   1.602   0.123  10.532  0.7837  0.2165  0.7431
 5662TIP3    H238478   1.598   0.199  10.663 -1.4486  2.2997 -0.4393
 5663TIP3   OH238479   4.117   1.309  11.052 -0.2307  1.0604  0.1666
 5663TIP3    H138480   4.190   1.266  11.009 -1.7906 -0.1437 -1.4173
 5663TIP3    H238481   4.118   1.275  11.142  0.4878  0.1992 -0.1579
 5664TIP3   OH238482   3.424   2.059  14.467 -0.0100 -0.3563 -0.1151
 5664TIP3    H138483   3.355   2.112  14.507  0.4441 -0.4740  0.8754
 5664TIP3    H238484   3.399   2.052  14.375 -1.1456 -0.1275  0.1547
 5665TIP3   OH238485   1.093   4.416  13.886  0.0453 -0.0524  0.0707
 5665TIP3    H138486   1.027   4.465  13.935 -1.3465 -0.3608 -1.4086
 5665TIP3    H238487   1.087   4.450  13.796  0.0010 -1.9284 -0.6932
 5666TIP3   OH238488   3.368   5.831   1.590 -0.4485  0.2853  0.0958
 5666TIP3    H138489   3.424   5.856   1.517 -0.9024 -0.8368 -0.6604
 5666TIP3    H238490   3.310   5.906   1.603 -0.8102  0.2318 -1.1476
 5667TIP3   OH238491   6.492   6.664  12.686 -0.1454 -0.0923 -0.2374
 5667TIP3    H138492   6.538   6.726  12.743 -0.4182  0.8595 -1.0302
 5667TIP3    H238493   6.487   6.583  12.738 -2.3862  1.3507  2.0648
 5668TIP3   OH238494   4.927   6.710  13.964  0.0975 -0.1322 -0.3342
 5668TIP3    H138495   4.995   6.769  13.999 -1.0549  0.2683  1.3573
 5668TIP3    H238496   4.959   6.686  13.877  0.4391  3.3816 -1.3579
 5669TIP3   OH238497   3.501   1.027  13.330 -0.0246  0.0070 -0.9483
 5669TIP3    H138498   3.539   1.043  13.417  0.1699 -0.8071 -0.8782
 5669TIP3    H238499   3.411   1.058  13.338 -0.2996 -0.9461 -0.1564
 5670TIP3   OH238500   6.233   2.522  14.547  0.3803 -0.6612 -0.0710
 5670TIP3    H138501   6.162   2.567  14.501  1.0890 -1.2428 -1.8009
 5670TIP3    H238502   6.306   2.584  14.545 -0.6534  1.0137  3.9264
 5671TIP3   OH238503   5.660   5.793  10.836 -0.2795  0.1764  0.2772
 5671TIP3    H138504   5.656   5.876  10.883  1.2134  0.5877 -0.2624
 5671TIP3    H238505   5.638   5.727  10.901 -3.7804  1.1021  0.2034
 5672TIP3   OH238506   0.372   6.755  10.044 -0.7307  0.5847  0.3599
 5672TIP3    H138507   0.295   6.727   9.994 -1.0827 -0.5471  1.4839
 5672TIP3    H238508   0.446   6.729   9.990 -1.0427 -2.4633  1.2089
 5673TIP3   OH238509   5.260   2.524  12.856 -0.3469 -0.7443 -0.1912
 5673TIP3    H138510   5.179   2.486  12.891  0.2037 -2.6086 -0.8339
 5673TIP3    H238511   5.274   2.479  12.773  0.7495  0.3903 -0.6484
 5674TIP3   OH238512   3.762   3.471   1.107  0.0228 -0.7022  0.3129
 5674TIP3    H138513   3.791   3.438   1.192 -1.1963 -1.7173  0.3593
 5674TIP3    H238514   3.837   3.519   1.073  0.7184 -0.7573  1.7146
 5675TIP3   OH238515   3.924   1.237   9.932  0.3810  0.4005 -0.3744
 5675TIP3    H138516   3.833   1.265   9.921  0.3325  0.6532  0.5538
 5675TIP3    H238517   3.931   1.217  10.025  0.8637 -1.0993 -0.7072
 5676TIP3   OH238518   1.387   4.733  12.228  0.0509 -0.0976  0.0301
 5676TIP3    H138519   1.393   4.669  12.157 -0.2204  0.4430 -0.4891
 5676TIP3    H238520   1.393   4.818  12.184  0.5565  0.2328  0.7292
 5677TIP3   OH238521   5.818   2.476   9.880  0.5705  0.2267 -0.6187
 5677TIP3    H138522   5.821   2.549   9.818 -2.3804  0.1131 -1.0569
 5677TIP3    H238523   5.749   2.500   9.941  3.4444  0.3887  2.8773
 5678TIP3   OH238524   6.150   1.919   2.332 -0.2768 -0.4595 -0.2646
 5678TIP3    H138525   6.076   1.859   2.328 -1.8706  1.4193 -0.1616
 5678TIP3    H238526   6.141   1.974   2.254 -1.0208  2.0028  1.4420
 5679TIP3   OH238527   6.741   3.249   2.425  0.2385 -0.2913  0.1810
 5679TIP3    H138528   6.770   3.324   2.477 -1.5878 -0.7039  1.9028
 5679TIP3    H238529   6.700   3.289   2.348  2.0377  0.3534 -0.5021
 5680TIP3   OH238530   2.238   4.684   0.024 -0.3743  0.6054  0.1756
 5680TIP3    H138531   2.204   4.673  -0.065 -0.6054  1.3742  0.1642
 5680TIP3    H238532   2.179   4.631   0.078  0.2190 -0.4769 -0.2101
 5681TIP3   OH238533   2.740   4.170  10.337 -0.2606  0.2798  0.0826
 5681TIP3    H138534   2.802   4.161  10.265 -0.2776 -1.0618  0.2238
 5681TIP3    H238535   2.655   4.183  10.294 -0.1444  0.3603 -0.1245
 5682TIP3   OH238536   2.514   5.910  11.430  0.7615  0.7693  0.3253
 5682TIP3    H138537   2.446   5.936  11.491 -1.0519 -3.5802  0.4936
 5682TIP3    H238538   2.503   5.968  11.355  0.8057  3.9507  2.5838
 5683TIP3   OH238539   0.737   2.168  15.757 -0.1217  0.1423  0.9883
 5683TIP3    H138540   0.754   2.158  15.663 -0.6256  0.5675  0.8488
 5683TIP3    H238541   0.810   2.122  15.799  0.3402  0.3073  0.3917
 5684TIP3   OH238542   4.268   5.517   3.561 -0.3709 -0.3226 -0.0387
 5684TIP3    H138543   4.215   5.586   3.601  0.3477 -0.0107  0.4060
 5684TIP3    H238544   4.355   5.530   3.598  0.0721 -0.6787 -0.9291
 5685TIP3   OH238545   5.947   0.633   9.960 -0.4728  0.6067  0.2873
 5685TIP3    H138546   5.930   0.589  10.044 -0.1245  0.4918  0.2989
 5685TIP3    H238547   5.862   0.633   9.916 -0.4498 -0.2228  0.2208
 5686TIP3   OH238548   3.456   2.391  14.541  0.0786 -0.6337  0.0504
 5686TIP3    H138549   3.468   2.477  14.581  0.3070 -0.9278  0.6266
 5686TIP3    H238550   3.361   2.378  14.540  0.0867 -0.9166  1.1623
 5687TIP3   OH238551   4.763   3.802  11.603  0.3589  0.1420  0.1375
 5687TIP3    H138552   4.716   3.832  11.525 -0.6574  0.7970  0.9689
 5687TIP3    H238553   4.802   3.718  11.577 -0.7852 -0.1331 -0.7827
 5688TIP3   OH238554   1.140   5.279   0.356 -0.5244 -0.3789 -0.0850
 5688TIP3    H138555   1.142   5.370   0.327 -0.5224 -0.3818 -0.0932
 5688TIP3    H238556   1.072   5.278   0.424  0.7245  0.0291  1.2438
 5689TIP3   OH238557   5.310   1.910   0.209 -0.2323  0.4857 -0.8939
 5689TIP3    H138558   5.347   1.928   0.295  0.5033 -0.0359 -1.0913
 5689TIP3    H238559   5.265   1.990   0.185 -0.4094  0.6520 -0.0424
 5690TIP3   OH238560   6.041   6.659   0.375  0.3881 -0.7416  0.4469
 5690TIP3    H138561   6.047   6.581   0.319  0.2692 -2.3345  2.5059
 5690TIP3    H238562   5.990   6.722   0.324 -0.5367 -2.4569 -0.8509
 5691TIP3   OH238563   4.938   0.980   9.845  0.1942 -0.2382 -0.5494
 5691TIP3    H138564   4.949   0.970   9.940  1.7047  0.0813 -0.6764
 5691TIP3    H238565   4.846   0.959   9.830 -0.7902  2.2231  1.3398
 5692TIP3   OH238566   6.502   2.404  14.280  0.3461  0.0055 -0.5618
 5692TIP3    H138567   6.536   2.331  14.228 -1.2197 -1.7697  0.7959
 5692TIP3    H238568   6.506   2.373  14.371  0.7010  2.0726  0.1920
 5693TIP3   OH238569   7.134   1.630   1.294  0.0660  0.3861  0.2960
 5693TIP3    H138570   7.080   1.709   1.289 -1.7742 -0.7995  0.5030
 5693TIP3    H238571   7.101   1.583   1.371  2.3576  0.2485  1.2681
 5694TIP3   OH238572   6.000   2.796  11.116  0.2054 -0.5330  0.1291
 5694TIP3    H138573   5.967   2.712  11.085 -1.1911 -0.7718  2.1136
 5694TIP3    H238574   5.978   2.857  11.045 -1.6671 -1.2867 -0.0095
 5695TIP3   OH238575   4.942   6.960  13.676  0.0529 -0.3775  0.1746
 5695TIP3    H138576   4.995   6.892  13.634  0.3313  0.4475 -0.8812
 5695TIP3    H238577   4.866   6.915  13.710  0.2899 -1.2332 -0.4072
 5696TIP3   OH238578   5.365   1.109  13.055 -0.3092  0.3840  0.6235
 5696TIP3    H138579   5.372   1.182  12.993 -1.3739  0.6775  0.8185
 5696TIP3    H238580   5.301   1.050  13.015  0.6729 -0.5509  0.3852
 5697TIP3   OH238581   3.603   0.199  12.409  0.2082 -0.6345  0.1502
 5697TIP3    H138582   3.681   0.145  12.421  0.4099 -0.6732 -1.1192
 5697TIP3    H238583   3.588   0.198  12.314 -1.0182 -0.1794  0.3194
 5698TIP3   OH238584   2.663   4.820  14.023 -0.0923 -0.8529  0.7188
 5698TIP3    H138585   2.673   4.817  13.928  1.0809 -0.1517  0.8030
 5698TIP3    H238586   2.634   4.732  14.047  0.5790 -1.3397 -0.1912
 5699TIP3   OH238587   4.359   0.904  14.902  0.0617 -0.3144  0.3810
 5699TIP3    H138588   4.356   0.995  14.871  1.4879  1.1243  3.9294
 5699TIP3    H238589   4.451   0.879  14.891  0.2907 -0.2537  1.8657
 5700TIP3   OH238590   2.189   3.640   3.079 -0.0977 -0.9214 -0.1926
 5700TIP3    H138591   2.151   3.695   3.011  2.5826 -0.9127 -1.8091
 5700TIP3    H238592   2.219   3.703   3.145  1.3723 -0.5194 -1.2023
 5701TIP3   OH238593   2.972   0.396  12.372  0.2438 -0.1294 -0.0573
 5701TIP3    H138594   3.011   0.328  12.317  0.5337  0.6369 -0.8310
 5701TIP3    H238595   2.979   0.476  12.319 -1.2899  0.2543  0.2817
 5702TIP3   OH238596   0.146   5.062  15.047  0.3448 -0.2249 -0.0597
 5702TIP3    H138597   0.148   5.112  15.129 -2.8312 -1.4499  0.9146
 5702TIP3    H238598   0.143   5.130  14.979  0.5345  0.8630  0.9705
 5703TIP3   OH238599   1.763   3.865  14.800  0.1680  0.0164 -0.1240
 5703TIP3    H138600   1.735   3.847  14.710  1.2971  2.9613 -1.1716
 5703TIP3    H238601   1.693   3.829  14.854 -0.4281 -2.0953 -2.1125
 5704TIP3   OH238602   4.130   4.952  10.005  0.4538 -0.2145 -0.6617
 5704TIP3    H138603   4.042   4.981   9.979  0.0483 -0.3737  0.4565
 5704TIP3    H238604   4.173   4.928   9.923 -0.5010  0.0045 -1.2420
 5705TIP3   OH238605   6.157   3.919   0.993 -0.3310 -0.2141 -0.1063
 5705TIP3    H138606   6.066   3.891   0.994 -0.4076 -0.1147 -1.5686
 5705TIP3    H238607   6.200   3.857   0.933  0.7708 -0.8455  1.2831
 5706TIP3   OH238608   4.154   5.499  14.743  0.0422 -0.4349 -0.1184
 5706TIP3    H138609   4.095   5.511  14.817 -0.2115 -1.3356 -0.1534
 5706TIP3    H238610   4.199   5.583  14.734  0.1775 -0.3421  1.1381
 5707TIP3   OH238611   4.754   6.621   0.400  0.7306 -0.3886  0.3739
 5707TIP3    H138612   4.782   6.713   0.404  1.2574 -0.5275 -0.1559
 5707TIP3    H238613   4.790   6.581   0.479  1.7495 -0.4847 -0.1279
 5708TIP3   OH238614   2.656   2.688  12.880  0.4320  0.5645 -0.0935
 5708TIP3    H138615   2.573   2.701  12.834  0.3786  2.0018  0.3834
 5708TIP3    H238616   2.722   2.722  12.819  0.6046  0.1449 -0.1441
 5709TIP3   OH238617   0.612   4.134   9.552 -0.4830 -0.1542  0.5018
 5709TIP3    H138618   0.694   4.124   9.503 -2.0555 -3.2038 -1.8813
 5709TIP3    H238619   0.571   4.212   9.513 -0.1622 -0.5660 -0.7251
 5710TIP3   OH238620   2.445   5.570  10.999  0.5769  0.1118  0.1013
 5710TIP3    H138621   2.528   5.533  11.032 -0.4750 -1.0053  1.6796
 5710TIP3    H238622   2.406   5.612  11.075 -0.9135 -0.5544 -0.2538
 5711TIP3   OH238623   4.499   5.046  10.438  0.0783 -0.1714  0.1168
 5711TIP3    H138624   4.557   5.098  10.383 -0.7534  0.4543 -0.1995
 5711TIP3    H238625   4.435   5.109  10.471 -1.3230 -1.0648 -0.7632
 5712TIP3   OH238626   2.956   0.181  10.099  0.1860 -0.2559  0.2498
 5712TIP3    H138627   2.866   0.206  10.117  0.0641  0.2368 -0.9620
 5712TIP3    H238628   2.986   0.140  10.180 -0.9015  0.1833  0.8935
 5713TIP3   OH238629   5.733   1.739  14.909  0.1435  0.2727 -0.3737
 5713TIP3    H138630   5.823   1.719  14.881 -0.2252  0.8169 -2.0884
 5713TIP3    H238631   5.726   1.834  14.901 -0.5904  0.2290 -0.3122
 5714TIP3   OH238632   2.406   0.678  12.373 -0.6995  0.5293 -0.0497
 5714TIP3    H138633   2.371   0.748  12.318  0.7265  2.5280  1.4238
 5714TIP3    H238634   2.473   0.636  12.319  0.1164  1.9343 -0.1826
 5715TIP3   OH238635   0.590   6.339  15.339 -0.0720 -0.0566 -0.1793
 5715TIP3    H138636   0.548   6.367  15.257 -0.1988  0.0448 -0.0806
 5715TIP3    H238637   0.518   6.323  15.399 -0.0159 -1.0006 -0.3597
 5716TIP3   OH238638   3.161   4.263  12.795  0.3883 -0.0035 -0.2879
 5716TIP3    H138639   3.233   4.243  12.854  1.4453 -1.1728 -1.8923
 5716TIP3    H238640   3.197   4.249  12.707 -2.0686 -1.6212 -1.1422
 5717TIP3   OH238641   3.354   6.506  13.699 -0.1457 -0.4525 -0.0383
 5717TIP3    H138642   3.427   6.480  13.755  0.2099  1.2873  0.3660
 5717TIP3    H238643   3.280   6.455  13.731 -0.2719  1.3650  2.9375
 5718TIP3   OH238644   3.832   4.675   2.458  0.1423 -0.2433  0.3474
 5718TIP3    H138645   3.896   4.684   2.528  0.7690  0.1129 -0.2521
 5718TIP3    H238646   3.871   4.722   2.384 -1.5328  1.3821  0.4320
 5719TIP3   OH238647   3.824   5.434  11.234 -0.2158 -0.1413 -0.2447
 5719TIP3    H138648   3.919   5.425  11.231 -0.2266 -1.5375  1.7698
 5719TIP3    H238649   3.793   5.357  11.283 -2.0754  1.8534  1.9932
 5720TIP3   OH238650   2.955   6.110   3.214  0.0049 -0.1111  0.1313
 5720TIP3    H138651   3.044   6.145   3.218 -0.1877  0.2891  1.5144
 5720TIP3    H238652   2.947   6.073   3.126  0.7001  2.0685 -0.9218
 5721TIP3   OH238653   1.611   6.446  15.721  0.0727 -0.4413  0.4877
 5721TIP3    H138654   1.528   6.480  15.755 -0.0291 -1.7358  1.6041
 5721TIP3    H238655   1.592   6.354  15.700 -0.2205  0.4714 -4.3356
 5722TIP3   OH238656   6.903   3.865  12.473 -0.5619  0.6248 -0.6184
 5722TIP3    H138657   6.844   3.910  12.535 -0.0160 -1.0994  1.2630
 5722TIP3    H238658   6.888   3.772  12.490  0.1045  0.1071 -2.6747
 5723TIP3   OH238659   4.888   3.300  11.246 -0.4993 -0.0778  0.1727
 5723TIP3    H138660   4.810   3.343  11.213  0.8287  1.5974 -0.9346
 5723TIP3    H238661   4.901   3.225  11.188 -0.0669  0.9288 -1.0813
 5724TIP3   OH238662   7.042   1.561   9.992 -0.3708  0.1099  0.3295
 5724TIP3    H138663   7.038   1.657   9.996  1.8619  0.3595 -1.3976
 5724TIP3    H238664   6.997   1.538   9.911 -0.3723 -0.2518  0.4316
 5725TIP3   OH238665   5.629   0.497   5.730 -0.0244  0.5509  0.3865
 5725TIP3    H138666   5.564   0.460   5.790  0.0944 -0.2606  0.0205
 5725TIP3    H238667   5.669   0.568   5.780 -0.9452  0.8389  0.7394
 5726TIP3   OH238668   1.423   6.276  14.257  0.4522 -0.1740  0.1521
 5726TIP3    H138669   1.382   6.233  14.332 -1.3959 -0.9385 -1.2267
 5726TIP3    H238670   1.356   6.335  14.223  1.1824  0.0325 -1.0049
 5727TIP3   OH238671   3.470   3.090   3.067 -0.2389 -0.7121 -0.1501
 5727TIP3    H138672   3.383   3.075   3.030 -0.4286 -0.4766  0.1862
 5727TIP3    H238673   3.453   3.133   3.151  0.1538 -1.8013  0.5101
 5728TIP3   OH238674   2.932   6.435   3.327  0.2334 -0.2948 -0.5738
 5728TIP3    H138675   2.854   6.448   3.380  0.4952 -2.2600  0.3818
 5728TIP3    H238676   2.959   6.524   3.302 -1.1708  0.5376  0.6944
 5729TIP3   OH238677   4.679   2.128  10.960 -0.4079  0.3290  0.0737
 5729TIP3    H138678   4.612   2.059  10.958 -0.6125  0.5474 -0.6507
 5729TIP3    H238679   4.645   2.192  11.023 -1.0052  0.5601 -0.4748
 5730TIP3   OH238680   2.909   0.668  15.342 -0.2285  0.1038 -0.1824
 5730TIP3    H138681   2.895   0.626  15.427  1.2074  1.0207  0.5559
 5730TIP3    H238682   2.857   0.616  15.281 -0.9882 -0.8210  1.1849
 5731TIP3   OH238683   2.280   2.231  11.807  0.0242 -0.1755  0.1454
 5731TIP3    H138684   2.238   2.311  11.838 -0.6302  0.0628 -1.3069
 5731TIP3    H238685   2.289   2.243  11.713 -0.5470 -2.0098 -0.1893
 5732TIP3   OH238686   1.271   3.290  14.163  0.7631 -0.0517 -0.0631
 5732TIP3    H138687   1.194   3.318  14.114  0.2162 -0.3651  0.6003
 5732TIP3    H238688   1.263   3.194  14.168  0.2637  0.0369  1.4856
 5733TIP3   OH238689   0.442   6.267  12.207  0.5610  0.1927  0.0991
 5733TIP3    H138690   0.463   6.358  12.187 -0.4303  0.2178 -0.9348
 5733TIP3    H238691   0.391   6.237  12.132  2.9587 -2.0055 -0.8092
 5734TIP3   OH238692   3.253   1.077   3.921  0.1795 -0.0129 -0.3997
 5734TIP3    H138693   3.255   1.064   4.016 -1.1004 -1.0666 -0.4888
 5734TIP3    H238694   3.318   1.015   3.887  0.0478 -0.2296 -0.2603
 5735TIP3   OH238695   3.507   3.960  15.734  0.3969  0.5165 -0.4105
 5735TIP3    H138696   3.423   3.921  15.711  1.2583 -1.2315 -0.7360
 5735TIP3    H238697   3.527   4.019  15.662 -0.0743  0.1824 -0.8191
 5736TIP3   OH238698   2.555   6.646   4.560 -0.3460  0.1053  0.4578
 5736TIP3    H138699   2.555   6.693   4.643  2.5473  1.3909 -0.1424
 5736TIP3    H238700   2.587   6.558   4.582 -2.9991 -0.8060  1.1286
 5737TIP3   OH238701   1.989   5.357  10.882 -0.2919 -0.2134 -0.4602
 5737TIP3    H138702   2.054   5.407  10.931 -1.6098  0.2462  0.8858
 5737TIP3    H238703   2.034   5.276  10.858  0.1546 -0.9227  2.3990
 5738TIP3   OH238704   3.174   6.305  15.292 -0.8272 -0.4545 -0.0768
 5738TIP3    H138705   3.267   6.318  15.308 -0.6777 -0.2420 -1.0658
 5738TIP3    H238706   3.165   6.211  15.277 -0.8803 -0.5687  0.6177
 5739TIP3   OH238707   2.600   6.851  10.032 -0.5657 -0.2405  0.1683
 5739TIP3    H138708   2.613   6.917  10.100 -2.0336 -0.0470  0.2818
 5739TIP3    H238709   2.580   6.901   9.953 -0.7995 -0.5257  0.0449
 5740TIP3   OH238710   3.310   3.179  12.074 -0.0494 -0.0467 -0.0067
 5740TIP3    H138711   3.381   3.199  12.136  0.3113 -1.1358 -0.0502
 5740TIP3    H238712   3.322   3.241  12.003  0.3667  0.3149  0.3700
 5741TIP3   OH238713   0.659   6.482  14.194 -0.1160 -0.0504  0.4284
 5741TIP3    H138714   0.632   6.537  14.120 -1.1389  0.2848  1.0287
 5741TIP3    H238715   0.680   6.398  14.155  0.1072  0.3506 -0.3346
 5742TIP3   OH238716   0.068   0.830  10.067 -0.3641  0.5119 -0.1959
 5742TIP3    H138717   0.121   0.771  10.012 -0.9505 -1.9592  1.6930
 5742TIP3    H238718  -0.004   0.857  10.011 -0.1618 -0.7209 -1.0961
 5743TIP3   OH238719   0.373   3.384  10.673  0.3517 -0.3934  0.1118
 5743TIP3    H138720   0.329   3.461  10.639  0.0138 -0.7783 -0.3338
 5743TIP3    H238721   0.315   3.351  10.741  0.2929 -0.4880  0.0174
 5744TIP3   OH238722   6.538   6.459   5.693  0.0627  0.1335  0.3754
 5744TIP3    H138723   6.597   6.497   5.758 -0.0139  0.2071  0.4023
 5744TIP3    H238724   6.461   6.516   5.694  0.1062  0.1952  0.1414
 5745TIP3   OH238725   0.174   2.498  13.453  0.0100 -0.1137 -0.2597
 5745TIP3    H138726   0.233   2.565  13.419  0.0462 -0.7815 -1.5832
 5745TIP3    H238727   0.090   2.515  13.409 -0.2595 -0.3041  0.1777
 5746TIP3   OH238728   6.664   1.638   3.481  0.1540 -0.5479  0.6343
 5746TIP3    H138729   6.710   1.585   3.546 -0.8855 -1.7060  0.4623
 5746TIP3    H238730   6.726   1.646   3.409  0.6250 -0.8530  0.9959
 5747TIP3   OH238731   5.809   5.089  14.296  0.1053  0.1451 -0.4196
 5747TIP3    H138732   5.871   5.054  14.231 -1.5663  0.3505 -2.1912
 5747TIP3    H238733   5.866   5.124  14.365  1.9987  0.5893 -2.0870
 5748TIP3   OH238734   5.074   2.795  11.056 -0.0764 -0.1321  0.0441
 5748TIP3    H138735   5.114   2.863  11.002  1.4953 -0.9977  0.0410
 5748TIP3    H238736   5.146   2.764  11.112 -0.6511 -1.9646 -0.1695
 5749TIP3   OH238737   3.388   0.488   1.942  0.4347  0.2611  0.1326
 5749TIP3    H138738   3.297   0.476   1.968  0.6149 -1.4206  0.1529
 5749TIP3    H238739   3.420   0.559   1.997 -0.8318  0.8239  0.1761
 5750TIP3   OH238740   4.553   1.937  12.420  0.1002 -0.4836  0.1114
 5750TIP3    H138741   4.485   1.905  12.361 -1.0947  0.9006  0.6741
 5750TIP3    H238742   4.635   1.922  12.372 -0.6818 -1.0789 -1.1027
 5751TIP3   OH238743   5.897   3.917  11.584 -0.6036 -0.2462 -0.1925
 5751TIP3    H138744   5.986   3.902  11.618 -0.9052  1.6034  1.6064
 5751TIP3    H238745   5.898   3.878  11.497  1.8951 -0.5224 -0.1201
 5752TIP3   OH238746   1.271   1.074  12.096 -0.1768 -0.5587 -0.5825
 5752TIP3    H138747   1.204   1.045  12.158  0.1746  1.5338  0.8849
 5752TIP3    H238748   1.227   1.076  12.011 -1.4597 -0.9269  0.0592
 5753TIP3   OH238749   3.297   2.543   4.343 -0.7031 -0.2680  0.1237
 5753TIP3    H138750   3.264   2.564   4.256 -0.1203 -2.4151 -0.6898
 5753TIP3    H238751   3.257   2.458   4.363  1.7321 -1.3954  0.4816
 5754TIP3   OH238752   1.542   1.503  13.570  0.2470  0.5722  0.5581
 5754TIP3    H138753   1.519   1.488  13.661 -0.5898  0.4788  0.3371
 5754TIP3    H238754   1.515   1.593  13.552 -2.4041 -0.3275 -0.4118
 5755TIP3   OH238755   0.524   2.163  11.879  0.6697 -0.2106  0.2405
 5755TIP3    H138756   0.590   2.195  11.817  0.3047 -1.6741 -0.9890
 5755TIP3    H238757   0.533   2.219  11.955  1.6324  1.2228 -0.8687
 5756TIP3   OH238758   3.078   6.538  13.088  0.1267  0.5274  0.5405
 5756TIP3    H138759   3.010   6.590  13.132  0.5005  1.0034  0.5637
 5756TIP3    H238760   3.084   6.458  13.140 -0.5874  0.3722  0.3949
 5757TIP3   OH238761   1.549   0.563   1.272 -0.1739  0.0860  0.2166
 5757TIP3    H138762   1.461   0.528   1.259 -0.1635 -0.9723  2.4391
 5757TIP3    H238763   1.560   0.566   1.367  2.2396  0.1086  0.0107
 5758TIP3   OH238764   1.936   0.516  12.725 -0.0630 -0.4262 -0.0077
 5758TIP3    H138765   1.951   0.594  12.779 -0.2950  0.7389 -1.5680
 5758TIP3    H238766   1.937   0.444  12.788  0.9573  0.7255  1.3917
 5759TIP3   OH238767   3.616   0.261  10.881 -0.0047  0.0377  0.0409
 5759TIP3    H138768   3.536   0.212  10.900  0.4339  0.0931  2.2232
 5759TIP3    H238769   3.681   0.194  10.860 -0.2495 -0.0914 -0.3131
 5760TIP3   OH238770   2.652   0.204  11.166 -0.0978 -0.1108 -0.3755
 5760TIP3    H138771   2.704   0.262  11.111 -0.2413 -2.0091 -2.6897
 5760TIP3    H238772   2.712   0.132  11.189 -0.4876 -0.1150  0.7159
 5761TIP3   OH238773   1.491   1.833   2.850 -0.0548 -0.7312 -0.6054
 5761TIP3    H138774   1.494   1.774   2.775  0.4709 -1.0880 -0.3125
 5761TIP3    H238775   1.401   1.865   2.852 -0.6150 -2.2403 -0.2408
 5762TIP3   OH238776   3.044   5.107   2.069 -0.4297 -0.6381 -0.0063
 5762TIP3    H138777   3.025   5.051   1.993 -3.3483  0.3841 -0.1657
 5762TIP3    H238778   2.998   5.189   2.050  4.2934  2.3105 -0.1635
 5763TIP3   OH238779   5.961   1.594  13.749  0.2444  0.2762  0.4446
 5763TIP3    H138780   5.915   1.519  13.787  0.6365 -0.3921 -0.3569
 5763TIP3    H238781   5.909   1.620  13.673  0.2831  0.6104  0.5288
 5764TIP3   OH238782   3.040   6.284   4.063 -0.1984  0.2539  0.2232
 5764TIP3    H138783   3.108   6.228   4.028 -0.8977 -0.9347  0.7149
 5764TIP3    H238784   2.962   6.263   4.012 -0.7292 -0.0221  1.1097
 5765TIP3   OH238785   6.047   5.822   2.774  0.0125  0.2446  0.1320
 5765TIP3    H138786   5.954   5.845   2.774  0.3492  1.9235 -1.6666
 5765TIP3    H238787   6.077   5.845   2.686  1.9285 -1.2117  0.3383
 5766TIP3   OH238788   3.110   4.162  10.826 -0.1546 -0.1149 -0.6188
 5766TIP3    H138789   3.102   4.067  10.813 -1.3721 -0.0531 -0.4783
 5766TIP3    H238790   3.026   4.197  10.796 -0.4582  0.7099  1.0460
 5767TIP3   OH238791   6.937   4.497  12.708  0.1130  0.2410 -0.3681
 5767TIP3    H138792   6.973   4.524  12.792 -0.4035  2.5159 -0.8010
 5767TIP3    H238793   6.910   4.579  12.666 -0.6933 -0.9215 -2.2704
 5768TIP3   OH238794   0.771   6.219  11.718 -0.4657 -0.3177 -0.1642
 5768TIP3    H138795   0.828   6.242  11.645 -1.4959  1.9958 -0.3253
 5768TIP3    H238796   0.683   6.241  11.687 -1.0542 -0.4328  1.3442
 5769TIP3   OH238797   7.059   3.830  10.970 -0.4000  0.3146 -0.2499
 5769TIP3    H138798   7.006   3.762  11.012 -0.7331  0.4572 -0.4340
 5769TIP3    H238799   7.068   3.898  11.038  0.9077 -0.4036  0.3315
 5770TIP3   OH238800   3.279   4.319  13.548  0.4904  0.2476  0.0549
 5770TIP3    H138801   3.218   4.347  13.617  0.5476  0.9790 -0.1831
 5770TIP3    H238802   3.352   4.381  13.554  1.1313 -0.5137  0.2205
 5771TIP3   OH238803   5.255   1.398  13.202  0.2216  0.8243  0.1500
 5771TIP3    H138804   5.260   1.359  13.114 -1.7146  1.1266 -0.1589
 5771TIP3    H238805   5.181   1.353  13.243  0.5013  1.3656  1.2787
 5772TIP3   OH238806   4.625   6.288  14.567  0.5279 -0.0647 -0.0470
 5772TIP3    H138807   4.638   6.341  14.645 -1.0040  0.9131 -0.4090
 5772TIP3    H238808   4.710   6.247  14.551  0.7411 -0.6930  2.3884
 5773TIP3   OH238809   3.897   6.451  15.126  0.6535  0.2141 -0.2124
 5773TIP3    H138810   3.934   6.365  15.148  0.7901 -0.4840 -2.8266
 5773TIP3    H238811   3.973   6.508  15.115  0.8017 -0.1986 -1.6014
 5774TIP3   OH238812   2.453   2.651  13.611 -0.4583  0.4877 -0.0422
 5774TIP3    H138813   2.485   2.740  13.626 -1.1324  0.9011 -0.9807
 5774TIP3    H238814   2.386   2.638  13.678 -0.5138  0.7775 -0.0390
 5775TIP3   OH238815   0.778   6.905  14.337 -0.2074  0.2770 -0.7287
 5775TIP3    H138816   0.749   6.816  14.360 -0.2943  0.3780 -0.4402
 5775TIP3    H238817   0.862   6.892  14.294  0.6963  0.1709  0.9751
 5776TIP3   OH238818   5.452   0.498   9.830  0.0679  0.2336  0.8770
 5776TIP3    H138819   5.410   0.434   9.772 -2.2788  2.0351  0.4323
 5776TIP3    H238820   5.381   0.533   9.883  1.6315  1.0028  2.6010
 5777TIP3   OH238821   1.177   5.532   0.181 -0.3291 -0.0764 -0.1798
 5777TIP3    H138822   1.108   5.563   0.239  0.7509  1.8262  0.1845
 5777TIP3    H238823   1.134   5.516   0.098 -1.3126  0.5205  0.2002
 5778TIP3   OH238824   2.013   5.571   5.407  0.3433 -0.3044  0.3237
 5778TIP3    H138825   2.023   5.476   5.420 -1.6951 -0.6051  0.0378
 5778TIP3    H238826   2.074   5.592   5.337  0.8817 -1.3928  0.4389
 5779TIP3   OH238827   4.423   3.923  12.520  0.4653  0.3163 -0.6124
 5779TIP3    H138828   4.437   3.976  12.599 -0.3059  0.7993 -0.7922
 5779TIP3    H238829   4.407   3.986  12.451  0.3937 -0.1281 -1.0049
 5780TIP3   OH238830   7.148   0.159  14.105 -0.3712 -0.6521 -0.5150
 5780TIP3    H138831   7.168   0.106  14.182  0.6140  0.2705 -0.1044
 5780TIP3    H238832   7.198   0.240  14.118 -1.5263  0.2289 -1.3053
 5781TIP3   OH238833   0.728   4.386   9.813 -0.4209  0.3021 -0.3879
 5781TIP3    H138834   0.822   4.380   9.830 -0.6176 -0.8440  0.3842
 5781TIP3    H238835   0.717   4.468   9.764  0.9771  0.4236 -0.5177
 5782TIP3   OH238836   6.993   3.156  14.397 -0.4227 -0.0145 -0.5436
 5782TIP3    H138837   6.966   3.186  14.484  0.1509 -0.8441 -0.0659
 5782TIP3    H238838   7.068   3.099  14.414  0.2908  0.5642 -1.6667
 5783TIP3   OH238839   2.198   4.194  12.768  0.2674  0.0430  0.2141
 5783TIP3    H138840   2.232   4.260  12.829  0.6191  0.6874 -0.6563
 5783TIP3    H238841   2.174   4.244  12.690  0.2744 -0.8290 -0.3568
 5784TIP3   OH238842   3.631   2.459   1.940  0.4604  0.0764 -0.1716
 5784TIP3    H138843   3.611   2.552   1.951  2.2994  0.4116  0.8720
 5784TIP3    H238844   3.581   2.415   2.009  0.1793  0.3893 -0.1763
 5785TIP3   OH238845   5.827   1.728   3.908  0.3382  0.1398  0.6154
 5785TIP3    H138846   5.734   1.708   3.916  0.5567 -0.3427  2.4116
 5785TIP3    H238847   5.871   1.653   3.949  1.4225  1.2548  1.5893
 5786TIP3   OH238848   0.137   1.755  14.719  0.2371  0.4400  0.1083
 5786TIP3    H138849   0.155   1.784  14.809 -2.8347 -1.8829  1.6651
 5786TIP3    H238850   0.051   1.791  14.700 -0.0905 -0.9036 -1.0503
 5787TIP3   OH238851   0.566   2.519   4.025  0.1171  0.2662 -0.4677
 5787TIP3    H138852   0.572   2.615   4.018 -0.2655  0.2427 -1.2866
 5787TIP3    H238853   0.571   2.502   4.119  1.1164  1.0222 -0.3627
 5788TIP3   OH238854   2.224   3.500   4.984  0.0509  0.3521  0.4610
 5788TIP3    H138855   2.135   3.495   4.948 -0.5817 -1.2021  2.1148
 5788TIP3    H238856   2.257   3.411   4.980  1.2342  0.7643  0.6537
 5789TIP3   OH238857   2.357   1.140  13.722  0.0578  0.6370  0.0784
 5789TIP3    H138858   2.280   1.129  13.667  0.1348  1.0047 -0.1112
 5789TIP3    H238859   2.364   1.059  13.772 -1.3503  1.1930  1.2426
 5790TIP3   OH238860   2.669   3.609  11.222  0.0544  0.5211 -0.2700
 5790TIP3    H138861   2.588   3.585  11.176  1.1527  0.3428 -2.2412
 5790TIP3    H238862   2.725   3.532  11.213  0.4492  0.6254  1.1147
 5791TIP3   OH238863   6.490   4.539  10.832  0.3073 -0.0367 -0.0580
 5791TIP3    H138864   6.519   4.569  10.746  0.6182 -0.7587 -0.2119
 5791TIP3    H238865   6.544   4.588  10.894 -1.2116  1.9187 -0.1662
 5792TIP3   OH238866   1.736   4.816  14.740  0.5301  0.0947  0.1319
 5792TIP3    H138867   1.773   4.793  14.654  0.5943 -0.5430  0.3222
 5792TIP3    H238868   1.810   4.813  14.800  0.1638 -1.4553  0.5653
 5793TIP3   OH238869   0.970   6.822   9.464 -0.2202 -0.3633 -0.3470
 5793TIP3    H138870   1.058   6.798   9.493  0.3588  0.4290 -1.3697
 5793TIP3    H238871   0.930   6.865   9.540  0.6335  0.1225 -0.1588
 5794TIP3   OH238872   2.972   2.794   2.644  0.0979  0.4072  0.2685
 5794TIP3    H138873   2.973   2.836   2.557  4.7231  0.5355  0.1095
 5794TIP3    H238874   2.943   2.863   2.703  1.7500  2.0514 -0.7097
 5795TIP3   OH238875   1.767   1.700   0.797 -0.4406 -0.2656  0.0247
 5795TIP3    H138876   1.770   1.614   0.840 -0.5598 -0.2228  0.1184
 5795TIP3    H238877   1.717   1.684   0.716 -0.8234 -0.1968  0.2443
 5796TIP3   OH238878   4.214   0.944  12.672 -0.5128 -0.6063  0.5526
 5796TIP3    H138879   4.172   0.891  12.604  0.4780 -0.7148  0.0125
 5796TIP3    H238880   4.302   0.959  12.640 -1.0177  2.2035  0.2532
 5797TIP3   OH238881   4.200   2.609   4.536 -0.2963 -1.0718  0.1362
 5797TIP3    H138882   4.119   2.629   4.489 -0.4613 -0.5121  0.6401
 5797TIP3    H238883   4.200   2.669   4.610  1.8314  0.7450 -1.2176
 5798TIP3   OH238884   4.302   0.763   0.030  0.3376 -0.1280  0.3185
 5798TIP3    H138885   4.379   0.713   0.058 -0.5738 -2.3720 -0.8745
 5798TIP3    H238886   4.331   0.811  -0.048  0.5848 -0.8794 -0.0627
 5799TIP3   OH238887   0.293   1.866  10.886 -0.0039 -0.3219  0.5734
 5799TIP3    H138888   0.364   1.802  10.896 -0.1335 -0.5773 -0.1235
 5799TIP3    H238889   0.323   1.924  10.816 -0.0732  0.1433  0.9183
 5800TIP3   OH238890   5.603   0.047  14.104 -0.0701  0.0573 -0.0165
 5800TIP3    H138891   5.553   0.020  14.028  0.0245  0.3822 -0.1980
 5800TIP3    H238892   5.538   0.057  14.174 -0.0767 -0.8700  0.1283
 5801TIP3   OH238893   6.252   5.651  13.040 -0.1504  0.4252  0.4181
 5801TIP3    H138894   6.248   5.579  12.977  0.8658 -0.5934  1.4949
 5801TIP3    H238895   6.161   5.679  13.049 -1.0201 -2.5507  2.0358
 5802TIP3   OH238896   5.935   3.348   3.754 -0.1340  0.6860  0.8592
 5802TIP3    H138897   5.866   3.405   3.789  0.8434 -0.3184  4.9967
 5802TIP3    H238898   6.016   3.397   3.768  0.3913 -0.0591  0.4870
 5803TIP3   OH238899   4.526   0.069  10.440 -0.3670 -0.2861 -0.0007
 5803TIP3    H138900   4.496   0.091  10.352  1.7767 -0.4741 -0.8349
 5803TIP3    H238901   4.552  -0.023  10.434  0.3477 -0.1319  0.6724
 5804TIP3   OH238902   2.435   4.701  11.316  1.1715 -0.4488  0.3053
 5804TIP3    H138903   2.367   4.759  11.348  1.1711 -0.6433  0.6627
 5804TIP3    H238904   2.417   4.616  11.358  0.4478 -1.0469 -1.1546
 5805TIP3   OH238905   4.341   4.676  12.577  0.1707 -0.3405  1.0054
 5805TIP3    H138906   4.350   4.583  12.555  0.5837  0.0111 -0.3945
 5805TIP3    H238907   4.306   4.716  12.497  2.7771  1.1874  0.5282
 5806TIP3   OH238908   6.823   4.647   1.258 -1.0066 -0.2439  0.5498
 5806TIP3    H138909   6.883   4.720   1.274  0.4945 -1.0155 -1.1691
 5806TIP3    H238910   6.763   4.679   1.191  1.0780 -1.1961 -1.9305
 5807TIP3   OH238911   4.099   1.261  12.125 -0.2198  0.6470  0.1106
 5807TIP3    H138912   4.152   1.234  12.050 -0.1770  2.0268 -0.3827
 5807TIP3    H238913   4.010   1.267  12.091 -0.3665  0.3372  0.4261
 5808TIP3   OH238914   4.148   7.127   1.413 -0.0976 -0.2318  0.0518
 5808TIP3    H138915   4.153   7.047   1.361  0.7914 -1.3829  1.7963
 5808TIP3    H238916   4.231   7.172   1.398 -0.0707 -0.2876  0.0355
 5809TIP3   OH238917   2.287   0.055  11.651  0.2389  0.0805 -0.1337
 5809TIP3    H138918   2.231   0.090  11.582 -0.6937  0.3001  0.7080
 5809TIP3    H238919   2.253   0.094  11.731  0.0052 -1.7277  0.6946
 5810TIP3   OH238920   0.009   5.544   6.207 -0.2259 -0.2150  0.1156
 5810TIP3    H138921   0.047   5.631   6.219  0.5883  0.0389 -3.3788
 5810TIP3    H238922   0.083   5.485   6.216 -0.7856 -0.6744  2.5287
 5811TIP3   OH238923   5.105   6.985   4.691  0.0468  0.2360 -0.1503
 5811TIP3    H138924   5.045   6.949   4.626  1.1920 -0.9804 -0.5821
 5811TIP3    H238925   5.112   7.078   4.667 -1.3168  0.3127 -0.3300
 5812TIP3   OH238926   1.617   0.789  13.832 -0.0223  0.7199  0.0546
 5812TIP3    H138927   1.638   0.881  13.813 -0.0290  1.0156  1.3470
 5812TIP3    H238928   1.698   0.742  13.813 -0.1591  0.9025 -1.0765
 5813TIP3   OH238929   6.308   4.856   9.775  0.3923  0.0743  0.1470
 5813TIP3    H138930   6.271   4.904   9.849  1.8514  0.7774  0.4562
 5813TIP3    H238931   6.375   4.800   9.815 -0.0834 -0.9478 -0.4335
 5814TIP3   OH238932   0.916   5.262  12.194  0.6351 -0.4430  0.3321
 5814TIP3    H138933   0.924   5.283  12.101  2.1213  0.8497  0.7171
 5814TIP3    H238934   0.848   5.322  12.225  0.0189 -0.9900  0.0598
 5815TIP3   OH238935   0.651   2.551  11.264  0.0852 -0.3852  0.0636
 5815TIP3    H138936   0.704   2.472  11.251  1.0611  0.0895  1.0613
 5815TIP3    H238937   0.623   2.575  11.175 -1.5228 -2.6876 -0.1626
 5816TIP3   OH238938   2.878   6.282  11.774 -0.2087  0.0806  0.2644
 5816TIP3    H138939   2.905   6.366  11.812 -0.4685  0.6428 -0.7506
 5816TIP3    H238940   2.800   6.304  11.722  0.1268 -0.6645 -0.5682
 5817TIP3   OH238941   6.615   2.111   2.481  0.2052  0.1054 -0.6894
 5817TIP3    H138942   6.636   2.113   2.387 -0.7780  0.7414 -0.9200
 5817TIP3    H238943   6.564   2.191   2.495 -0.4675 -0.4603  0.1909
 5818TIP3   OH238944   4.843   1.723   9.334  0.0062  0.4588 -0.2795
 5818TIP3    H138945   4.888   1.747   9.253 -0.1610 -1.1101 -0.8729
 5818TIP3    H238946   4.754   1.756   9.322 -0.0043  0.2781 -0.7216
 5819TIP3   OH238947   5.465   0.882  13.576  0.6212 -0.1046 -0.3440
 5819TIP3    H138948   5.532   0.947  13.552  1.3249 -0.5786  0.2668
 5819TIP3    H238949   5.489   0.804  13.526 -0.9668  0.4410 -2.0638
 5820TIP3   OH238950   1.088   2.953  13.578  0.1108  0.4930  0.6656
 5820TIP3    H138951   1.045   2.948  13.492 -1.6451  0.2712  1.5143
 5820TIP3    H238952   1.153   2.883  13.576 -1.1265 -0.7080  0.1232
 5821TIP3   OH238953   2.347   3.443   3.567  0.3041  0.7237 -0.3294
 5821TIP3    H138954   2.252   3.433   3.570  0.3586  0.3293  1.2341
 5821TIP3    H238955   2.365   3.518   3.624  1.0150 -0.1897  0.7127
 5822TIP3   OH238956   5.465   4.803  15.101 -0.1912  0.2109 -0.2781
 5822TIP3    H138957   5.526   4.877  15.104  0.5718 -0.4244  0.4278
 5822TIP3    H238958   5.399   4.828  15.037  0.4481  1.2029 -0.5600
 5823TIP3   OH238959   0.763   6.251  14.057 -0.1590 -0.0254  0.1681
 5823TIP3    H138960   0.804   6.325  14.013  0.7912  0.1146  1.2265
 5823TIP3    H238961   0.787   6.175  14.005  3.0910 -0.1965  1.6945
 5824TIP3   OH238962   0.784   7.046  11.010 -0.5776  0.0810  0.2007
 5824TIP3    H138963   0.840   7.124  11.021 -0.9016  0.1616  1.4629
 5824TIP3    H238964   0.695   7.079  11.024 -0.7135 -0.5175  0.7944
 5825TIP3   OH238965   3.726   2.592  11.614  0.0022  0.8795 -0.1233
 5825TIP3    H138966   3.744   2.561  11.703 -0.4956 -0.3957 -0.4569
 5825TIP3    H238967   3.813   2.599  11.574  0.2762  1.9582  0.5920
 5826TIP3   OH238968   0.922   2.333  14.475  0.0413  0.4677  0.6336
 5826TIP3    H138969   0.967   2.407  14.436 -0.7864  1.0472  0.7646
 5826TIP3    H238970   0.831   2.360  14.481 -0.7038 -1.3657 -1.3327
 5827TIP3   OH238971   6.598   6.826  13.157 -0.1376  0.0522 -0.3602
 5827TIP3    H138972   6.526   6.763  13.168  0.0699  0.0384  1.1902
 5827TIP3    H238973   6.566   6.906  13.199  0.5425  0.2020 -0.1104
 5828TIP3   OH238974   4.762   4.481  11.331 -0.5083 -0.1413  0.2656
 5828TIP3    H138975   4.845   4.529  11.327 -0.4790 -0.2221 -0.1444
 5828TIP3    H238976   4.784   4.392  11.305 -0.5516 -0.4018  1.0976
 5829TIP3   OH238977   2.758   0.078   1.357 -0.0158 -0.2387  0.3534
 5829TIP3    H138978   2.669   0.099   1.330 -0.5377 -1.8847  0.6384
 5829TIP3    H238979   2.789   0.016   1.290  1.0085  0.4963  0.1273
 5830TIP3   OH238980   2.262   3.734   0.909  0.0029  0.6063 -0.1505
 5830TIP3    H138981   2.201   3.808   0.911  0.3855  0.9194  1.6851
 5830TIP3    H238982   2.213   3.662   0.947 -0.4473 -0.2000 -2.1525
 5831TIP3   OH238983   1.352   2.009  12.622 -0.1203  0.8955 -0.3159
 5831TIP3    H138984   1.345   2.053  12.537 -1.1761 -0.3211 -0.8870
 5831TIP3    H238985   1.273   2.036  12.669 -0.3630  0.2690 -0.3572
 5832TIP3   OH238986   6.698   2.089  12.115 -0.2536  0.0496  0.1861
 5832TIP3    H138987   6.604   2.100  12.097  0.1593  1.2454 -1.5762
 5832TIP3    H238988   6.716   1.998  12.092 -0.7696  0.1388 -0.6410
 5833TIP3   OH238989   2.634   5.577   1.270  0.1108 -0.0536 -0.2313
 5833TIP3    H138990   2.583   5.642   1.221  1.9792  0.6531 -1.3335
 5833TIP3    H238991   2.659   5.512   1.205 -2.1696 -2.3028  0.9451
 5834TIP3   OH238992   4.782   2.114  13.809  0.1598  0.3882 -0.7272
 5834TIP3    H138993   4.703   2.112  13.862  1.1218 -1.7580  0.7223
 5834TIP3    H238994   4.784   2.030  13.763  1.3476  0.5955 -1.1134
 5835TIP3   OH238995   5.167   5.370  10.442 -0.5100  0.1790  0.0797
 5835TIP3    H138996   5.185   5.392  10.351 -0.6606  1.0406  0.2499
 5835TIP3    H238997   5.154   5.455  10.485 -1.6526 -0.2574  0.6436
 5836TIP3   OH238998   2.597   4.125   0.409 -0.3510  0.1687  0.0572
 5836TIP3    H138999   2.551   4.083   0.337  1.3243  0.2240 -1.0887
 5836TIP3    H239000   2.551   4.093   0.488 -1.2730 -1.0763 -0.9333
 5837TIP3   OH239001   0.581   1.241   0.301  0.7048  0.3125 -0.1213
 5837TIP3    H139002   0.616   1.291   0.228  0.9498  0.4565  0.0967
 5837TIP3    H239003   0.654   1.231   0.361  1.3345 -2.2820 -1.1892
 5838TIP3   OH239004   1.490   1.446  15.279 -0.0389 -0.0334 -0.2784
 5838TIP3    H139005   1.573   1.398  15.274  0.1805 -0.1828  2.7423
 5838TIP3    H239006   1.515   1.538  15.275  0.2110 -0.0857  0.0435
 5839TIP3   OH239007   3.209   2.511  10.575 -0.7097  0.0761 -0.5397
 5839TIP3    H139008   3.114   2.519  10.567 -0.8302  0.1774  0.8786
 5839TIP3    H239009   3.230   2.550  10.659 -0.3178 -6.2953  2.9258
 5840TIP3   OH239010   0.772   5.274   0.278  0.4199  0.0381 -0.6984
 5840TIP3    H139011   0.677   5.271   0.262  0.6721  0.6646 -2.6124
 5840TIP3    H239012   0.788   5.202   0.339 -1.0690 -1.1944 -1.6637
 5841TIP3   OH239013   0.006   2.735  12.150  0.3947 -0.4792  0.9351
 5841TIP3    H139014  -0.076   2.783  12.157  1.0636  0.7178  0.8086
 5841TIP3    H239015   0.060   2.769  12.222  0.7984 -1.2121  0.9885
 5842TIP3   OH239016   0.229   5.736  11.498  0.3614 -0.5734 -0.2853
 5842TIP3    H139017   0.182   5.792  11.560  0.0411  0.9585 -1.8256
 5842TIP3    H239018   0.169   5.727  11.424  1.4708 -0.7235 -1.1983
 5843TIP3   OH239019   5.996   3.270   5.505 -0.3994  0.0744  0.5093
 5843TIP3    H139020   5.972   3.177   5.504 -0.4723  0.0863 -0.4907
 5843TIP3    H239021   6.024   3.288   5.415  1.7871  0.4793  1.2237
 5844TIP3   OH239022   3.293   7.085  12.723  0.3616 -0.6711  0.0136
 5844TIP3    H139023   3.211   7.071  12.772 -0.0846 -0.0034 -0.5227
 5844TIP3    H239024   3.343   7.005  12.737 -1.3616 -2.1091 -1.5602
 5845TIP3   OH239025   5.589   1.891   4.556 -0.2149  0.5884 -0.5441
 5845TIP3    H139026   5.587   1.801   4.522 -0.0087  0.2760  0.2468
 5845TIP3    H239027   5.666   1.930   4.515  1.6705 -0.6439  1.6046
 5846TIP3   OH239028   5.348   4.104  11.975 -0.6942 -0.2531  0.5044
 5846TIP3    H139029   5.395   4.086  12.056  0.4600  1.9034  0.3884
 5846TIP3    H239030   5.393   4.052  11.909  0.6744  0.6629  0.6653
 5847TIP3   OH239031   4.241   1.456  12.515 -0.5268 -0.3588 -0.5539
 5847TIP3    H139032   4.180   1.402  12.567  0.2177 -0.2349  0.4850
 5847TIP3    H239033   4.218   1.546  12.537 -2.2448 -0.1561 -2.8334
 5848TIP3   OH239034   2.559   2.324  14.725  0.9399  0.3464  0.0970
 5848TIP3    H139035   2.596   2.343  14.812 -0.1569  1.6287  0.3275
 5848TIP3    H239036   2.554   2.229  14.721 -1.8651  0.2410  2.7709
 5849TIP3   OH239037   1.312   0.154  11.302  0.0724  0.3457  0.3352
 5849TIP3    H139038   1.241   0.215  11.283  0.0221  0.4751  0.9358
 5849TIP3    H239039   1.306   0.138  11.396  0.5446 -0.0095  0.3096
 5850TIP3   OH239040   1.319   5.618  12.188  0.3114  0.3221 -0.2621
 5850TIP3    H139041   1.408   5.646  12.165  0.4656 -0.5137 -0.7348
 5850TIP3    H239042   1.294   5.674  12.261  0.6902  1.5263 -1.0361
 5851TIP3   OH239043   0.299   6.494   3.162 -0.1698 -0.2676  0.0390
 5851TIP3    H139044   0.304   6.587   3.140  0.1574 -0.3844 -0.3815
 5851TIP3    H239045   0.288   6.493   3.257  1.1751  0.1735  0.2197
 5852TIP3   OH239046   6.827   4.646   3.349 -0.1956  0.3556 -0.2257
 5852TIP3    H139047   6.783   4.658   3.433 -2.3490 -1.5101 -0.9889
 5852TIP3    H239048   6.877   4.726   3.336 -2.2331  1.9899  1.4175
 5853TIP3   OH239049   4.383   4.448  13.860  0.0126  0.1041  0.0268
 5853TIP3    H139050   4.355   4.371  13.910  2.8146  0.0914  1.7796
 5853TIP3    H239051   4.444   4.413  13.795  1.0612  0.7666  0.6266
 5854TIP3   OH239052   6.130   1.342  14.728  0.2590  0.0787 -0.3504
 5854TIP3    H139053   6.211   1.351  14.678  0.6048 -0.4971  0.0840
 5854TIP3    H239054   6.098   1.431  14.740  0.5488  0.2688 -0.9858
 5855TIP3   OH239055   3.604   6.510  13.865  0.7075  0.8102 -0.0275
 5855TIP3    H139056   3.519   6.503  13.910  0.9794  1.1508  0.5492
 5855TIP3    H239057   3.640   6.594  13.894  1.8672  0.0491  0.8438
 5856TIP3   OH239058   6.266   4.883  10.205  0.1040 -0.2784  0.1030
 5856TIP3    H139059   6.347   4.846  10.171 -0.5102 -0.5079 -1.1861
 5856TIP3    H239060   6.224   4.923  10.128 -1.4526 -1.0126  0.5304
 5857TIP3   OH239061   3.086   7.111   4.288  0.1695 -0.1342 -0.0177
 5857TIP3    H139062   3.123   7.169   4.354 -0.9807  0.8888 -0.2240
 5857TIP3    H239063   3.048   7.038   4.338  1.4438 -0.6329  0.2557
 5858TIP3   OH239064   1.824   6.053   4.631 -0.3565  0.7767  0.2836
 5858TIP3    H139065   1.872   6.123   4.675  0.2610 -0.9513  2.5295
 5858TIP3    H239066   1.767   6.098   4.569 -0.2345  3.2767  1.8815
 5859TIP3   OH239067   4.324   5.481  13.786 -0.2536 -0.5125 -0.7004
 5859TIP3    H139068   4.281   5.519  13.863  0.6223 -0.0000 -0.4505
 5859TIP3    H239069   4.348   5.392  13.813 -0.2810 -0.4603 -0.5048
 5860TIP3   OH239070   4.297   5.057  14.166  0.0327 -0.2476  0.3176
 5860TIP3    H139071   4.246   5.007  14.103  0.1306 -0.1949  0.1969
 5860TIP3    H239072   4.244   5.055  14.246 -0.1398 -0.2270  0.2055
 5861TIP3   OH239073   3.942   4.266  12.676 -0.5052  0.2907 -0.0979
 5861TIP3    H139074   3.961   4.247  12.584  1.3467  0.0762  0.2884
 5861TIP3    H239075   3.876   4.336  12.672  0.0435  0.7757 -1.5972
 5862TIP3   OH239076   4.194   1.716  11.963 -0.0043  0.5648 -0.1486
 5862TIP3    H139077   4.101   1.734  11.946  0.0232  0.7542 -0.1018
 5862TIP3    H239078   4.221   1.659  11.891 -0.2979  0.0607  0.1403
 5863TIP3   OH239079   3.937   2.355   1.544  0.0227  0.4065 -0.2785
 5863TIP3    H139080   3.861   2.309   1.509 -0.8710 -0.4123  2.5023
 5863TIP3    H239081   3.901   2.434   1.585  1.1394  1.8343 -1.9025
 5864TIP3   OH239082   3.623   1.853  12.247 -0.4262  0.0908 -0.2579
 5864TIP3    H139083   3.648   1.791  12.316  0.6877  2.4660  1.6330
 5864TIP3    H239084   3.705   1.872  12.201  0.1345  2.8476  1.6223
 5865TIP3   OH239085   3.120   7.078  13.281  0.1000  0.3504 -0.5082
 5865TIP3    H139086   3.209   7.086  13.245  0.0177  0.8058 -0.6232
 5865TIP3    H239087   3.079   7.008  13.230  0.2956  0.3451 -0.6599
 5866TIP3   OH239088   0.338   0.560   1.786  0.6434  0.6138  0.2655
 5866TIP3    H139089   0.306   0.493   1.847 -1.4738  0.8963 -0.4439
 5866TIP3    H239090   0.291   0.639   1.811 -1.1937  0.4965 -2.3242
 5867TIP3   OH239091   2.146   0.871   4.653  0.0851 -0.6247 -0.5186
 5867TIP3    H139092   2.240   0.876   4.671  0.1088 -0.3425 -0.7229
 5867TIP3    H239093   2.114   0.803   4.713  0.4414 -0.8155 -0.5403
 5868TIP3   OH239094   6.111   0.049   9.486  0.0549  0.1669  0.2839
 5868TIP3    H139095   6.064   0.115   9.536 -2.2407 -3.1702  2.9832
 5868TIP3    H239096   6.082   0.063   9.395 -0.0802  2.9245  0.6698
 5869TIP3   OH239097   4.358   0.653  10.486 -0.1562 -0.9290  0.3435
 5869TIP3    H139098   4.402   0.576  10.522 -1.6951 -2.2445 -0.4241
 5869TIP3    H239099   4.429   0.712  10.460  1.2211 -3.1410 -1.3003
 5870TIP3   OH239100   0.330   2.342  10.605 -0.0953 -0.5518 -0.0711
 5870TIP3    H139101   0.399   2.407  10.616 -0.9378  0.4423 -0.4969
 5870TIP3    H239102   0.297   2.327  10.694 -0.8686  0.7270 -0.1108
 5871TIP3   OH239103   0.647   4.882   1.891 -0.4371  0.1843 -0.6561
 5871TIP3    H139104   0.573   4.830   1.924  0.2391 -0.5718 -0.3039
 5871TIP3    H239105   0.616   4.916   1.808 -1.4636  0.5027 -0.1656
 5872TIP3   OH239106   4.117   0.352  12.565 -0.2728  0.3201  0.2059
 5872TIP3    H139107   4.166   0.425  12.602 -1.2338  0.4119  1.3721
 5872TIP3    H239108   4.025   0.373  12.583 -0.6225 -0.7449 -0.2377
 5873TIP3   OH239109   6.386   1.373  11.894 -0.5929 -0.8791 -0.9285
 5873TIP3    H139110   6.374   1.459  11.854 -0.9163 -1.9212 -3.2531
 5873TIP3    H239111   6.297   1.344  11.916 -0.4167 -0.3161  0.6055
 5874TIP3   OH239112   5.132   2.378  10.518  0.2163  0.3145  0.0902
 5874TIP3    H139113   5.106   2.469  10.501  1.6311  0.8251  0.5076
 5874TIP3    H239114   5.218   2.385  10.557  1.9046 -1.3173 -2.9315
 5875TIP3   OH239115   5.837   3.978  10.709 -0.4095 -0.0308 -0.0489
 5875TIP3    H139116   5.816   3.913  10.643 -1.9806 -1.2722  1.5728
 5875TIP3    H239117   5.752   4.005  10.744  0.2808 -2.6010  4.3315
 5876TIP3   OH239118   6.512   0.677  10.727 -0.4933 -0.1846  0.4597
 5876TIP3    H139119   6.485   0.738  10.797  0.4744  0.1344  0.5716
 5876TIP3    H239120   6.487   0.591  10.760 -0.1743 -0.0246  1.1475
 5877TIP3   OH239121   4.188   0.834  13.961 -0.2583 -0.0752  1.1138
 5877TIP3    H139122   4.211   0.759  14.016 -0.9167 -0.7187  0.5284
 5877TIP3    H239123   4.094   0.845  13.972 -0.6374 -0.9830 -0.7713
 5878TIP3   OH239124   5.734   0.154   3.897 -0.3198  0.2544  0.2045
 5878TIP3    H139125   5.639   0.157   3.907 -0.3907  0.2988 -0.4903
 5878TIP3    H239126   5.752   0.069   3.857 -0.1989  0.8600 -1.0558
 5879TIP3   OH239127   3.187   5.073   4.168 -0.1015 -1.0418 -0.3465
 5879TIP3    H139128   3.149   5.129   4.100 -1.1298 -2.3278 -0.8860
 5879TIP3    H239129   3.168   5.118   4.250 -2.6630 -1.4890 -0.6084
 5880TIP3   OH239130   5.232   7.117  14.836 -0.1619 -0.5644 -0.0602
 5880TIP3    H139131   5.251   7.107  14.742 -0.7088  1.0675 -0.3795
 5880TIP3    H239132   5.144   7.083  14.847  0.0364 -1.0806 -0.0714
 5881TIP3   OH239133   1.277   2.963  14.645 -0.5738 -0.0543  0.6251
 5881TIP3    H139134   1.243   3.013  14.571 -1.7496  0.5716  1.5636
 5881TIP3    H239135   1.290   3.028  14.715 -1.4159 -0.9257  1.6227
 5882TIP3   OH239136   5.057   1.147  12.437 -0.3327 -0.5013 -0.7250
 5882TIP3    H139137   5.032   1.228  12.393 -1.0239 -0.4594 -0.2722
 5882TIP3    H239138   5.061   1.081  12.367 -1.8669 -0.5422 -0.8171
 5883TIP3   OH239139   0.819   5.000   0.351  0.5979 -0.1939 -0.3892
 5883TIP3    H139140   0.810   4.957   0.436 -1.0941  1.0936  0.1246
 5883TIP3    H239141   0.856   4.932   0.294 -1.1113 -2.0854  0.6095
 5884TIP3   OH239142   1.943   0.257  10.495 -0.0040 -0.2717 -0.4574
 5884TIP3    H139143   1.938   0.335  10.440 -3.8255  0.2979  0.4545
 5884TIP3    H239144   1.948   0.290  10.585  0.1697 -1.1308 -0.1347
 5885TIP3   OH239145   2.991   0.755   0.252  0.0859  0.2177 -0.4151
 5885TIP3    H139146   2.918   0.759   0.313  2.3928 -1.9638  2.8917
 5885TIP3    H239147   3.014   0.662   0.248  4.0691  0.9048  0.8636
 5886TIP3   OH239148   0.012   6.841  13.631  0.6073 -0.6343  0.0694
 5886TIP3    H139149   0.094   6.870  13.672 -0.1149 -2.0329  2.7833
 5886TIP3    H239150   0.020   6.746  13.626 -0.9346 -0.8271  0.6730
 5887TIP3   OH239151   6.339   4.759   0.787 -0.4132 -0.3593 -0.3849
 5887TIP3    H139152   6.363   4.848   0.761 -1.0774  0.2322  0.9071
 5887TIP3    H239153   6.348   4.707   0.708  1.9757  0.4432 -0.7213
 5888TIP3   OH239154   6.010   2.795  12.775 -0.1071 -0.3225 -0.0233
 5888TIP3    H139155   5.923   2.828  12.753 -0.2817 -1.1086 -0.5434
 5888TIP3    H239156   5.993   2.712  12.820  0.3871 -1.4086 -1.7218
 5889TIP3   OH239157   1.389   0.757   0.614 -0.8742 -0.1877  0.4786
 5889TIP3    H139158   1.314   0.714   0.655 -0.7797  0.3845  1.2896
 5889TIP3    H239159   1.465   0.714   0.654 -0.7719  1.1617  1.8305
 5890TIP3   OH239160   6.049   5.244  13.512 -0.2631  0.5622 -0.2411
 5890TIP3    H139161   5.986   5.314  13.497 -0.5203  0.4655  0.3758
 5890TIP3    H239162   6.133   5.289  13.520 -0.4046  0.7895 -0.0235
 5891TIP3   OH239163   4.675   7.012  15.180 -0.0711 -0.0418  0.4576
 5891TIP3    H139164   4.727   7.059  15.115  0.9865  0.1433  1.4117
 5891TIP3    H239165   4.592   7.059  15.183 -0.0097  0.1513 -0.4913
 5892TIP3   OH239166   5.958   4.132   3.203 -0.1138 -0.4962  0.1458
 5892TIP3    H139167   6.000   4.056   3.243  0.1810  0.3482  1.4695
 5892TIP3    H239168   6.030   4.185   3.170 -0.2869 -0.4391 -0.1454
 5893TIP3   OH239169   2.672   4.727  11.462 -0.3180  0.1395 -0.0537
 5893TIP3    H139170   2.741   4.753  11.401  1.1286  0.3008  1.5520
 5893TIP3    H239171   2.591   4.732  11.411  0.8267  0.1097 -1.9643
 5894TIP3   OH239172   2.040   0.114  12.014  0.1267 -0.2562 -0.0122
 5894TIP3    H139173   2.079   0.113  12.101  0.1780 -0.2635 -0.0356
 5894TIP3    H239174   1.970   0.179  12.019  1.7250  1.5948 -0.6750
 5895TIP3   OH239175   6.837   4.424  14.025 -0.0924  0.0472 -0.1593
 5895TIP3    H139176   6.855   4.390  13.937 -2.3568  2.9553 -1.9705
 5895TIP3    H239177   6.745   4.402  14.041 -0.2523  1.1585  0.6158
 5896TIP3   OH239178   1.511   2.142  14.619 -0.2370  0.8015  0.1151
 5896TIP3    H139179   1.468   2.196  14.685 -0.6235  1.1754 -0.4362
 5896TIP3    H239180   1.528   2.202  14.547 -1.2661  0.0627 -0.7788
 5897TIP3   OH239181   1.348   1.663  10.421 -0.4566  0.2791 -0.5378
 5897TIP3    H139182   1.327   1.752  10.451  1.0387 -0.0223  1.6875
 5897TIP3    H239183   1.277   1.609  10.455  0.1088  0.2645  0.7083
 5898TIP3   OH239184   0.544   1.224   5.871  0.3339 -0.0371 -0.1281
 5898TIP3    H139185   0.478   1.292   5.866 -1.5506 -1.7911 -0.4399
 5898TIP3    H239186   0.495   1.143   5.887  2.5606 -1.1586  1.7883
 5899TIP3   OH239187   4.709   5.816   4.138 -0.0999  0.3111 -0.3404
 5899TIP3    H139188   4.720   5.730   4.177  3.9698  1.3587  1.3144
 5899TIP3    H239189   4.738   5.805   4.047 -1.4749 -0.4084 -0.7108
 5900TIP3   OH239190   2.844   3.735  11.404  0.3941  0.4324 -0.2746
 5900TIP3    H139191   2.899   3.794  11.352  2.1516  0.2168  1.1991
 5900TIP3    H239192   2.787   3.692  11.341  2.2092  0.4034 -2.0089
 5901TIP3   OH239193   5.981   2.153  11.671  0.2485 -0.8715 -0.2461
 5901TIP3    H139194   5.977   2.155  11.576  0.3097 -1.8652 -0.2796
 5901TIP3    H239195   5.979   2.245  11.697 -2.3727 -0.6223 -1.0830
 5902TIP3   OH239196   6.024   1.653  11.242 -0.1744 -0.3074  0.2902
 5902TIP3    H139197   6.014   1.580  11.303 -0.1788 -0.5729 -0.0329
 5902TIP3    H239198   5.947   1.648  11.185 -0.9986  0.8625  1.2384
 5903TIP3   OH239199   4.913   3.563  11.559 -0.1501  0.1762  0.8414
 5903TIP3    H139200   4.992   3.529  11.602 -0.8436 -0.8238  1.3609
 5903TIP3    H239201   4.947   3.610  11.482  0.8998 -1.9539 -0.1054
 5904TIP3   OH239202   5.481   6.466   5.986 -0.4842  0.1427  0.0082
 5904TIP3    H139203   5.400   6.457   5.937 -1.8087 -2.5569  2.4337
 5904TIP3    H239204   5.456   6.513   6.066  1.0988  2.1494 -0.5714
 5905TIP3   OH239205   0.253   4.285  13.248 -0.0546  0.4091 -0.2128
 5905TIP3    H139206   0.250   4.226  13.173 -0.4514 -1.9531  1.5509
 5905TIP3    H239207   0.346   4.306  13.258  0.0138  0.6523 -1.2444
 5906TIP3   OH239208   6.496   5.084  15.568 -0.3992 -0.5027 -0.0811
 5906TIP3    H139209   6.490   4.991  15.549  0.5720 -0.4820 -0.5522
 5906TIP3    H239210   6.572   5.093  15.625 -1.8269 -0.2501  1.8825
 5907TIP3   OH239211   0.511   1.191   2.389  0.2380  0.1573  0.0211
 5907TIP3    H139212   0.440   1.174   2.452  0.0681 -2.2885 -0.7271
 5907TIP3    H239213   0.468   1.186   2.304  0.5721  2.9036 -0.4189
 5908TIP3   OH239214   1.201   3.039  12.601  0.3033  0.1424 -0.9320
 5908TIP3    H139215   1.283   3.059  12.645 -0.4630  1.4287  0.0046
 5908TIP3    H239216   1.161   3.125  12.585 -1.4228 -0.4803 -0.2383
 5909TIP3   OH239217   2.243   1.484   2.222 -0.3736  0.1304  0.2055
 5909TIP3    H139218   2.166   1.451   2.176 -0.0655  0.4213 -0.5403
 5909TIP3    H239219   2.237   1.446   2.310 -0.4173 -1.2933 -0.3853
 5910TIP3   OH239220   2.067   2.823   0.951  0.4364 -0.1701  0.0839
 5910TIP3    H139221   1.975   2.845   0.942 -0.0964 -2.0461  0.5800
 5910TIP3    H239222   2.112   2.884   0.892 -1.2091  0.0628 -0.9946
 5911TIP3   OH239223   5.270   5.169   5.395 -0.2795 -0.3869 -0.5079
 5911TIP3    H139224   5.176   5.182   5.405 -0.1136 -0.5586  1.5969
 5911TIP3    H239225   5.294   5.109   5.465  1.3387 -0.7435 -1.3126
 5912TIP3   OH239226   1.902   2.581  10.887 -0.6976  0.1204 -0.1700
 5912TIP3    H139227   1.859   2.666  10.875  0.2211  0.9576  1.9337
 5912TIP3    H239228   1.888   2.559  10.979  1.5032 -0.5885  0.0693
 5913TIP3   OH239229   1.419   1.929   1.104  0.3243  0.1257 -0.3416
 5913TIP3    H139230   1.462   2.001   1.150  0.6903 -0.2823 -0.0286
 5913TIP3    H239231   1.454   1.933   1.015 -1.5980  1.9162 -1.0913
 5914TIP3   OH239232   2.113   3.207   4.324 -0.7577  0.0385  0.1617
 5914TIP3    H139233   2.080   3.192   4.412 -2.1764  0.5776 -0.2498
 5914TIP3    H239234   2.177   3.138   4.310 -0.1349  0.2519  1.7880
 5915TIP3   OH239235   3.996   3.957  12.583  0.0477 -0.3979  0.6635
 5915TIP3    H139236   3.904   3.961  12.557 -0.2652 -0.2455  1.7605
 5915TIP3    H239237   3.994   3.931  12.675  1.1436 -1.4021  0.4336
 5916TIP3   OH239238   0.238   2.287  10.849 -0.3490  0.0018 -0.3437
 5916TIP3    H139239   0.145   2.268  10.861 -0.4718  0.3144 -0.7858
 5916TIP3    H239240   0.282   2.226  10.908 -0.8590  0.3718  0.4394
 5917TIP3   OH239241   5.567   4.218  12.788 -0.6101  0.3919 -0.6720
 5917TIP3    H139242   5.579   4.129  12.757 -0.1576  0.3891 -0.5091
 5917TIP3    H239243   5.551   4.209  12.882 -0.9544  0.4611 -0.7222
 5918TIP3   OH239244   4.634   6.455  12.501  0.1695  0.0745 -0.8387
 5918TIP3    H139245   4.616   6.549  12.501  0.3347  0.1335 -2.3120
 5918TIP3    H239246   4.562   6.417  12.451  0.0963 -0.5898 -0.2346
 5919TIP3   OH239247   2.848   1.293   1.874  0.1128  0.7463  0.0675
 5919TIP3    H139248   2.842   1.333   1.787  0.8907  0.8282  0.0454
 5919TIP3    H239249   2.768   1.240   1.881  0.1318  0.5877 -0.7699
 5920TIP3   OH239250   3.460   4.322   3.151  0.9425 -0.2808 -0.5216
 5920TIP3    H139251   3.492   4.359   3.069 -1.2651  0.5467 -1.1011
 5920TIP3    H239252   3.434   4.399   3.203  1.6881 -0.8200  0.6898
 5921TIP3   OH239253   3.645   0.826   0.259  0.5595 -0.0869  0.3165
 5921TIP3    H139254   3.733   0.803   0.231  0.5215  0.3745 -0.2103
 5921TIP3    H239255   3.630   0.775   0.339  0.4258 -1.9632 -0.8522
 5922TIP3   OH239256   5.934   0.084  11.489  0.3323 -0.4656 -0.1698
 5922TIP3    H139257   5.857   0.067  11.543  0.3760 -1.8068 -0.4945
 5922TIP3    H239258   6.006   0.087  11.551 -0.2526  3.9912  0.5776
 5923TIP3   OH239259   0.297   4.312   1.164 -0.3293  0.4078  0.0759
 5923TIP3    H139260   0.382   4.268   1.158 -0.6179 -0.3251  1.0255
 5923TIP3    H239261   0.285   4.354   1.079 -0.0237 -1.3596 -0.8804
 5924TIP3   OH239262   5.959   5.426  12.450 -0.3869  0.1188 -0.0937
 5924TIP3    H139263   6.047   5.465  12.456  0.6480 -1.6363 -2.3831
 5924TIP3    H239264   5.964   5.348  12.506 -0.9400  0.7144  0.8024
 5925TIP3   OH239265   0.534   4.890  10.208  0.0780 -0.0918 -0.0575
 5925TIP3    H139266   0.481   4.970  10.204  0.2188 -0.0225 -0.7295
 5925TIP3    H239267   0.520   4.849  10.122  1.0071 -0.1375 -0.1954
 5926TIP3   OH239268   5.144   3.615  10.599 -0.0622 -0.0037 -0.4265
 5926TIP3    H139269   5.129   3.629  10.693  0.3630  1.3008 -0.5295
 5926TIP3    H239270   5.234   3.645  10.584 -0.6649  1.3577 -1.5277
 5927TIP3   OH239271   5.613   3.494  10.054  0.0924  0.1375 -0.2204
 5927TIP3    H139272   5.559   3.416  10.069  0.2772 -0.2678 -1.4844
 5927TIP3    H239273   5.703   3.462  10.052  0.3621  0.7285  1.3392
 5928TIP3   OH239274   0.407   1.641  14.198 -0.4725 -0.1212 -0.5483
 5928TIP3    H139275   0.498   1.665  14.177 -0.6237  1.4432  0.4016
 5928TIP3    H239276   0.356   1.678  14.125 -0.7342  2.9929  1.0542
 5929TIP3   OH239277   7.068   5.959  12.521  0.4663  0.0735 -0.3145
 5929TIP3    H139278   7.082   6.027  12.587  1.4839  0.6730 -1.1122
 5929TIP3    H239279   7.005   5.998  12.460  1.1584  0.3821 -0.8498
 5930TIP3   OH239280   5.699   3.407   1.087 -0.1864  0.0096 -0.1077
 5930TIP3    H139281   5.673   3.357   1.009 -3.2393  0.5873  0.3968
 5930TIP3    H239282   5.671   3.497   1.068  2.1182  0.9042  0.3721
 5931TIP3   OH239283   5.453   4.680   0.268 -0.3656 -0.2683 -0.0538
 5931TIP3    H139284   5.458   4.620   0.193 -1.7549 -0.7660  0.2218
 5931TIP3    H239285   5.543   4.684   0.300  0.2679 -0.0283 -1.7375
 5932TIP3   OH239286   3.584   3.407  11.362  0.0951 -0.1202 -0.0578
 5932TIP3    H139287   3.552   3.436  11.447  0.1832 -0.4021  0.0719
 5932TIP3    H239288   3.559   3.477  11.302  0.6113  0.3863  0.3103
 5933TIP3   OH239289   3.146   4.660  12.430 -0.1484  0.1118 -0.0337
 5933TIP3    H139290   3.162   4.713  12.508  0.9289 -1.4114  0.8312
 5933TIP3    H239291   3.177   4.573  12.454 -2.1785 -1.0162 -1.2827
 5934TIP3   OH239292   6.734   6.125   1.959  0.1406 -0.0384 -0.3025
 5934TIP3    H139293   6.685   6.199   1.994  0.7340  0.3096 -0.1832
 5934TIP3    H239294   6.772   6.158   1.877 -1.1078 -0.7929 -1.2204
 5935TIP3   OH239295   1.192   2.976  15.079  0.5438 -0.0877 -0.0635
 5935TIP3    H139296   1.183   3.062  15.119  1.0279 -0.1325  0.1529
 5935TIP3    H239297   1.162   2.988  14.988  1.8052  0.6243 -0.4087
 5936TIP3   OH239298   6.100   3.152  13.438 -0.4538  0.2519 -0.0926
 5936TIP3    H139299   6.099   3.081  13.502  1.8421  0.3335  0.1079
 5936TIP3    H239300   6.155   3.119  13.366  0.1116  1.5564 -0.2910
 5937TIP3   OH239301   5.708   2.323  10.944  0.0482  0.3458 -0.0642
 5937TIP3    H139302   5.638   2.371  10.900  0.8831  3.1956  1.5128
 5937TIP3    H239303   5.786   2.339  10.890 -0.0917 -1.3534 -0.8463
 5938TIP3   OH239304   5.060   5.160  13.141 -0.0947  0.3162  0.2050
 5938TIP3    H139305   5.047   5.102  13.217 -0.0665  1.1829  0.8917
 5938TIP3    H239306   5.013   5.240  13.164 -1.5609 -0.0023 -1.4430
 5939TIP3   OH239307   2.495   6.545  10.861 -0.4608 -0.4354  0.2659
 5939TIP3    H139308   2.499   6.488  10.938 -0.8713 -1.8880 -0.7442
 5939TIP3    H239309   2.417   6.599  10.875 -0.5013 -0.6496  0.8890
 5940TIP3   OH239310   6.750   5.669  13.993 -0.0734 -0.0066 -0.2215
 5940TIP3    H139311   6.688   5.597  14.004 -1.1107  0.7179 -1.1274
 5940TIP3    H239312   6.731   5.729  14.065 -1.1587  0.7033 -1.0625
 5941TIP3   OH239313   5.422   4.921  11.994  0.4273  0.2430  0.1735
 5941TIP3    H139314   5.497   4.930  11.936 -0.5335 -1.2532 -1.3729
 5941TIP3    H239315   5.413   4.827  12.009 -2.1055  0.2014 -1.0671
 5942TIP3   OH239316   2.938   4.378  12.276  0.2596 -0.7264  0.5082
 5942TIP3    H139317   2.966   4.395  12.366 -0.9294 -2.2511  1.2226
 5942TIP3    H239318   2.856   4.330  12.285  0.2760 -1.2181 -1.3957
 5943TIP3   OH239319   3.310   0.160  15.755 -0.5140  0.4518  0.2521
 5943TIP3    H139320   3.329   0.165  15.661  0.4116  0.9784  0.4488
 5943TIP3    H239321   3.391   0.127  15.794 -0.8367  0.3945  0.8898
 5944TIP3   OH239322   2.359   2.417   0.989 -0.1091  0.1591  0.5529
 5944TIP3    H139323   2.280   2.364   0.975 -1.0484  1.5835  0.2375
 5944TIP3    H239324   2.327   2.497   1.030  1.2556  0.5450  0.8938
 5945TIP3   OH239325   6.020   2.205  15.462 -0.0948 -0.2261 -0.0569
 5945TIP3    H139326   6.019   2.204  15.558 -0.5977 -1.6967 -0.0605
 5945TIP3    H239327   5.947   2.263  15.438 -2.9284 -3.3110  0.4769
 5946TIP3   OH239328   2.198   1.297   9.777 -0.1826  0.1899 -0.2034
 5946TIP3    H139329   2.227   1.386   9.799 -1.5815  0.3868  1.0779
 5946TIP3    H239330   2.165   1.304   9.688 -1.0301  1.1904  0.1650
 5947TIP3   OH239331   0.327   6.095  10.725 -0.3283  0.4761 -0.2553
 5947TIP3    H139332   0.331   6.150  10.803 -0.4452 -0.3346  0.3270
 5947TIP3    H239333   0.416   6.062  10.714 -0.2265  0.8689 -0.6833
 5948TIP3   OH239334   3.735   4.377   0.368  0.3755 -0.0432  0.2933
 5948TIP3    H139335   3.789   4.374   0.289  0.4124 -3.0892  0.3287
 5948TIP3    H239336   3.655   4.331   0.345  0.3048 -0.8312  1.9309
 5949TIP3   OH239337   4.270   2.432  13.559  0.0288 -0.3531 -0.2247
 5949TIP3    H139338   4.317   2.504  13.602 -0.6163  1.0747 -1.8245
 5949TIP3    H239339   4.220   2.391  13.630  1.4796 -0.1273  0.9734
 5950TIP3   OH239340   1.910   1.834   1.598  0.2461  0.3973  0.3512
 5950TIP3    H139341   1.899   1.922   1.634 -1.3148  1.2955 -2.0245
 5950TIP3    H239342   1.862   1.777   1.658  1.7208  1.0354  2.2190
 5951TIP3   OH239343   5.630   2.864   2.696  0.1727  0.7847  0.4421
 5951TIP3    H139344   5.676   2.876   2.614 -1.1711 -1.1271 -0.6829
 5951TIP3    H239345   5.559   2.928   2.694  0.4738  1.1168  0.3854
 5952TIP3   OH239346   5.996   3.667  12.509 -0.1334  0.3233 -0.5131
 5952TIP3    H139347   5.983   3.735  12.574  0.3225  0.7120 -0.8194
 5952TIP3    H239348   5.989   3.712  12.425 -1.2708 -0.2688 -0.7618
 5953TIP3   OH239349   4.578   0.822  14.520 -0.4292  0.6525 -0.2001
 5953TIP3    H139350   4.648   0.762  14.492 -1.4680 -0.7033 -0.0161
 5953TIP3    H239351   4.504   0.764  14.541 -0.3104  1.6609  3.7420
 5954TIP3   OH239352   4.385   3.711  14.046 -0.0213 -0.1456  0.1752
 5954TIP3    H139353   4.436   3.643  14.090  1.1490  0.1160 -0.7300
 5954TIP3    H239354   4.388   3.786  14.105  1.4160  0.1589 -0.2521
 5955TIP3   OH239355   6.426   3.578  10.605  0.4763  0.5179 -0.5406
 5955TIP3    H139356   6.411   3.572  10.511  1.4696 -1.0202 -0.6349
 5955TIP3    H239357   6.344   3.550  10.645  0.4197  0.0728 -0.9633
 5956TIP3   OH239358   1.693   4.919  15.618  0.0152 -0.0660 -0.3784
 5956TIP3    H139359   1.600   4.919  15.594  0.4925 -0.4739 -2.4927
 5956TIP3    H239360   1.698   4.970  15.698 -2.0876 -0.4090  0.0184
 5957TIP3   OH239361   4.124   2.717  14.107 -0.3923 -0.7285 -0.4511
 5957TIP3    H139362   4.083   2.672  14.181 -0.6224  0.7267  0.3500
 5957TIP3    H239363   4.054   2.724  14.041  0.0467 -2.7845 -1.2038
 5958TIP3   OH239364   5.840   0.911   3.192  0.1846 -0.3267 -0.1909
 5958TIP3    H139365   5.884   0.876   3.269  0.5636 -1.1661 -0.7746
 5958TIP3    H239366   5.789   0.837   3.159 -1.3623  0.5056  0.2339
 5959TIP3   OH239367   2.291   0.355  13.142  0.6202 -0.2782 -0.2210
 5959TIP3    H139368   2.197   0.346  13.156  0.7976 -0.0071  1.4012
 5959TIP3    H239369   2.330   0.289  13.200  1.4597  0.4347  0.0403
 5960TIP3   OH239370   3.150   0.257  14.699  0.1038  0.2927  0.1251
 5960TIP3    H139371   3.100   0.181  14.669  1.4702 -0.3006 -0.7777
 5960TIP3    H239372   3.122   0.269  14.789 -1.9125  0.2365 -0.4362
 5961TIP3   OH239373   6.791   3.687   0.087  0.7192  0.2186 -0.6183
 5961TIP3    H139374   6.697   3.694   0.075  0.7738 -0.9950 -2.0541
 5961TIP3    H239375   6.827   3.750   0.024  0.8755  0.9630  0.2010
 5962TIP3   OH239376   6.971   1.726  11.642 -0.0629 -0.4148 -0.2821
 5962TIP3    H139377   6.939   1.676  11.717  1.2725 -1.9605 -0.6740
 5962TIP3    H239378   6.909   1.798  11.632  0.9338  1.2734  3.7377
 5963TIP3   OH239379   1.560   3.250  14.491 -0.3095  0.3873  0.3789
 5963TIP3    H139380   1.588   3.240  14.582  1.6661  0.4747 -0.1821
 5963TIP3    H239381   1.582   3.167  14.449 -0.8916  0.4722 -0.1201
 5964TIP3   OH239382   3.338   4.106   3.961  0.6303  0.2965  0.1450
 5964TIP3    H139383   3.361   4.185   4.010 -1.0156  0.2015  1.1584
 5964TIP3    H239384   3.332   4.136   3.870 -0.4355  1.4870  0.5711
 5965TIP3   OH239385   1.571   1.909  11.652 -0.1652 -0.0296 -0.0014
 5965TIP3    H139386   1.661   1.940  11.649  0.1149 -0.6829  0.9983
 5965TIP3    H239387   1.539   1.937  11.738 -1.1935  0.9020 -0.6668
 5966TIP3   OH239388   6.415   2.152  15.487  0.1296  0.3423 -0.2841
 5966TIP3    H139389   6.506   2.125  15.484 -0.0975 -0.3634 -1.4632
 5966TIP3    H239390   6.403   2.187  15.575  1.1338 -0.9631  0.4006
 5967TIP3   OH239391   4.170   2.510  11.168  0.1887 -0.8585 -0.0110
 5967TIP3    H139392   4.180   2.532  11.261  2.3383  0.3924 -0.4733
 5967TIP3    H239393   4.134   2.589  11.128 -1.2998 -1.5877 -0.2154
 5968TIP3   OH239394   5.732   3.374  12.776 -0.5636  0.2041 -0.2042
 5968TIP3    H139395   5.798   3.404  12.714  0.5032  0.3080  0.9388
 5968TIP3    H239396   5.655   3.427  12.757  0.2409  1.3366 -0.4014
 5969TIP3   OH239397   0.145   0.576  10.792 -0.1215 -0.3694 -0.0955
 5969TIP3    H139398   0.137   0.669  10.816  2.0490  0.0456 -0.7829
 5969TIP3    H239399   0.164   0.577  10.698 -1.5107 -1.6131 -0.4177
 5970TIP3   OH239400   0.214   4.456  14.116  0.4594 -0.0588  0.0677
 5970TIP3    H139401   0.217   4.372  14.161  1.2099 -0.3213 -0.4594
 5970TIP3    H239402   0.287   4.453  14.054 -0.4076  0.3762 -1.0070
 5971TIP3   OH239403   2.212   7.076  10.991  0.1980 -0.6442 -0.2134
 5971TIP3    H139404   2.149   7.052  11.059  0.0932  0.6777  0.2010
 5971TIP3    H239405   2.177   7.039  10.910 -1.3123  0.3631 -0.0591
 5972TIP3   OH239406   0.310   0.394  11.588  0.8216 -0.1576 -0.5636
 5972TIP3    H139407   0.275   0.403  11.677 -1.7490  1.6737 -1.6234
 5972TIP3    H239408   0.317   0.300  11.574 -0.1656 -0.5160  1.0471
 5973TIP3   OH239409   5.962   0.328  15.231 -0.5172 -0.2806 -0.1191
 5973TIP3    H139410   6.015   0.340  15.151  2.1889  1.2724  1.7314
 5973TIP3    H239411   5.939   0.417  15.257 -1.0061 -0.7405  1.0493
 5974TIP3   OH239412   6.547   1.648  12.025  0.2087 -0.0452  0.4016
 5974TIP3    H139413   6.510   1.733  12.048 -2.6389 -0.2954 -2.5536
 5974TIP3    H239414   6.590   1.662  11.941 -1.2128 -1.6174 -0.6673
 5975TIP3   OH239415   2.786   6.942  13.440 -0.3081 -0.0190 -0.5741
 5975TIP3    H139416   2.832   6.947  13.357 -0.6189 -0.2023 -0.7599
 5975TIP3    H239417   2.814   7.021  13.488 -0.2130  0.1424 -0.8931
 5976TIP3   OH239418   5.782   2.425  14.644  0.3062  0.1018 -0.0763
 5976TIP3    H139419   5.706   2.388  14.688  0.9291  0.3007  1.2088
 5976TIP3    H239420   5.794   2.370  14.567 -2.0062  0.9613 -1.1412
 5977TIP3   OH239421   6.034   1.220   4.713 -0.6600 -0.3137 -0.0316
 5977TIP3    H139422   5.990   1.305   4.710  1.0986  0.6245 -1.6936
 5977TIP3    H239423   6.112   1.236   4.767 -0.3764 -0.9099 -0.2606
 5978TIP3   OH239424   3.214   2.899   4.686  0.2577 -0.3016 -0.4552
 5978TIP3    H139425   3.275   2.942   4.746  0.1608 -0.8244  0.0248
 5978TIP3    H239426   3.168   2.971   4.643 -1.0599  0.0958  1.5027
 5979TIP3   OH239427   1.447   5.294  14.515  0.1805 -0.1537  0.5084
 5979TIP3    H139428   1.512   5.348  14.560  0.4990  0.0107 -0.1346
 5979TIP3    H239429   1.443   5.330  14.427 -0.8718 -0.0894  0.5673
 5980TIP3   OH239430   0.083   6.790   0.774  0.3040  0.3836 -0.1753
 5980TIP3    H139431   0.103   6.747   0.691  0.3721  1.1153 -0.5475
 5980TIP3    H239432  -0.013   6.786   0.780  0.3810 -1.2090  0.5700
 5981TIP3   OH239433   5.091   4.810   3.695  0.1202 -0.3435 -0.0689
 5981TIP3    H139434   5.008   4.800   3.741  0.2985  0.5857  0.4892
 5981TIP3    H239435   5.067   4.816   3.602 -0.3014 -1.5133 -0.0436
 5982TIP3   OH239436   0.233   3.429  10.019  0.3694  0.1004 -0.3241
 5982TIP3    H139437   0.212   3.423  10.112  0.2494  0.2907 -0.3385
 5982TIP3    H239438   0.326   3.450  10.017  0.3045  0.4017 -0.2416
 5983TIP3   OH239439   6.578   6.504   0.295 -0.2494 -0.2394  0.2839
 5983TIP3    H139440   6.484   6.520   0.286 -0.2906 -1.5265 -3.3468
 5983TIP3    H239441   6.613   6.520   0.208  2.4975 -2.0934  0.9275
 5984TIP3   OH239442   0.579   0.452  13.331  0.6818 -0.4479  0.3884
 5984TIP3    H139443   0.652   0.445  13.269  0.4204  1.3796 -0.1804
 5984TIP3    H239444   0.613   0.504  13.403  0.0503  0.1288  0.2770
 5985TIP3   OH239445   5.855   0.769  15.618  0.4076  0.0028 -0.0050
 5985TIP3    H139446   5.923   0.702  15.622  1.4212  1.0363  0.9507
 5985TIP3    H239447   5.901   0.851  15.639 -1.0419  0.7881  0.2355
 5986TIP3   OH239448   2.584   5.863   5.291  0.2693  0.0422 -0.7900
 5986TIP3    H139449   2.532   5.934   5.254 -2.2728 -0.7429  1.0103
 5986TIP3    H239450   2.640   5.905   5.356 -1.2277  0.4553  0.2732
 5987TIP3   OH239451   6.951   4.781  11.515  0.1883 -0.0701  0.0324
 5987TIP3    H139452   6.930   4.807  11.605 -2.1449  2.2962 -1.0677
 5987TIP3    H239453   6.880   4.722  11.490  0.2717  0.0813 -0.5719
 5988TIP3   OH239454   4.439   6.813  11.721  0.5310 -0.2749  0.1994
 5988TIP3    H139455   4.489   6.856  11.791  0.7149 -0.0254 -0.0834
 5988TIP3    H239456   4.414   6.884  11.663  1.7836 -0.6693 -0.8712
 5989TIP3   OH239457   1.867   0.559  13.384  0.1503  0.0349 -0.1005
 5989TIP3    H139458   1.826   0.476  13.360 -0.0448  0.4417 -1.2518
 5989TIP3    H239459   1.802   0.625  13.363  0.7884  0.5692 -0.4685
 5990TIP3   OH239460   0.956   6.536   0.820 -0.1969 -0.1123 -0.3152
 5990TIP3    H139461   0.877   6.482   0.819  0.1329 -0.5983 -0.2491
 5990TIP3    H239462   0.939   6.603   0.754 -0.8780  0.0955  0.0581
 5991TIP3   OH239463   4.054   4.563  12.504  0.2518 -0.2256  0.0290
 5991TIP3    H139464   4.024   4.481  12.465 -0.7254  0.0134  0.2605
 5991TIP3    H239465   4.023   4.631  12.444 -1.0535  0.1316  1.0732
 5992TIP3   OH239466   0.579   0.250   9.578 -0.1231 -0.4836  0.4228
 5992TIP3    H139467   0.619   0.182   9.633 -1.0416 -0.1110  1.5899
 5992TIP3    H239468   0.610   0.332   9.616 -0.0257 -0.2319 -0.1987
 5993TIP3   OH239469   4.098   2.240  12.163  0.2065  0.5034 -0.1481
 5993TIP3    H139470   4.085   2.300  12.090 -0.7540  0.0088 -0.4061
 5993TIP3    H239471   4.012   2.231  12.203 -0.0546 -1.8499 -1.0491
 5994TIP3   OH239472   4.040   6.777  10.611 -0.0040 -0.1274 -0.5522
 5994TIP3    H139473   4.076   6.851  10.562 -0.3080  0.9935  0.8470
 5994TIP3    H239474   4.054   6.702  10.554  2.3358  0.6368 -1.1093
 5995TIP3   OH239475   1.644   4.041   9.707  0.5767 -0.5761 -0.2685
 5995TIP3    H139476   1.727   4.079   9.735 -0.1522  1.1490 -0.3066
 5995TIP3    H239477   1.618   4.094   9.632 -1.5310  0.2821  0.9868
 5996TIP3   OH239478   1.385   0.858  13.987  0.2945 -0.3152 -0.4927
 5996TIP3    H139479   1.454   0.851  13.920  0.1902 -1.1604 -0.5173
 5996TIP3    H239480   1.317   0.797  13.958 -1.4239  1.9360 -1.5528
 5997TIP3   OH239481   2.779   2.736   1.486  0.5151 -0.1365 -1.1974
 5997TIP3    H139482   2.761   2.746   1.392 -1.1932  1.2373 -0.7895
 5997TIP3    H239483   2.698   2.764   1.528  1.9661  1.3658  0.7557
 5998TIP3   OH239484   7.116   4.793   2.099 -0.2407 -0.2256  0.2467
 5998TIP3    H139485   7.053   4.864   2.088 -0.9696 -0.5616  1.9579
 5998TIP3    H239486   7.175   4.823   2.168  1.1925 -0.1370 -0.9684
 5999TIP3   OH239487   2.216   1.144   3.290  0.2195 -0.1978 -0.1556
 5999TIP3    H139488   2.244   1.179   3.375  0.6461 -0.0558 -0.3554
 5999TIP3    H239489   2.234   1.050   3.296  2.3768  0.1109 -0.9037
 6000TIP3   OH239490   6.448   1.396   0.126  0.2997 -0.0491  0.2154
 6000TIP3    H139491   6.511   1.329   0.150 -2.2325 -1.9399  2.1272
 6000TIP3    H239492   6.408   1.364   0.045  2.5353  1.8394 -1.8150
 6001TIP3   OH239493   4.190   7.058   4.016  0.2946 -0.0642 -0.4744
 6001TIP3    H139494   4.101   7.033   3.991 -0.1035  0.1501  0.6578
 6001TIP3    H239495   4.184   7.072   4.110  1.8627 -1.4922 -0.1130
 6002TIP3   OH239496   1.656   4.699  10.311 -0.4538 -0.2480 -0.2978
 6002TIP3    H139497   1.660   4.741  10.225 -1.2025  0.7185  0.1179
 6002TIP3    H239498   1.573   4.729  10.348  0.9617  1.4313  1.7637
 6003TIP3   OH239499   0.213   1.474  15.368  0.2724  0.4336 -0.3146
 6003TIP3    H139500   0.145   1.441  15.427  0.1474  0.2815 -0.5431
 6003TIP3    H239501   0.238   1.559  15.405  1.0407 -0.1824  0.6323
 6004TIP3   OH239502   5.270   0.618  12.042  0.0751 -0.3391  0.1619
 6004TIP3    H139503   5.243   0.528  12.020  0.5182 -0.8426  1.5521
 6004TIP3    H239504   5.201   0.673  12.005  1.3510 -0.9632 -3.4803
 6005TIP3   OH239505   0.904   5.761   0.012 -0.0351 -0.4961 -0.6646
 6005TIP3    H139506   0.818   5.760  -0.029  0.0790 -0.3830 -0.9065
 6005TIP3    H239507   0.939   5.673  -0.003  0.9320  0.1852 -2.7797
 6006TIP3   OH239508   5.444   4.580   2.686 -0.0343  0.3033 -0.0959
 6006TIP3    H139509   5.366   4.611   2.731  0.2428  1.4067 -0.3462
 6006TIP3    H239510   5.492   4.530   2.752 -0.3721  0.6219  0.3934
 6007TIP3   OH239511   4.279   0.064   4.234 -0.7674 -0.3351  0.6451
 6007TIP3    H139512   4.320   0.058   4.320 -0.3745 -3.0496  0.3368
 6007TIP3    H239513   4.346   0.101   4.177 -0.3721 -0.3661  1.0887
 6008TIP3   OH239514   0.250   4.169   5.413  0.5963  0.4876  0.0218
 6008TIP3    H139515   0.291   4.242   5.458  1.9369 -1.0648  1.4640
 6008TIP3    H239516   0.259   4.095   5.474  1.2855 -1.4098 -2.2195
 6009TIP3   OH239517   4.983   2.671  13.148 -0.0052 -0.2993 -0.2665
 6009TIP3    H139518   4.984   2.656  13.053  1.3748 -0.0772 -0.3088
 6009TIP3    H239519   5.030   2.754  13.159  0.5254 -0.7124  0.6673
 6010TIP3   OH239520   7.095   0.177  12.989  0.6427  0.2765 -0.2270
 6010TIP3    H139521   7.126   0.267  12.996 -1.1308  0.8582  0.8951
 6010TIP3    H239522   7.173   0.123  12.995  1.5914  1.6929  0.5082
 6011TIP3   OH239523   6.715   1.831  13.955 -0.3836  0.5950  0.4166
 6011TIP3    H139524   6.690   1.803  13.867  0.4845  2.8253 -0.5915
 6011TIP3    H239525   6.643   1.887  13.983  0.8739  2.6453 -0.2992
 6012TIP3   OH239526   1.043   1.959  11.250  0.3261  0.6022 -0.1020
 6012TIP3    H139527   1.048   1.963  11.345  1.2452 -0.0731 -0.1124
 6012TIP3    H239528   1.117   1.905  11.224 -0.4579 -0.0099 -1.1411
 6013TIP3   OH239529   0.555   6.806  10.875 -0.1276  0.1470  0.1965
 6013TIP3    H139530   0.489   6.824  10.808  0.8527  2.5179 -0.2088
 6013TIP3    H239531   0.595   6.891  10.894  2.3661 -1.0770  0.8972
 6014TIP3   OH239532   1.755   4.012  12.553  0.6456  0.5075  0.4884
 6014TIP3    H139533   1.792   3.961  12.625  4.3129  0.8203 -0.9246
 6014TIP3    H239534   1.733   4.097  12.591 -0.7639 -0.4161  1.8455
 6015TIP3   OH239535   2.537   4.471  10.323 -0.0226  0.3538  0.6337
 6015TIP3    H139536   2.548   4.562  10.296 -1.0555 -0.0154 -1.1539
 6015TIP3    H239537   2.612   4.455  10.382  1.7454  1.5528 -1.1458
 6016TIP3   OH239538   0.089   0.727   0.980 -0.2623  0.2068 -0.6022
 6016TIP3    H139539   0.017   0.663   0.979 -0.0901  0.0188 -1.0124
 6016TIP3    H239540   0.133   0.715   0.896 -0.1225  0.7464 -0.6071
 6017TIP3   OH239541   5.081   6.801  11.375 -0.4889 -0.4353 -0.1633
 6017TIP3    H139542   5.088   6.863  11.302  0.6623 -1.8009 -1.2798
 6017TIP3    H239543   5.114   6.849  11.451 -0.5892  0.6405 -0.7831
 6018TIP3   OH239544   2.852   4.049  13.179  0.0365 -0.4573 -0.7492
 6018TIP3    H139545   2.943   4.076  13.167  0.1721  0.3693  1.7292
 6018TIP3    H239546   2.801   4.129  13.169 -0.5028 -0.9493 -2.3353
 6019TIP3   OH239547   1.619   4.236  10.388  0.4578  0.1381  0.7164
 6019TIP3    H139548   1.566   4.217  10.310  0.0519 -0.7540  1.1983
 6019TIP3    H239549   1.610   4.158  10.443  0.3400  0.9483  1.8812
 6020TIP3   OH239550   4.131   4.240  10.862 -0.5222 -0.2190 -0.1388
 6020TIP3    H139551   4.089   4.172  10.811  0.5081  0.9575 -2.7544
 6020TIP3    H239552   4.222   4.211  10.871 -0.3543  0.2454 -0.2678
 6021TIP3   OH239553   1.127   3.714   3.078  0.6807 -0.3840 -0.0820
 6021TIP3    H139554   1.145   3.633   3.030  0.1325 -0.3542 -0.3579
 6021TIP3    H239555   1.205   3.767   3.066  0.9574 -0.7894 -0.0819
 6022TIP3   OH239556   6.775   7.133   3.340 -0.2791  0.1927  0.1857
 6022TIP3    H139557   6.791   7.222   3.371  0.6251  0.9964 -2.3421
 6022TIP3    H239558   6.861   7.091   3.344 -0.3360  0.0237 -0.2933
 6023TIP3   OH239559   1.149   5.803   1.292  0.2071  0.3500 -0.5689
 6023TIP3    H139560   1.164   5.886   1.338  0.4337 -0.1104  0.2114
 6023TIP3    H239561   1.228   5.751   1.309 -1.2603 -1.3145  1.8244
 6024TIP3   OH239562   4.708   1.544  14.169  0.4560 -0.0697 -0.2952
 6024TIP3    H139563   4.759   1.464  14.182  1.1112  0.1160 -1.5253
 6024TIP3    H239564   4.744   1.582  14.089 -0.1877  1.1993 -0.0040
 6025TIP3   OH239565   3.203   5.234  14.746  0.4509  0.1091  0.2090
 6025TIP3    H139566   3.246   5.257  14.663 -0.2429 -1.9743 -0.8011
 6025TIP3    H239567   3.140   5.304  14.761  0.7483  0.6406 -0.9064
 6026TIP3   OH239568   3.532   5.481  11.396  0.0711 -0.3170 -0.1434
 6026TIP3    H139569   3.511   5.503  11.486  0.5542  0.2511 -0.1663
 6026TIP3    H239570   3.595   5.409  11.402  1.8705  1.1909  0.0556
 6027TIP3   OH239571   5.062   1.392   2.422  0.2118 -0.1910  0.7831
 6027TIP3    H139572   5.027   1.462   2.368  2.6254  0.9022  0.4709
 6027TIP3    H239573   5.030   1.412   2.510 -0.4684  0.3519  0.4230
 6028TIP3   OH239574   3.083   7.137  14.648  0.1368  0.5624  0.2833
 6028TIP3    H139575   3.158   7.143  14.589  0.5705  1.3171  0.8995
 6028TIP3    H239576   3.105   7.065  14.708  0.3129  0.6996  0.3837
 6029TIP3   OH239577   4.320   0.649   4.153 -0.5420 -0.3855 -0.0207
 6029TIP3    H139578   4.315   0.580   4.220  1.4524  0.0682  0.6352
 6029TIP3    H239579   4.392   0.622   4.096 -0.7929  0.3698 -0.7081
 6030TIP3   OH239580   1.127   5.039  12.482  0.3320 -0.4155 -0.1392
 6030TIP3    H139581   1.132   5.048  12.577  0.1891 -0.7580 -0.0942
 6030TIP3    H239582   1.159   4.950  12.465 -1.3019 -1.0379 -0.2337
 6031TIP3   OH239583   1.665   4.781  15.266 -0.1010 -0.5172  0.2790
 6031TIP3    H139584   1.578   4.806  15.235  0.0951 -2.8833 -2.5980
 6031TIP3    H239585   1.725   4.820  15.203  0.8682 -0.1520  1.3907
 6032TIP3   OH239586   5.906   3.298   0.808 -0.0558  0.6449 -0.4024
 6032TIP3    H139587   5.953   3.235   0.753 -1.3328  2.4067 -3.7760
 6032TIP3    H239588   5.821   3.257   0.823  0.0794  0.4165 -0.2498
 6033TIP3   OH239589   2.003   3.574  11.930 -1.0536  0.4826  0.0431
 6033TIP3    H139590   1.993   3.669  11.940  0.7089  0.6651  0.4583
 6033TIP3    H239591   2.085   3.554  11.977 -0.1820 -0.8822 -1.9557
 6034TIP3   OH239592   5.689   1.918   9.945  0.2021 -0.0012 -0.1735
 6034TIP3    H139593   5.760   1.855   9.933  0.1310 -0.1206  0.0346
 6034TIP3    H239594   5.708   1.987   9.882  0.2165 -0.2863 -0.4873
 6035TIP3   OH239595   4.307   4.641  14.150 -0.3195 -0.5602  0.0017
 6035TIP3    H139596   4.272   4.560  14.189 -1.2329  0.2535  0.9385
 6035TIP3    H239597   4.276   4.710  14.209  1.3357  0.3782 -0.1943
 6036TIP3   OH239598   6.382   1.189  10.498 -0.2905 -0.0584 -0.4397
 6036TIP3    H139599   6.369   1.098  10.524 -2.5047  0.5044  0.7630
 6036TIP3    H239600   6.445   1.186  10.427 -1.7296 -2.7203 -1.7449
 6037TIP3   OH239601   4.296   1.432  13.463 -0.0434 -0.2042  0.2530
 6037TIP3    H139602   4.324   1.440  13.555 -0.0468  0.0389  0.2325
 6037TIP3    H239603   4.377   1.419  13.415  0.2765  2.3800 -0.0429
 6038TIP3   OH239604   1.976   0.320   2.326  0.1661  0.0466  0.1769
 6038TIP3    H139605   1.912   0.314   2.256 -0.3309  0.4459  0.5928
 6038TIP3    H239606   1.935   0.274   2.400  0.8480 -0.7216  0.1005
 6039TIP3   OH239607   4.088   6.718   1.530 -0.3463  0.4028 -0.1954
 6039TIP3    H139608   4.019   6.763   1.579  2.7188  1.5219  3.6833
 6039TIP3    H239609   4.072   6.625   1.547 -0.0475  0.7132  2.2884
 6040TIP3   OH239610   0.479   1.711  11.554 -0.3213 -0.0864  0.2711
 6040TIP3    H139611   0.524   1.767  11.617  0.2902 -0.5554  0.2579
 6040TIP3    H239612   0.547   1.654  11.519 -1.0461 -1.3924  0.8804
 6041TIP3   OH239613   6.389   0.565  10.229 -0.2031  0.2640 -0.3633
 6041TIP3    H139614   6.481   0.556  10.255  0.0188  1.2550 -0.7645
 6041TIP3    H239615   6.371   0.488  10.177  0.1997 -0.2860  0.2969
 6042TIP3   OH239616   0.867   2.514  11.030  1.2337  0.2722  0.4483
 6042TIP3    H139617   0.831   2.601  11.044  1.1782  0.2260  0.5887
 6042TIP3    H239618   0.820   2.480  10.954 -0.2214 -0.4540  1.6203
 6043TIP3   OH239619   2.240   6.598  15.354 -0.1171  0.8811 -0.3506
 6043TIP3    H139620   2.306   6.544  15.398 -0.7585  0.7510  0.4736
 6043TIP3    H239621   2.184   6.535  15.308 -1.4631  0.7049  1.4150
 6044TIP3   OH239622   0.933   6.516  10.067 -0.0158  0.0545 -0.0789
 6044TIP3    H139623   0.898   6.455  10.002 -0.6524 -0.5078  0.7686
 6044TIP3    H239624   1.027   6.497  10.070  0.0760  0.2914 -1.0318
 6045TIP3   OH239625   0.791   3.734   9.659  0.6016  0.3070 -0.2422
 6045TIP3    H139626   0.729   3.785   9.710  0.5552  0.1404 -0.1324
 6045TIP3    H239627   0.871   3.787   9.659  0.8917 -0.1157  0.7820
 6046TIP3   OH239628   3.181   0.547   5.059 -0.0935  0.3503  0.0747
 6046TIP3    H139629   3.273   0.539   5.034 -0.2685 -0.0615 -0.4596
 6046TIP3    H239630   3.143   0.608   4.995 -0.6529 -1.0826 -1.0311
 6047TIP3   OH239631   2.107   6.602  12.286  0.9265  0.5354 -0.0151
 6047TIP3    H139632   2.022   6.637  12.261 -0.1676 -2.7560 -1.4678
 6047TIP3    H239633   2.092   6.558  12.370  1.1701 -0.0328 -0.2602
 6048TIP3   OH239634   0.874   5.197  14.947  0.1649  0.2285  0.3030
 6048TIP3    H139635   0.884   5.184  15.041 -0.1217  0.5861  0.3867
 6048TIP3    H239636   0.936   5.136  14.907  0.2882  0.0771  0.7231
 6049TIP3   OH239637   2.468   6.906   1.241 -0.0283 -0.2703 -0.0301
 6049TIP3    H139638   2.529   6.940   1.307  0.6144 -0.4333 -0.5324
 6049TIP3    H239639   2.466   6.974   1.174 -1.6642  0.4787  0.7358
 6050TIP3   OH239640   0.835   4.031   1.317 -0.0034  0.5244 -0.2419
 6050TIP3    H139641   0.768   4.077   1.367  1.3247  0.0806  2.0710
 6050TIP3    H239642   0.905   4.095   1.307 -0.7892  1.1003 -2.9460
 6051TIP3   OH239643   0.703   0.613  12.171  0.2039 -0.1531 -0.1503
 6051TIP3    H139644   0.794   0.598  12.196  0.5758  0.0122 -1.3202
 6051TIP3    H239645   0.659   0.640  12.251  1.4468  0.8892  0.1987
 6052TIP3   OH239646   4.083   4.097   3.980  0.5210 -0.2548  0.4683
 6052TIP3    H139647   4.080   4.166   3.913  1.2490 -0.9446 -0.2949
 6052TIP3    H239648   3.991   4.085   4.005  0.2809  0.3322 -0.0735
 6053TIP3   OH239649   5.912   3.746   3.865  0.0664  0.0524  0.7254
 6053TIP3    H139650   5.852   3.821   3.865  0.3592  0.3857 -2.1899
 6053TIP3    H239651   5.992   3.779   3.824  0.9395 -1.3673  1.1991
 6054TIP3   OH239652   5.672   4.939  11.844  0.4559  0.0609  0.0727
 6054TIP3    H139653   5.732   4.869  11.866 -0.2007 -1.8063 -3.3771
 6054TIP3    H239654   5.727   5.009  11.809  0.9233  0.4712  1.5407
 6055TIP3   OH239655   2.236   5.747  12.190  0.2114  0.2275 -0.2547
 6055TIP3    H139656   2.277   5.832  12.172 -0.2507  0.8682  1.4947
 6055TIP3    H239657   2.146   5.769  12.215 -0.1683 -0.8587 -0.6207
 6056TIP3   OH239658   6.496   6.061   9.801 -0.2437 -0.1515 -0.8852
 6056TIP3    H139659   6.459   6.068   9.713  1.1983  1.8464 -1.3791
 6056TIP3    H239660   6.455   6.132   9.850 -0.6349 -0.9222 -0.0725
 6057TIP3   OH239661   4.633   0.129   1.816 -0.2588 -0.0613  0.0217
 6057TIP3    H139662   4.668   0.051   1.861  3.2661  1.0027 -0.5848
 6057TIP3    H239663   4.555   0.097   1.772  1.5810 -3.6191 -1.1058
 6058TIP3   OH239664   4.458   1.696  14.205  0.5406 -0.5097 -0.1363
 6058TIP3    H139665   4.527   1.630  14.198  0.9594 -0.3139  1.5474
 6058TIP3    H239666   4.498   1.776  14.169  0.9847 -0.5459  0.2685
 6059TIP3   OH239667   0.048   7.044  10.244 -0.8259  0.2885  0.4757
 6059TIP3    H139668   0.131   7.002  10.268 -0.5596 -0.1928 -1.1092
 6059TIP3    H239669  -0.017   6.999  10.297 -0.4584 -1.7796 -0.6819
 6060TIP3   OH239670   1.621   0.926  13.350 -0.0563  0.1646  0.0239
 6060TIP3    H139671   1.550   0.864  13.367  0.0151  0.1929  0.4425
 6060TIP3    H239672   1.605   0.957  13.261 -0.9543  0.6691  0.3432
 6061TIP3   OH239673   2.842   3.002  11.726  0.3633  0.1855  0.8084
 6061TIP3    H139674   2.931   3.020  11.758  0.8172  1.9270 -1.1939
 6061TIP3    H239675   2.828   2.909  11.744  3.0883 -0.4441  0.0485
 6062TIP3   OH239676   3.472   0.770  14.696 -0.1913  0.3624 -0.0411
 6062TIP3    H139677   3.497   0.732  14.780 -1.3497  0.0193  0.1704
 6062TIP3    H239678   3.495   0.703  14.632 -0.6634 -0.0036  0.1622
 6063TIP3   OH239679   3.106   2.320  13.595 -0.6720 -0.2631  0.4133
 6063TIP3    H139680   3.011   2.332  13.583 -0.5998 -0.6038 -0.5995
 6063TIP3    H239681   3.119   2.226  13.583 -0.3376 -0.3805  1.6024
 6064TIP3   OH239682   2.776   5.653  13.489  0.3159  0.3754  0.0369
 6064TIP3    H139683   2.824   5.734  13.503 -2.2762  1.6856  2.1220
 6064TIP3    H239684   2.819   5.589  13.547  1.4241  0.6352 -0.4792
 6065TIP3   OH239685   2.452   0.606  10.660 -0.2158 -0.2881  0.5471
 6065TIP3    H139686   2.367   0.600  10.616 -0.2397  1.1411  0.3295
 6065TIP3    H239687   2.497   0.525  10.636 -1.1644 -0.6497 -0.0920
 6066TIP3   OH239688   3.325   1.348  13.428  0.6479 -0.2149 -0.2689
 6066TIP3    H139689   3.416   1.363  13.402 -0.0421  1.9133 -1.6934
 6066TIP3    H239690   3.291   1.289  13.361  0.4942  0.5302 -0.8692
 6067TIP3   OH239691   0.267   2.786  11.800 -0.1034  0.0037 -0.1819
 6067TIP3    H139692   0.316   2.861  11.834 -2.2294  1.5331 -0.3009
 6067TIP3    H239693   0.242   2.736  11.878  1.4865 -0.7783 -0.1157
 6068TIP3   OH239694   0.408   4.930   3.115 -0.1726  0.4615  0.0675
 6068TIP3    H139695   0.487   4.970   3.153  0.8362 -2.7029  1.6348
 6068TIP3    H239696   0.372   4.877   3.186 -0.8717 -2.0975 -2.0384
 6069TIP3   OH239697   0.913   0.746   5.005  0.1578 -0.1803 -0.7693
 6069TIP3    H139698   0.856   0.705   4.940 -2.2359 -0.7873  1.5080
 6069TIP3    H239699   0.984   0.683   5.019 -2.0036 -2.5000  0.7200
 6070TIP3   OH239700   3.828   1.833  15.605  0.0817  0.2828  0.2350
 6070TIP3    H139701   3.822   1.833  15.701  0.4162 -0.9759  0.2727
 6070TIP3    H239702   3.839   1.741  15.582 -1.4501  0.3872 -1.1138
 6071TIP3   OH239703   3.214   5.489  10.918  0.6110  0.1158 -0.1649
 6071TIP3    H139704   3.158   5.495  10.841  1.3070 -0.5578 -0.7411
 6071TIP3    H239705   3.154   5.496  10.992 -0.0713  0.7487 -0.7605
 6072TIP3   OH239706   4.971   1.779   5.156 -0.2500  0.3133 -0.2227
 6072TIP3    H139707   4.938   1.793   5.067 -1.9874 -0.0381  0.3451
 6072TIP3    H239708   4.950   1.860   5.202  3.8470  2.0382 -0.9471
 6073TIP3   OH239709   1.339   0.216  15.750 -0.4995  0.6310 -0.8490
 6073TIP3    H139710   1.424   0.182  15.724 -0.6317 -1.0199  0.6750
 6073TIP3    H239711   1.337   0.306  15.716  2.2319  1.0569 -0.0705
 6074TIP3   OH239712   0.936   7.036   1.563 -0.0026  0.7408 -0.2469
 6074TIP3    H139713   0.992   7.082   1.500  0.5639  0.9995  0.4366
 6074TIP3    H239714   0.992   6.967   1.599 -0.1461  0.9436  0.3713
 6075TIP3   OH239715   3.785   3.692  12.298  0.3168  0.0719  0.1073
 6075TIP3    H139716   3.871   3.689  12.339 -0.2026 -0.2527  1.2238
 6075TIP3    H239717   3.770   3.603  12.267 -0.4941 -0.4763  1.8866
 6076TIP3   OH239718   1.406   6.969   9.969  0.1684  0.4618  0.4851
 6076TIP3    H139719   1.449   7.040  10.015 -1.6713  0.6503  2.0180
 6076TIP3    H239720   1.396   6.900  10.035  0.7236 -0.7334 -0.6232
 6077TIP3   OH239721   6.479   2.080  10.446 -0.4502  0.2538  0.4851
 6077TIP3    H139722   6.438   2.128  10.374 -1.5530  1.1964  1.6761
 6077TIP3    H239723   6.550   2.032  10.406  1.4163  3.6722 -0.7266
 6078TIP3   OH239724   4.451   1.487  12.062 -0.5694  0.5221 -0.6507
 6078TIP3    H139725   4.393   1.469  12.136  0.2743 -0.1863 -0.1370
 6078TIP3    H239726   4.428   1.421  11.997 -0.2785  0.1722 -0.4037
 6079TIP3   OH239727   3.289   3.235  13.739  0.4366  0.2383 -0.0820
 6079TIP3    H139728   3.230   3.270  13.672  0.8322 -0.3057 -0.7296
 6079TIP3    H239729   3.258   3.145  13.753  0.1396  0.4588  0.7283
 6080TIP3   OH239730   1.179   0.817  13.316  0.5602 -0.8223  0.4156
 6080TIP3    H139731   1.096   0.840  13.274  0.4941 -0.7514  0.5840
 6080TIP3    H239732   1.206   0.897  13.360  0.5381 -0.9474  0.6581
 6081TIP3   OH239733   0.050   5.773  10.193  0.1911  0.3367 -0.1914
 6081TIP3    H139734   0.070   5.842  10.129  1.9440 -3.2780 -4.0702
 6081TIP3    H239735  -0.041   5.749  10.175  0.5321 -0.3479 -1.0724
 6082TIP3   OH239736   3.611   0.477  11.521  0.1561  0.1572  0.2381
 6082TIP3    H139737   3.614   0.405  11.458  0.9025 -0.3643  0.8473
 6082TIP3    H239738   3.540   0.533  11.491 -0.4989 -0.8881 -0.2083
 6083TIP3   OH239739   0.262   5.481  11.138 -0.2605 -0.0718 -0.0630
 6083TIP3    H139740   0.205   5.557  11.128 -1.0631 -0.3046  2.1178
 6083TIP3    H239741   0.231   5.418  11.073 -2.4984 -0.1377  0.9744
 6084TIP3   OH239742   6.315   1.363  14.529 -0.8612  0.1211 -0.3751
 6084TIP3    H139743   6.410   1.374  14.519 -0.9828  0.9376 -0.6917
 6084TIP3    H239744   6.277   1.411  14.455 -1.4688 -1.6787 -1.2898
 6085TIP3   OH239745   5.288   6.679   3.989 -0.1624 -0.8293  0.4386
 6085TIP3    H139746   5.215   6.619   4.008  0.3199 -1.4853  0.2497
 6085TIP3    H239747   5.365   6.622   3.983  0.3241 -0.1727  0.3677
 6086TIP3   OH239748   3.875   6.737   9.973  0.3567  0.2058  0.4388
 6086TIP3    H139749   3.950   6.682   9.950 -0.1720 -0.0507 -0.7677
 6086TIP3    H239750   3.818   6.680  10.024 -1.0556 -1.0520 -2.3189
 6087TIP3   OH239751   0.149   1.173  14.418 -0.4909  0.0572  0.5819
 6087TIP3    H139752   0.211   1.179  14.346 -1.2388 -0.4526 -0.1268
 6087TIP3    H239753   0.172   1.092  14.464 -1.5965 -1.0089 -0.6492
 6088TIP3   OH239754   2.157   7.129   2.141  0.1191 -0.1510  0.4285
 6088TIP3    H139755   2.162   7.058   2.077  1.5825  0.3704 -0.0679
 6088TIP3    H239756   2.134   7.085   2.224 -2.3465 -0.7688 -0.4817
 6089TIP3   OH239757   6.636   6.475   1.166 -0.0516  0.3590 -0.1844
 6089TIP3    H139758   6.643   6.552   1.222  0.6306 -0.8499  1.4991
 6089TIP3    H239759   6.594   6.506   1.086 -1.1293  2.1541  1.0164
 6090TIP3   OH239760   4.566   3.894  11.798  0.0225 -0.3275  0.9802
 6090TIP3    H139761   4.610   3.884  11.714  0.9452  0.5453  1.3396
 6090TIP3    H239762   4.493   3.832  11.795  0.6815 -1.0748 -0.0280
 6091TIP3   OH239763   6.025   1.935  13.158 -0.4628  0.0844 -0.6123
 6091TIP3    H139764   5.951   1.991  13.180 -1.2042 -0.8288 -0.7308
 6091TIP3    H239765   6.027   1.934  13.063 -1.3978 -1.2755 -0.6412
 6092TIP3   OH239766   2.539   0.957  11.339  0.2626 -0.2842  0.2685
 6092TIP3    H139767   2.549   0.966  11.245 -0.5886  0.4025  0.2328
 6092TIP3    H239768   2.603   0.891  11.364  0.1216 -0.8653 -0.8688
 6093TIP3   OH239769   0.949   4.696  14.903 -0.0436 -0.2018 -0.3695
 6093TIP3    H139770   0.932   4.603  14.918 -0.2950 -0.1938 -0.5805
 6093TIP3    H239771   0.928   4.709  14.811 -0.2359  0.1119 -0.2827
 6094TIP3   OH239772   3.674   6.709  13.266 -0.2384  0.3951 -0.1820
 6094TIP3    H139773   3.590   6.719  13.311  1.3003  1.3835  2.7187
 6094TIP3    H239774   3.680   6.616  13.248 -2.1847  0.3810 -0.9880
 6095TIP3   OH239775   1.642   1.384   3.011  0.0697 -0.3879  0.1136
 6095TIP3    H139776   1.637   1.418   3.101  0.2303 -1.9047  0.7287
 6095TIP3    H239777   1.736   1.376   2.994  0.1016 -3.5895  1.2545
 6096TIP3   OH239778   1.031   5.861  10.300 -0.0590 -0.3604  0.2493
 6096TIP3    H139779   0.999   5.946  10.272  0.8067  0.3845  1.4094
 6096TIP3    H239780   1.110   5.881  10.351 -0.1461 -1.8014  1.0025
 6097TIP3   OH239781   0.389   1.132  15.391 -0.1318 -0.2198 -0.0077
 6097TIP3    H139782   0.297   1.160  15.388  0.1517  0.7175 -0.1565
 6097TIP3    H239783   0.429   1.187  15.459  0.6965  0.5291 -1.0814
 6098TIP3   OH239784   5.755   0.386  13.974  0.4514 -0.5928  0.4482
 6098TIP3    H139785   5.667   0.416  13.999  0.5386  0.8059 -0.7763
 6098TIP3    H239786   5.808   0.402  14.052 -0.6873 -3.2251  1.8919
 6099TIP3   OH239787   1.229   5.738  15.424 -0.2070 -0.2720 -0.0727
 6099TIP3    H139788   1.239   5.673  15.355  0.0416  1.3391 -1.6366
 6099TIP3    H239789   1.134   5.753  15.429 -0.2538 -0.6455  0.1992
 6100TIP3   OH239790   1.987   2.266   3.376 -0.1163  0.3356  0.0857
 6100TIP3    H139791   2.005   2.360   3.377  1.4490  0.0876 -0.5486
 6100TIP3    H239792   1.897   2.258   3.345  0.2751  1.5665 -1.4409
 6101TIP3   OH239793   2.386   5.500  13.118 -0.0665  0.2389  0.3389
 6101TIP3    H139794   2.314   5.556  13.090  0.9005  0.8920 -0.9661
 6101TIP3    H239795   2.415   5.537  13.201 -0.2443  0.9284  0.1018
 6102TIP3   OH239796   2.512   0.068  10.789 -0.4273  0.4589 -0.5517
 6102TIP3    H139797   2.588   0.126  10.781 -1.3034  1.9128  1.0037
 6102TIP3    H239798   2.480   0.059  10.699 -0.1097  2.1920 -0.8783
 6103TIP3   OH239799   4.300   3.998   3.466 -0.8108 -0.0628 -0.5747
 6103TIP3    H139800   4.321   3.992   3.559  1.8905 -1.1678 -1.1507
 6103TIP3    H239801   4.251   3.918   3.448 -0.8713 -0.1114 -0.2061
 6104TIP3   OH239802   0.706   5.849  12.771 -0.2474 -0.3096 -0.1441
 6104TIP3    H139803   0.623   5.859  12.725 -1.3441 -2.4989  1.2207
 6104TIP3    H239804   0.700   5.906  12.847 -0.7910 -0.9232  0.2839
 6105TIP3   OH239805   1.199   1.333   0.913  0.5159  0.6815  0.8432
 6105TIP3    H139806   1.159   1.417   0.890 -1.3139 -0.5746 -0.8591
 6105TIP3    H239807   1.269   1.322   0.848  0.6430  0.8063  0.9583
 6106TIP3   OH239808   5.890   1.031   2.398 -0.4705 -0.1168 -0.0281
 6106TIP3    H139809   5.886   1.079   2.480 -0.5537  0.9752 -0.6557
 6106TIP3    H239810   5.802   1.040   2.360 -0.5148 -0.8424 -0.1286
 6107TIP3   OH239811   4.269   0.280  11.795 -0.2693 -0.2023  0.1377
 6107TIP3    H139812   4.200   0.234  11.842 -0.2716  1.4593  1.8710
 6107TIP3    H239813   4.350   0.246  11.832 -0.2150 -0.2463 -0.0195
 6108TIP3   OH239814   0.622   0.168  15.051 -0.1491 -0.3734  0.6534
 6108TIP3    H139815   0.592   0.258  15.063 -1.4460 -0.7965  0.6417
 6108TIP3    H239816   0.705   0.177  15.003  1.2394  0.9487  3.1284
 6109TIP3   OH239817   0.453   6.201   1.718 -0.3475  0.3307 -0.5699
 6109TIP3    H139818   0.509   6.178   1.792 -1.5428 -1.0044 -0.0538
 6109TIP3    H239819   0.452   6.297   1.718 -0.0917  0.3565  0.9775
 6110TIP3   OH239820   0.082   5.909   2.364  0.3195  0.4402 -0.4660
 6110TIP3    H139821   0.053   5.937   2.450  0.7915 -0.8134  0.1247
 6110TIP3    H239822   0.037   5.826   2.349  1.5183 -0.2101 -0.6663
 6111TIP3   OH239823   4.065   3.548   9.951 -0.2271 -0.1644  0.1222
 6111TIP3    H139824   3.996   3.607   9.919 -0.1179  0.5839  1.2151
 6111TIP3    H239825   4.030   3.460   9.934 -0.9759  0.1987 -0.3174
 6112TIP3   OH239826   3.943   4.250  12.382  0.5701 -0.6827  0.2066
 6112TIP3    H139827   3.877   4.202  12.332 -1.2974  2.3788 -0.5728
 6112TIP3    H239828   4.016   4.261  12.322  0.9281 -2.1842  0.3155
 6113TIP3   OH239829   4.428   2.377  14.183 -0.2234  0.8114  0.2527
 6113TIP3    H139830   4.375   2.439  14.133 -0.7415  0.1672 -0.0190
 6113TIP3    H239831   4.413   2.401  14.274 -3.5134 -1.2310  0.4248
 6114TIP3   OH239832   4.602   3.427  15.661  0.8290 -0.4042 -0.3829
 6114TIP3    H139833   4.654   3.472  15.594 -0.0935  0.6480 -0.4267
 6114TIP3    H239834   4.554   3.360  15.612  0.0904  0.4186 -0.8223
 6115TIP3   OH239835   3.156   6.205  14.136 -0.0699  0.1060  0.0789
 6115TIP3    H139836   3.231   6.151  14.112 -0.8055 -0.8026 -0.2148
 6115TIP3    H239837   3.189   6.261  14.207  0.6648 -0.8364  0.5097
 6116TIP3   OH239838   4.128   2.673   1.273  0.2076 -0.5322 -0.1174
 6116TIP3    H139839   4.143   2.646   1.364 -0.8831  1.5679  0.7284
 6116TIP3    H239840   4.075   2.752   1.279 -1.1752 -1.1691 -2.6537
 6117TIP3   OH239841   0.176   5.987  12.026 -0.6963  0.0532 -0.3521
 6117TIP3    H139842   0.133   6.023  11.949 -1.9428 -0.5817  0.0307
 6117TIP3    H239843   0.268   6.014  12.017 -0.6600 -0.6158 -2.4200
 6118TIP3   OH239844   6.240   2.674   9.641 -0.0189  0.4960 -0.2549
 6118TIP3    H139845   6.275   2.762   9.636 -1.1179  0.9612 -0.2043
 6118TIP3    H239846   6.235   2.644   9.550  1.7303 -0.1077 -0.1836
 6119TIP3   OH239847   3.083   5.186  13.466  0.1136 -0.5268 -0.1285
 6119TIP3    H139848   2.999   5.163  13.504  1.0900 -0.9120  1.9910
 6119TIP3    H239849   3.065   5.262  13.411 -1.4580  0.0832  1.1322
 6120TIP3   OH239850   3.534   3.003  10.475 -0.5364  0.3866  0.8130
 6120TIP3    H139851   3.534   3.098  10.460  0.3953  0.3327  0.4222
 6120TIP3    H239852   3.523   2.966  10.388 -2.9158  0.1153  1.1413
 6121TIP3   OH239853   4.443   1.221  10.192 -0.2422 -0.3226  0.9902
 6121TIP3    H139854   4.523   1.170  10.197 -0.1300 -0.0850  1.6323
 6121TIP3    H239855   4.465   1.305  10.231  0.6751  1.6563 -3.1907
 6122TIP3   OH239856   5.163   0.533  14.001 -1.1592 -0.3010  0.4365
 6122TIP3    H139857   5.178   0.626  14.016 -0.4368 -0.1418 -1.0858
 6122TIP3    H239858   5.150   0.526  13.907  0.7311 -1.9775  0.2309
 6123TIP3   OH239859   4.784   0.095  14.014  0.0797  0.1753  0.0111
 6123TIP3    H139860   4.802   0.007  13.981 -0.1168 -0.3134  1.1488
 6123TIP3    H239861   4.870   0.130  14.039  0.0728  0.0002  0.2824
 6124TIP3   OH239862   4.133   4.799   1.351 -0.4836  0.4450 -0.2191
 6124TIP3    H139863   4.206   4.844   1.393 -0.2938  1.8412 -1.9185
 6124TIP3    H239864   4.058   4.857   1.367 -1.0251 -0.4509  0.6045
 6125TIP3   OH239865   0.741   2.322   0.578  0.1696  0.6037  0.7857
 6125TIP3    H139866   0.792   2.286   0.506 -0.4487 -0.8339  1.0071
 6125TIP3    H239867   0.805   2.364   0.635  0.8851  0.2308  0.2678
 6126TIP3   OH239868   3.164   3.306  10.705 -1.1368 -0.8586  0.5208
 6126TIP3    H139869   3.138   3.313  10.796 -0.1164  0.5145  0.7484
 6126TIP3    H239870   3.139   3.390  10.666  1.6240  0.0356  0.4642
 6127TIP3   OH239871   3.279   1.470  12.584 -0.9195  0.2033  0.5312
 6127TIP3    H139872   3.197   1.505  12.620 -1.1256 -1.8013  2.2001
 6127TIP3    H239873   3.344   1.537  12.603 -2.1309  1.8741 -0.8949
 6128TIP3   OH239874   3.199   5.299  12.777  0.4467  0.6797 -0.1454
 6128TIP3    H139875   3.149   5.280  12.856  0.8642  1.0131  0.2029
 6128TIP3    H239876   3.250   5.376  12.799 -0.9070  1.9939 -1.3968
 6129TIP3   OH239877   5.787   6.642  12.649  0.3866 -0.1878  0.0872
 6129TIP3    H139878   5.843   6.686  12.585 -0.0166 -0.8218 -0.7122
 6129TIP3    H239879   5.739   6.713  12.691  1.8820  0.3838  0.9057
 6130TIP3   OH239880   2.327   5.383   0.321 -0.6297 -0.2394  0.3870
 6130TIP3    H139881   2.364   5.436   0.251 -0.4100 -0.7537  0.1141
 6130TIP3    H239882   2.356   5.426   0.402  1.1171 -0.9991  0.1977
 6131TIP3   OH239883   0.748   1.439  14.723  0.2378  0.2555  0.0597
 6131TIP3    H139884   0.660   1.431  14.761  1.3855  0.4897  3.0301
 6131TIP3    H239885   0.770   1.350  14.695 -0.8956  0.1753 -0.6400
 6132TIP3   OH239886   3.527   2.024   2.323 -0.1511 -0.0763  0.4731
 6132TIP3    H139887   3.466   2.045   2.252 -0.0601  2.8305  1.1296
 6132TIP3    H239888   3.611   2.057   2.292  0.7343 -2.1362  0.4770
 6133TIP3   OH239889   3.921   2.931   3.437 -0.2514  0.2274 -0.5396
 6133TIP3    H139890   3.835   2.934   3.478 -0.1582 -0.8984 -0.2362
 6133TIP3    H239891   3.935   2.839   3.416  0.9868  0.3452 -0.3471
 6134TIP3   OH239892   2.017   7.128   3.923  0.0386  0.5393  0.0298
 6134TIP3    H139893   2.023   7.223   3.913  1.6219  0.3274 -1.5464
 6134TIP3    H239894   2.108   7.098   3.925 -0.3792 -0.8515  2.0201
 6135TIP3   OH239895   1.307   3.907  15.371  0.3500  0.3262  0.6289
 6135TIP3    H139896   1.261   3.824  15.363  1.9680 -0.4885 -1.1646
 6135TIP3    H239897   1.307   3.926  15.465 -0.6267 -1.3557  1.0006
 6136TIP3   OH239898   6.232   6.775  10.891  0.3500 -0.9083 -0.0338
 6136TIP3    H139899   6.158   6.742  10.942  1.4589 -1.6339  1.1569
 6136TIP3    H239900   6.288   6.698  10.878  0.7788 -0.4257 -1.1462
 6137TIP3   OH239901   5.903   6.213  12.780  0.6320 -0.4251  0.1194
 6137TIP3    H139902   5.956   6.196  12.701  1.7152  0.3817  0.6355
 6137TIP3    H239903   5.865   6.129  12.802  1.5293 -0.9962 -0.4171
 6138TIP3   OH239904   4.790   7.000  10.783  0.1800 -0.6342  0.0691
 6138TIP3    H139905   4.793   6.923  10.839  2.6840 -2.3344 -2.1520
 6138TIP3    H239906   4.735   6.974  10.709  1.4876 -0.5571 -0.9651
 6139TIP3   OH239907   3.602   0.628   2.483 -0.7149 -0.3267 -0.3423
 6139TIP3    H139908   3.696   0.617   2.497 -0.7620 -0.2331  0.0580
 6139TIP3    H239909   3.597   0.689   2.409 -0.4665 -1.0801 -0.9910
 6140TIP3   OH239910   5.079   5.027  14.347  0.2615  0.4081 -0.2271
 6140TIP3    H139911   5.008   4.968  14.371  1.1321 -0.3171  0.6288
 6140TIP3    H239912   5.107   4.997  14.261  0.6543 -0.4027  0.1765
 6141TIP3   OH239913   0.927   3.786   5.831  0.3301 -0.0474  0.6098
 6141TIP3    H139914   0.917   3.881   5.834 -3.1883 -0.0636 -2.4683
 6141TIP3    H239915   1.012   3.772   5.789  0.5839  1.7372  0.4397
 6142TIP3   OH239916   0.456   5.905   1.622  0.1653 -0.1106  0.1102
 6142TIP3    H139917   0.443   5.905   1.717  0.4411  1.0846  0.1641
 6142TIP3    H239918   0.411   5.984   1.592  0.3747 -0.2955 -0.7169
 6143TIP3   OH239919   0.272   2.987  14.713  0.3036 -0.8972 -0.1841
 6143TIP3    H139920   0.203   2.997  14.779 -0.1525  1.0709 -0.8806
 6143TIP3    H239921   0.353   2.983  14.764 -0.2588 -3.8634  0.6799
 6144TIP3   OH239922   5.057   3.500   3.442 -0.2720 -0.4458  0.2511
 6144TIP3    H139923   4.992   3.493   3.372  0.1479  0.8856 -0.3106
 6144TIP3    H239924   5.007   3.485   3.523 -1.1182 -0.2193 -0.2185
 6145TIP3   OH239925   4.086   3.827   0.105 -0.0358 -0.0170  0.1437
 6145TIP3    H139926   4.149   3.885   0.149  1.6665  0.4029 -2.5911
 6145TIP3    H239927   4.013   3.885   0.082  0.7209  0.6284 -0.7342
 6146TIP3   OH239928   6.566   3.631   1.219  0.2960  0.4502 -0.7388
 6146TIP3    H139929   6.628   3.563   1.193  0.0632 -1.3381  2.6953
 6146TIP3    H239930   6.488   3.582   1.248 -0.1407  2.1461  1.2126
 6147TIP3   OH239931   6.215   6.025  13.720  0.1766  0.6766  0.5114
 6147TIP3    H139932   6.144   6.074  13.681  2.0649  3.0808 -0.1444
 6147TIP3    H239933   6.198   5.934  13.697 -3.1911  0.9903  1.3101
 6148TIP3   OH239934   6.607   1.311  10.833 -0.4246  0.2313  0.2437
 6148TIP3    H139935   6.546   1.239  10.818 -0.9917  1.0452 -1.6316
 6148TIP3    H239936   6.652   1.288  10.914 -2.8837 -0.6282  1.4600
 6149TIP3   OH239937   7.067   4.657  13.211  0.0216  0.3310  0.4546
 6149TIP3    H139938   7.050   4.749  13.232  1.4901  0.6900  0.2515
 6149TIP3    H239939   7.159   4.644  13.237  0.5835 -0.4006 -1.7091
 6150TIP3   OH239940   4.322   3.033  11.454 -0.4425  0.3122  0.4495
 6150TIP3    H139941   4.346   3.115  11.497  0.3451  0.6666 -0.6021
 6150TIP3    H239942   4.393   3.018  11.391 -1.5256 -0.1916 -0.6957
 6151TIP3   OH239943   2.924   5.490  15.074 -0.2342  0.1395 -0.3634
 6151TIP3    H139944   2.862   5.503  15.145  0.1091 -2.2547  0.4730
 6151TIP3    H239945   3.009   5.514  15.112 -0.4359  2.6607 -1.2699
 6152TIP3   OH239946   2.366   4.684  13.253  0.3326 -0.3815  0.1619
 6152TIP3    H139947   2.302   4.753  13.237  1.5242  1.1752  1.7910
 6152TIP3    H239948   2.360   4.627  13.176 -1.1912  1.1206 -0.8862
 6153TIP3   OH239949   1.787   4.878   3.567 -0.4674 -0.2022  1.2501
 6153TIP3    H139950   1.867   4.930   3.570  0.4175 -1.5106  1.0156
 6153TIP3    H239951   1.757   4.873   3.658 -0.0978  0.0158  1.3828
 6154TIP3   OH239952   1.159   3.346   4.406 -0.0177  0.1071  0.0705
 6154TIP3    H139953   1.253   3.346   4.388  0.4572  0.2620  2.3072
 6154TIP3    H239954   1.146   3.272   4.466 -1.8966 -1.9145 -2.5665
 6155TIP3   OH239955   0.062   1.831  11.038 -0.1907 -0.4290 -0.4364
 6155TIP3    H139956   0.127   1.849  10.969  0.4219 -1.3157 -0.1089
 6155TIP3    H239957   0.072   1.905  11.099  1.1855 -1.0171  0.0876
 6156TIP3   OH239958   7.005   4.874  13.813 -0.4981 -0.2431  0.0999
 6156TIP3    H139959   7.020   4.922  13.895 -0.8708  0.3690 -0.1783
 6156TIP3    H239960   7.061   4.797  13.820  1.1700  0.8938 -0.0030
 6157TIP3   OH239961   1.110   2.010  11.537 -0.0565 -0.4114  0.6782
 6157TIP3    H139962   1.113   2.007  11.632 -0.9605 -0.7787  0.7061
 6157TIP3    H239963   1.018   2.025  11.516  0.1608 -0.1437 -0.1360
 6158TIP3   OH239964   6.661   5.614  14.703  0.2780  0.3441  0.0743
 6158TIP3    H139965   6.754   5.597  14.715  0.5274  1.7936  0.3620
 6158TIP3    H239966   6.618   5.545  14.753  1.2519  1.7340  3.0827
 6159TIP3   OH239967   5.550   7.065  13.616 -0.4199 -0.0641  0.0485
 6159TIP3    H139968   5.544   7.150  13.574 -1.5444 -0.6906 -1.1448
 6159TIP3    H239969   5.633   7.029  13.586  0.5644  0.9901  1.3805
 6160TIP3   OH239970   5.755   3.115  11.083  0.1634  0.4174  0.0747
 6160TIP3    H139971   5.661   3.103  11.074  0.3930 -0.3600 -1.7708
 6160TIP3    H239972   5.766   3.155  11.169 -1.7605 -0.3914  0.7509
 6161TIP3   OH239973   5.778   0.752  10.243  0.4029  0.4183  0.0408
 6161TIP3    H139974   5.770   0.676  10.185  0.3287  0.9433 -0.6531
 6161TIP3    H239975   5.864   0.742  10.285 -0.4107 -1.0674  1.4614
 6162TIP3   OH239976   2.469   3.846  10.275 -0.6354  0.1794 -0.0748
 6162TIP3    H139977   2.396   3.856  10.335 -1.5403 -0.3859 -1.0395
 6162TIP3    H239978   2.431   3.858  10.188  0.0472 -1.7499 -0.7152
 6163TIP3   OH239979   6.922   6.922  10.839 -0.2178 -0.1508  0.1800
 6163TIP3    H139980   7.004   6.930  10.888  0.9007 -0.4789 -1.5575
 6163TIP3    H239981   6.910   7.007  10.798 -0.2833 -0.3585 -0.2433
 6164TIP3   OH239982   4.135   4.979  12.495  0.0366  0.4126 -1.0731
 6164TIP3    H139983   4.059   4.925  12.519  0.1336 -0.5663 -2.8012
 6164TIP3    H239984   4.096   5.061  12.465 -0.2559  0.4261 -0.6720
 6165TIP3   OH239985   6.868   5.703   0.623  0.3149 -0.4738  0.0227
 6165TIP3    H139986   6.948   5.711   0.675  1.0345  0.1456 -1.1477
 6165TIP3    H239987   6.820   5.784   0.641  0.1795 -0.6269  0.3510
 6166TIP3   OH239988   6.085   4.424  11.138  0.6085  0.5174  0.4489
 6166TIP3    H139989   6.103   4.515  11.161  1.2142  0.4552  0.2408
 6166TIP3    H239990   5.998   4.407  11.174  0.3219  1.2969  0.1457
 6167TIP3   OH239991   0.267   4.015   4.179  0.0575 -0.4083  0.3026
 6167TIP3    H139992   0.275   4.097   4.227  1.0873  0.7717 -1.7795
 6167TIP3    H239993   0.306   3.949   4.238  1.2449  0.9497  1.1066
 6168TIP3   OH239994   6.219   1.494  15.658 -0.3918  0.1233 -0.1263
 6168TIP3    H139995   6.162   1.467  15.730  1.3850 -0.8753  0.9580
 6168TIP3    H239996   6.168   1.561  15.612 -1.0847  1.7864  2.8250
 6169TIP3   OH239997   3.259   0.332  13.999  0.3363 -0.6955 -0.4629
 6169TIP3    H139998   3.288   0.326  14.090 -0.5889  1.6229  0.0714
 6169TIP3    H239999   3.321   0.278  13.951  1.7169 -0.8645  1.3683
 6170TIP3   OH240000   5.983   5.845  12.383 -0.0587  0.8368 -0.3724
 6170TIP3    H140001   6.072   5.816  12.403  0.4790  2.2231 -0.6572
 6170TIP3    H240002   5.993   5.904  12.308 -0.9959  2.1683  0.5006
 6171TIP3   OH240003   3.305   2.836   9.803 -0.4313 -0.1889 -0.2040
 6171TIP3    H140004   3.302   2.806   9.894 -0.0849  1.2157  0.2952
 6171TIP3    H240005   3.289   2.930   9.808 -1.5509 -0.2716 -1.7207
 6172TIP3   OH240006   0.722   5.912   1.279  0.0079  0.8836  0.2137
 6172TIP3    H140007   0.711   5.974   1.351  0.7254  3.1361 -1.5401
 6172TIP3    H240008   0.636   5.907   1.238 -0.1787  0.2823  0.6624
 6173TIP3   OH240009   6.324   2.785  10.418  0.1306 -0.2514  0.2494
 6173TIP3    H140010   6.340   2.698  10.456  2.3070  0.6017  1.4655
 6173TIP3    H240011   6.374   2.785  10.337  0.8908  0.1557  0.7088
 6174TIP3   OH240012   2.960   2.837   4.786 -0.0261 -0.2764 -0.1287
 6174TIP3    H140013   2.929   2.757   4.744  0.0003  0.6540 -2.0561
 6174TIP3    H240014   3.055   2.825   4.794  0.0791 -0.1662 -1.0906
 6175TIP3   OH240015   4.836   1.994  10.251 -0.1642  0.0970  0.5529
 6175TIP3    H140016   4.881   1.959  10.174  0.5461 -1.1048  1.4800
 6175TIP3    H240017   4.747   1.958  10.245 -0.1721  0.1642  0.2115
 6176TIP3   OH240018   0.417   6.460   1.618  0.2239  0.6374 -0.2005
 6176TIP3    H140019   0.381   6.469   1.530  0.9550 -0.7434 -0.6886
 6176TIP3    H240020   0.367   6.520   1.672 -3.1999 -1.5076 -0.7097
 6177TIP3   OH240021   0.518   0.619   0.638  0.5251  0.0749 -0.3830
 6177TIP3    H140022   0.552   0.638   0.726  1.1634  2.4321 -1.0496
 6177TIP3    H240023   0.462   0.694   0.618 -1.6422 -1.6402 -1.0577
 6178TIP3   OH240024   5.699   4.806  11.404 -0.7144 -0.2373  0.8674
 6178TIP3    H140025   5.767   4.779  11.343 -1.8443  0.1254 -0.5969
 6178TIP3    H240026   5.739   4.794  11.491  1.7724  1.4529  0.0797
 6179TIP3   OH240027   3.186   1.880  10.418 -0.0092 -0.2876  0.1034
 6179TIP3    H140028   3.137   1.895  10.337  0.9977 -0.1383 -0.4984
 6179TIP3    H240029   3.270   1.843  10.388 -0.0026 -1.1492  1.1396
 6180TIP3   OH240030   3.801   2.266  11.416  0.0797 -0.0804  0.4981
 6180TIP3    H140031   3.874   2.327  11.403 -0.0312 -0.0087  0.2172
 6180TIP3    H240032   3.738   2.289  11.349 -0.0854 -0.3240  0.5682
 6181TIP3   OH240033   1.200   3.962   1.098 -0.1264 -0.5846  0.2649
 6181TIP3    H140034   1.260   4.026   1.061 -0.1950 -1.0078 -0.6069
 6181TIP3    H240035   1.232   3.948   1.187  0.5673 -0.1810  0.0880
 6182TIP3   OH240036   4.758   3.625  12.961  0.4742 -0.0762 -0.2332
 6182TIP3    H140037   4.732   3.661  13.045 -0.8461 -1.4911  0.0143
 6182TIP3    H240038   4.841   3.579  12.979  0.7918  0.5879  0.0197
 6183TIP3   OH240039   0.803   6.745  12.549  0.2446 -0.4100 -0.6399
 6183TIP3    H140040   0.784   6.671  12.491  0.9596 -1.0697 -0.0548
 6183TIP3    H240041   0.824   6.817  12.490  1.2488 -1.1488 -1.2168
 6184TIP3   OH240042   0.710   1.615   2.909 -0.1679 -0.2418  0.3921
 6184TIP3    H140043   0.805   1.609   2.925  0.6343  2.9781 -1.9345
 6184TIP3    H240044   0.670   1.578   2.988  2.9785 -2.0639  1.3250
 6185TIP3   OH240045   5.829   3.494  14.822 -0.0650  0.3530 -0.0740
 6185TIP3    H140046   5.870   3.580  14.825  0.5137  0.0744  0.2200
 6185TIP3    H240047   5.779   3.488  14.904  0.8742 -0.0594  0.4788
 6186TIP3   OH240048   6.235   4.630   3.558  1.3209  0.0504  0.7626
 6186TIP3    H140049   6.172   4.564   3.528  2.5454 -0.4155 -0.9054
 6186TIP3    H240050   6.309   4.578   3.591  1.5699  0.5940  1.0703
 6187TIP3   OH240051   3.036   2.787   4.316 -0.8744 -0.2878 -0.4569
 6187TIP3    H140052   3.058   2.773   4.408 -1.1247  0.8654 -0.2029
 6187TIP3    H240053   2.965   2.852   4.318 -0.5270  0.1431 -1.4790
 6188TIP3   OH240054   3.903   5.833   1.271  0.2288 -0.0974  0.6479
 6188TIP3    H140055   3.823   5.798   1.232  0.4911 -0.2223  0.2121
 6188TIP3    H240056   3.937   5.894   1.205  1.0216 -0.8047  0.3894
 6189TIP3   OH240057   1.136   2.526  10.039  0.0526  0.4049 -0.3610
 6189TIP3    H140058   1.062   2.467  10.054  0.1240  0.8330  1.8770
 6189TIP3    H240059   1.201   2.470   9.996 -0.3796 -0.8201  0.5083
 6190TIP3   OH240060   0.568   1.589   2.037  0.4852 -0.9309 -0.5621
 6190TIP3    H140061   0.577   1.684   2.034 -1.4381 -0.6378  1.2289
 6190TIP3    H240062   0.658   1.556   2.032  1.1190  0.8786 -2.4448
 6191TIP3   OH240063   5.691   2.805  10.545  0.9304 -0.8527  0.7595
 6191TIP3    H140064   5.619   2.752  10.580  1.8706 -0.7510  2.9589
 6191TIP3    H240065   5.647   2.876  10.497 -0.4100 -1.3369  1.2213
 6192TIP3   OH240066   2.584   4.289  12.075  0.3911  0.0318 -0.2943
 6192TIP3    H140067   2.565   4.345  12.000 -1.3611 -0.1585 -0.0423
 6192TIP3    H240068   2.535   4.208  12.058  0.8590 -0.4389  0.5174
 6193TIP3   OH240069   0.736   6.696  10.575 -0.3859 -0.2016  0.0257
 6193TIP3    H140070   0.771   6.655  10.496  2.9941 -0.0165  1.2766
 6193TIP3    H240071   0.780   6.651  10.647 -1.5266  1.2618  1.7341
 6194TIP3   OH240072   3.980   1.086  10.271  0.3453  0.1149 -0.5146
 6194TIP3    H140073   3.913   1.074  10.338 -0.4329 -0.2982 -1.3521
 6194TIP3    H240074   4.017   0.998  10.259  0.9646  0.3201 -0.1333
 6195TIP3   OH240075   5.970   0.036   0.702 -0.1411  0.9891  0.2445
 6195TIP3    H140076   5.875   0.045   0.691 -0.0502  3.1768  0.7252
 6195TIP3    H240077   6.007   0.085   0.628  0.6756 -0.7333 -0.5532
 6196TIP3   OH240078   1.590   1.636  11.776  0.1412 -0.0884  0.4852
 6196TIP3    H140079   1.534   1.693  11.724 -0.7181 -0.5278  0.9179
 6196TIP3    H240080   1.672   1.632  11.727 -0.3918  0.1179 -0.4371
 6197TIP3   OH240081   5.153   2.792  12.849  0.1073  0.2141 -0.2603
 6197TIP3    H140082   5.180   2.701  12.837 -0.5222 -0.0828  0.4707
 6197TIP3    H240083   5.138   2.801  12.943  3.7396  2.1055  0.3170
 6198TIP3   OH240084   2.897   2.393   1.340 -0.0212  0.5834  0.0525
 6198TIP3    H140085   2.837   2.321   1.361 -0.3119  0.0645 -2.2668
 6198TIP3    H240086   2.976   2.373   1.390 -0.8500 -0.1549  1.1249
 6199TIP3   OH240087   6.663   2.834   0.947  0.2788  0.4373 -1.2637
 6199TIP3    H140088   6.649   2.742   0.966 -1.8350  0.7603 -0.9669
 6199TIP3    H240089   6.619   2.880   1.018  0.8207  1.6799 -1.7004
 6200TIP3   OH240090   1.896   1.627   3.098 -0.1482  0.1356 -0.0822
 6200TIP3    H140091   1.975   1.607   3.148 -0.9270 -3.5344 -0.0378
 6200TIP3    H240092   1.829   1.644   3.163 -0.0185  0.4123 -0.0228
 6201TIP3   OH240093   0.563   0.254   3.655 -1.0337 -0.6305 -0.0223
 6201TIP3    H140094   0.555   0.176   3.601 -0.4340  0.8996 -2.4686
 6201TIP3    H240095   0.656   0.278   3.650 -1.5471  1.3705 -1.1179
 6202TIP3   OH240096   0.546   2.467   2.210 -0.1964 -1.0856  0.6164
 6202TIP3    H140097   0.590   2.428   2.285 -0.5289 -0.1145  1.3269
 6202TIP3    H240098   0.466   2.506   2.245  0.4799  0.9032  0.0878
 6203TIP3   OH240099   3.582   6.811  11.192  0.3732  0.1849 -0.8208
 6203TIP3    H140100   3.619   6.753  11.125  2.2732  0.9988 -0.5548
 6203TIP3    H240101   3.651   6.817  11.258  0.2648  2.7368 -0.8505
 6204TIP3   OH240102   1.001   0.008   3.843  0.2009 -0.0946 -0.5841
 6204TIP3    H140103   0.909   0.036   3.849 -0.2760 -1.3055 -1.7986
 6204TIP3    H240104   1.026  -0.009   3.934 -1.1778 -0.9348 -0.3231
 6205TIP3   OH240105   1.537   2.590  10.577  0.0836 -0.0157  0.3077
 6205TIP3    H140106   1.461   2.618  10.525  1.1891 -1.2988 -2.1723
 6205TIP3    H240107   1.596   2.665  10.575  1.4517 -0.9760 -3.1649
 6206TIP3   OH240108   0.000   5.914  12.239 -0.4736  0.1293 -0.1160
 6206TIP3    H140109   0.043   5.957  12.313 -0.7711  1.6068 -0.7644
 6206TIP3    H240110   0.063   5.920  12.167 -0.0610 -1.5658  0.0514
 6207TIP3   OH240111   5.236   4.483   4.071 -0.5528  0.2434 -0.1929
 6207TIP3    H140112   5.222   4.493   3.977  2.0544 -0.0637 -0.6728
 6207TIP3    H240113   5.270   4.568   4.100  0.4873 -0.2503  0.0744
 6208TIP3   OH240114   1.815   4.996  15.136 -0.0553  0.0529 -0.0430
 6208TIP3    H140115   1.851   5.003  15.225 -0.1948 -2.1318  0.2473
 6208TIP3    H240116   1.822   5.084  15.100  2.5134  0.4484  1.1831
 6209TIP3   OH240117   4.006   5.547   2.005 -0.0191  0.0930 -0.5604
 6209TIP3    H140118   3.951   5.514   2.076  0.3646  0.8817  0.1241
 6209TIP3    H240119   3.971   5.633   1.986  0.8915  0.5556 -0.1954
 6210TIP3   OH240120   0.300   3.377  14.318  0.1903  0.1639  0.2382
 6210TIP3    H140121   0.373   3.363  14.258 -0.1095  0.9201 -0.3192
 6210TIP3    H240122   0.224   3.339  14.274  0.0755  0.1938  0.4061
 6211TIP3   OH240123   2.720   4.652  12.035  0.4173 -0.0285 -0.0650
 6211TIP3    H140124   2.716   4.650  11.939  2.4180  0.8413 -0.2204
 6211TIP3    H240125   2.760   4.737  12.056 -1.2405  0.4160  1.6415
 6212TIP3   OH240126   1.600   1.019  10.144  0.3722 -0.6139 -0.3158
 6212TIP3    H140127   1.622   1.110  10.124 -2.7398  0.5223  0.7285
 6212TIP3    H240128   1.665   0.993  10.209  1.8963  0.4905 -1.3120
 6213TIP3   OH240129   0.103   1.102  14.046 -0.2736  0.0499  0.3922
 6213TIP3    H140130   0.104   1.190  14.083 -1.0695 -0.0736  0.7398
 6213TIP3    H240131   0.176   1.100  13.984  0.5627  0.5354  1.3297
 6214TIP3   OH240132   0.624   5.590  14.259  0.3654 -0.2550  0.1009
 6214TIP3    H140133   0.596   5.627  14.343 -0.4071 -0.7713  0.0744
 6214TIP3    H240134   0.571   5.635  14.194  2.1351  1.3986 -0.3157
 6215TIP3   OH240135   1.017   3.885   1.654 -0.4860  0.3975  0.1378
 6215TIP3    H140136   0.988   3.879   1.744  1.2802 -0.0126  0.7288
 6215TIP3    H240137   1.042   3.977   1.642  1.1501  0.0744  0.7429
 6216TIP3   OH240138   5.118   4.896  13.985 -0.4616 -0.0951  0.2583
 6216TIP3    H140139   5.155   4.979  13.957 -0.3580 -0.3930 -0.4930
 6216TIP3    H240140   5.163   4.876  14.067 -0.2183  0.4011  0.2463
 6217TIP3   OH240141   0.145   2.199  15.319 -0.6531 -0.0424 -0.0466
 6217TIP3    H140142   0.058   2.166  15.339 -0.2459 -0.6140  0.8692
 6217TIP3    H240143   0.153   2.189  15.224 -0.9803 -1.5608  0.0524
 6218TIP3   OH240144   1.449   0.884   1.589  0.2275 -0.1420  0.3267
 6218TIP3    H140145   1.407   0.892   1.503 -2.3741 -0.9427  1.4223
 6218TIP3    H240146   1.470   0.791   1.597  2.4264  0.2353 -0.1980
 6219TIP3   OH240147   6.096   2.266  14.679  0.3729  0.7954 -0.5609
 6219TIP3    H140148   6.093   2.188  14.624 -2.9340  0.4123 -0.0599
 6219TIP3    H240149   6.093   2.339  14.617 -1.9553  0.3750 -1.0716
 6220TIP3   OH240150   1.063   6.890  11.609 -0.1227 -0.5120 -0.3832
 6220TIP3    H140151   1.124   6.832  11.655 -0.3040 -0.0312  0.4916
 6220TIP3    H240152   1.068   6.973  11.657 -2.3410 -0.8144  0.4911
 6221TIP3   OH240153   1.894   4.936  12.805  0.4962 -0.4284 -0.3241
 6221TIP3    H140154   1.850   4.979  12.731 -0.9186 -1.3873 -0.0671
 6221TIP3    H240155   1.927   4.854  12.770  2.1387  0.2662 -0.5080
 6222TIP3   OH240156   6.738   2.017   2.030  0.5686  0.1460 -0.3430
 6222TIP3    H140157   6.679   2.088   2.056  0.9480  0.1021  0.6686
 6222TIP3    H240158   6.797   2.057   1.967  1.9311  1.2573  1.5345
 6223TIP3   OH240159   2.417   3.662  12.152  0.4428  0.0220 -0.2810
 6223TIP3    H140160   2.498   3.693  12.194  0.0013  1.5757 -0.5117
 6223TIP3    H240161   2.387   3.736  12.100 -1.3998 -0.3503  0.1823
 6224TIP3   OH240162   4.949   0.418  14.120 -0.3841  0.0996  0.4013
 6224TIP3    H140163   5.034   0.454  14.093 -1.3050  1.8693 -0.3505
 6224TIP3    H240164   4.965   0.379  14.205  0.3404  4.4454  2.5360
 6225TIP3   OH240165   1.077   3.643   1.175 -0.0979  0.7594  0.0015
 6225TIP3    H140166   1.168   3.667   1.158  0.3540  0.8218  2.2530
 6225TIP3    H240167   1.058   3.680   1.261 -2.6892  1.8754 -0.9622
 6226TIP3   OH240168   4.046   0.820   1.942 -0.6384  0.7765 -0.3319
 6226TIP3    H140169   4.084   0.793   2.026  1.0540  1.0569 -0.9777
 6226TIP3    H240170   3.973   0.759   1.928  0.0125 -0.2558  0.6125
 6227TIP3   OH240171   4.756   0.964   9.280  0.5613 -0.5934 -0.0514
 6227TIP3    H140172   4.817   1.002   9.217  0.4582 -1.2162 -0.5264
 6227TIP3    H240173   4.800   0.974   9.365  0.9053 -0.1826 -0.2757
 6228TIP3   OH240174   5.191   4.031   9.714 -0.5539 -0.3709 -0.3665
 6228TIP3    H140175   5.270   4.049   9.766  0.5028 -1.7659 -1.3783
 6228TIP3    H240176   5.208   4.074   9.630 -1.6053  0.6569 -0.0687
 6229TIP3   OH240177   1.872   2.049  13.438  0.4322  0.5583 -0.3489
 6229TIP3    H140178   1.828   2.095  13.367 -1.3350 -1.1367 -0.4322
 6229TIP3    H240179   1.882   2.114  13.508 -0.5450  1.4600 -1.0394
 6230TIP3   OH240180   4.122   1.888   9.377  0.0308 -0.1785  0.1278
 6230TIP3    H140181   4.117   1.918   9.468  0.4034  1.0171 -0.2228
 6230TIP3    H240182   4.078   1.803   9.377  0.6101 -0.5042  1.5473
 6231TIP3   OH240183   2.021   5.266  13.098 -0.3343  0.7855  0.7970
 6231TIP3    H140184   2.098   5.212  13.113 -0.0723  0.4470 -1.3693
 6231TIP3    H240185   2.054   5.345  13.056 -1.1160  0.8343  0.2533
 6232TIP3   OH240186   2.811   6.663  13.686  0.2729  0.2353 -0.3137
 6232TIP3    H140187   2.838   6.586  13.636 -1.3813 -0.2198 -0.5620
 6232TIP3    H240188   2.893   6.710  13.704  1.1884 -0.9954 -1.1069
 6233TIP3   OH240189   5.141   2.405   4.079  0.4255 -0.1459 -0.3479
 6233TIP3    H140190   5.060   2.372   4.038  1.0373 -0.1211 -1.6487
 6233TIP3    H240191   5.169   2.335   4.137 -2.3765  1.2068  2.9321
 6234TIP3   OH240192   2.275   0.527  12.779  0.0644 -0.1163 -0.8756
 6234TIP3    H140193   2.216   0.454  12.763  0.2413  0.1580 -3.1338
 6234TIP3    H240194   2.344   0.491  12.833 -1.0219 -1.0090 -0.0442
 6235TIP3   OH240195   6.075   1.382  11.491  0.3072 -0.2413 -0.1901
 6235TIP3    H140196   6.023   1.454  11.527  0.9909  0.7146 -1.0720
 6235TIP3    H240197   6.165   1.412  11.499  0.4868  0.1562 -2.9143
 6236TIP3   OH240198   3.630   0.401   1.020  0.5956  0.4228 -0.6207
 6236TIP3    H140199   3.668   0.314   1.009 -2.0805 -0.5769 -3.3606
 6236TIP3    H240200   3.667   0.452   0.948 -0.0232  0.6696 -0.7705
 6237TIP3   OH240201   4.976   2.680  12.291  0.3830 -0.2769  0.3515
 6237TIP3    H140202   4.962   2.585  12.292  1.8630 -0.5151  0.0817
 6237TIP3    H240203   4.964   2.706  12.200  1.1823 -0.3982  0.2122
 6238TIP3   OH240204   3.742   6.327  12.648  0.1235 -0.1391 -0.1928
 6238TIP3    H140205   3.797   6.286  12.714 -2.0584  0.0593  1.9013
 6238TIP3    H240206   3.724   6.415  12.683  0.7147  0.8228 -2.1753
 6239TIP3   OH240207   5.242   0.824   3.432  0.2880  0.0931  0.0614
 6239TIP3    H140208   5.333   0.818   3.463 -0.2491 -1.7287  1.4600
 6239TIP3    H240209   5.192   0.846   3.511 -0.4236  1.9579 -0.8631
 6240TIP3   OH240210   0.853   5.107  13.606  0.0058 -0.0656  0.2297
 6240TIP3    H140211   0.824   5.136  13.693  0.9632 -0.4433  0.6983
 6240TIP3    H240212   0.878   5.016  13.619  2.6405  0.5582  0.2438
 6241TIP3   OH240213   5.682   6.404  11.106  0.1226 -0.3558  0.1384
 6241TIP3    H140214   5.720   6.490  11.122 -1.5060  0.5700 -0.7942
 6241TIP3    H240215   5.755   6.352  11.072  0.4497  1.5878 -2.3898
 6242TIP3   OH240216   5.886   6.317  10.933  0.3082 -0.2319  0.5557
 6242TIP3    H140217   5.960   6.304  10.992 -0.5998 -0.4390  1.6836
 6242TIP3    H240218   5.926   6.346  10.851  1.6202 -0.1421  1.1955
 6243TIP3   OH240219   2.197   1.175  12.849  0.7105  0.0473 -0.1068
 6243TIP3    H140220   2.216   1.196  12.757  0.0527 -2.1359 -0.8085
 6243TIP3    H240221   2.144   1.248  12.880  1.7084  1.2678 -1.1827
 6244TIP3   OH240222   5.130   3.529  13.967 -0.5244  0.8171 -0.0340
 6244TIP3    H140223   5.192   3.595  13.936 -1.0631  1.4367  0.1881
 6244TIP3    H240224   5.076   3.575  14.031 -1.7226  0.5113 -0.7895
 6245TIP3   OH240225   0.507   2.925  11.950  0.8129  0.2246 -0.1135
 6245TIP3    H140226   0.509   2.836  11.983 -0.2743 -0.1689 -1.0411
 6245TIP3    H240227   0.584   2.932  11.894  1.0979 -0.0002  0.2453
 6246TIP3   OH240228   2.854   6.566  15.485  0.1289  0.3222  0.0167
 6246TIP3    H140229   2.915   6.555  15.413  0.7201  1.6511  0.2909
 6246TIP3    H240230   2.850   6.661  15.500 -0.6630  0.1381  1.1414
 6247TIP3   OH240231   0.328   1.816  12.899 -0.3117 -0.6340 -0.1097
 6247TIP3    H140232   0.269   1.880  12.859 -0.1418  1.7586  3.0323
 6247TIP3    H240233   0.415   1.852  12.885 -0.0851 -1.0121  0.2894
 6248TIP3   OH240234   4.958   3.924  10.413 -1.0595  0.5165 -0.8458
 6248TIP3    H140235   4.905   3.937  10.335 -2.4879  2.3712  0.3431
 6248TIP3    H240236   4.943   3.832  10.437 -1.4088  0.2117 -2.1632
 6249TIP3   OH240237   0.256   3.243  13.981  0.6167 -0.1799 -0.2572
 6249TIP3    H140238   0.315   3.310  14.017  1.0947  0.2086 -1.7118
 6249TIP3    H240239   0.293   3.222  13.896  1.9759 -4.2004  1.1098
 6250TIP3   OH240240   4.149   3.591  14.756  0.8280  0.2286  0.2789
 6250TIP3    H140241   4.206   3.634  14.692  1.1280  0.4026  0.6547
 6250TIP3    H240242   4.102   3.663  14.798  0.3889  0.0900  0.0269
 6251TIP3   OH240243   2.767   6.433   4.656  0.3672  0.2588 -0.4508
 6251TIP3    H140244   2.807   6.490   4.722  0.0861 -0.0789  0.0123
 6251TIP3    H240245   2.763   6.347   4.697  1.9474 -0.4130 -1.6069
 6252TIP3   OH240246   1.068   5.845  14.119  0.2905  0.2690 -0.1756
 6252TIP3    H140247   1.133   5.827  14.051  2.1026  3.4752  0.4791
 6252TIP3    H240248   1.075   5.770  14.179  1.8912 -0.4802 -1.2221
 6253TIP3   OH240249   3.527   1.750  13.867  0.4940  0.1228 -0.2708
 6253TIP3    H140250   3.501   1.658  13.868  4.1207 -1.2953 -4.0252
 6253TIP3    H240251   3.612   1.751  13.912  2.3956  0.6196 -3.5482
 6254TIP3   OH240252   2.625   6.640  10.491  0.2986  0.3177 -0.6352
 6254TIP3    H140253   2.603   6.561  10.442  0.5145 -0.0559 -0.1438
 6254TIP3    H240254   2.687   6.610  10.558 -2.3793  0.1426  1.9878
 6255TIP3   OH240255   2.135   6.609   5.287 -0.1753  0.1942 -0.3583
 6255TIP3    H140256   2.107   6.526   5.327 -1.3763  0.3270 -0.9059
 6255TIP3    H240257   2.196   6.646   5.352 -4.4743  2.0210  3.1902
 6256TIP3   OH240258   1.946   5.029   1.191  0.5732  0.7503 -0.5089
 6256TIP3    H140259   1.862   5.071   1.207 -0.9322 -2.4403  0.7627
 6256TIP3    H240260   1.995   5.041   1.273  0.3366  0.4841 -0.3252
 6257TIP3   OH240261   0.220   5.383  14.650  0.7230 -0.0937  0.0340
 6257TIP3    H140262   0.152   5.316  14.655  1.1997 -0.5343  0.9052
 6257TIP3    H240263   0.282   5.359  14.719  1.3123  0.7951 -0.1704
 6258TIP3   OH240264   0.525   2.668  12.000 -0.4061  1.0137 -0.2139
 6258TIP3    H140265   0.468   2.594  11.978  3.5360 -2.5781  0.4438
 6258TIP3    H240266   0.583   2.677  11.924  1.5767  0.8101  1.2088
 6259TIP3   OH240267   1.871   4.146  12.201 -0.0262 -0.1146  0.3872
 6259TIP3    H140268   1.814   4.180  12.270 -1.3939  0.5924 -1.0502
 6259TIP3    H240269   1.826   4.068  12.169  0.5828 -0.4138  0.2336
 6260TIP3   OH240270   3.485   5.448  13.211  0.3547  0.0391  0.9004
 6260TIP3    H140271   3.396   5.444  13.245  0.0301 -1.1702 -0.0403
 6260TIP3    H240272   3.531   5.509  13.270 -1.4396  1.8112  0.5798
 6261TIP3   OH240273   5.133   3.700   2.174  0.0302 -0.5714  0.5009
 6261TIP3    H140274   5.110   3.618   2.129 -0.6652  0.2903 -0.7831
 6261TIP3    H240275   5.076   3.703   2.250 -0.6222 -0.8352  0.0303
 6262TIP3   OH240276   4.262   2.102  13.302 -0.0678 -0.2193 -1.2274
 6262TIP3    H140277   4.290   2.090  13.211  1.0603 -2.1963 -0.6797
 6262TIP3    H240278   4.282   2.194  13.321 -0.0707  0.1620 -2.8757
 6263TIP3   OH240279   5.416   3.652  14.177 -0.6338  0.3266 -0.2741
 6263TIP3    H140280   5.339   3.700  14.148 -1.3737  1.7739  3.5669
 6263TIP3    H240281   5.466   3.715  14.228  1.5984 -1.3844 -0.2048
 6264TIP3   OH240282   3.237   4.529  11.230  0.1860 -0.1389 -0.2120
 6264TIP3    H140283   3.205   4.455  11.178  1.6925 -0.4237 -0.7824
 6264TIP3    H240284   3.245   4.495  11.319  1.7620 -0.9974 -0.6346
 6265TIP3   OH240285   1.176   6.189   9.978  0.0264  0.1166 -0.2866
 6265TIP3    H140286   1.088   6.158   9.998  0.8819 -1.2068  1.7978
 6265TIP3    H240287   1.175   6.282  10.002 -0.4369 -0.2214  1.0569
 6266TIP3   OH240288   0.302   4.822  13.359 -0.0843 -0.7309 -0.3975
 6266TIP3    H140289   0.395   4.840  13.345  0.0334 -0.7842  0.3012
 6266TIP3    H240290   0.259   4.907  13.350  0.3380 -0.2425  1.7579
 6267TIP3   OH240291   4.212   3.924   1.693  0.2656  0.1612  0.3774
 6267TIP3    H140292   4.123   3.930   1.730  0.0948 -0.4545  0.0752
 6267TIP3    H240293   4.237   3.833   1.706  0.3097 -0.0097 -0.7698
 6268TIP3   OH240294   6.590   0.912   4.383  1.1921  0.2294 -0.2091
 6268TIP3    H140295   6.554   0.826   4.407  0.0250  0.2588 -1.7288
 6268TIP3    H240296   6.647   0.935   4.457  0.8940 -1.4726  0.6062
 6269TIP3   OH240297   3.703   1.300   0.613  0.0262 -0.8116 -0.3966
 6269TIP3    H140298   3.617   1.342   0.618  0.1814 -0.4429 -0.7744
 6269TIP3    H240299   3.723   1.276   0.704  0.6218  1.3217  0.0829
 6270TIP3   OH240300   0.560   3.693  11.163  0.8638  0.6422  0.2809
 6270TIP3    H140301   0.511   3.628  11.113  2.2439 -0.0977 -0.1424
 6270TIP3    H240302   0.514   3.775  11.145 -0.4352 -0.0713  0.2001
 6271TIP3   OH240303   6.301   3.768   0.827 -0.0465 -0.1410  0.4691
 6271TIP3    H140304   6.326   3.762   0.735  1.5934 -1.6020  0.9618
 6271TIP3    H240305   6.379   3.803   0.871 -0.4535 -0.4029  1.4401
 6272TIP3   OH240306   2.038   4.656  14.089  0.5941 -0.1232  0.2815
 6272TIP3    H140307   2.006   4.697  14.009 -0.6127  2.2053  1.8478
 6272TIP3    H240308   2.132   4.645  14.075  0.3595 -0.1146 -1.5577
 6273TIP3   OH240309   2.957   5.474  11.522 -0.0042  0.4256  0.1066
 6273TIP3    H140310   3.026   5.531  11.488  1.1953 -0.6200  0.6979
 6273TIP3    H240311   3.002   5.417  11.585 -1.2018 -0.9907 -0.2710
 6274TIP3   OH240312   4.095   3.408  15.367 -0.6417 -0.4887  0.4309
 6274TIP3    H140313   4.120   3.317  15.378 -0.0523 -0.2836  0.8262
 6274TIP3    H240314   4.045   3.409  15.285 -1.8966 -1.4001  1.1560
 6275TIP3   OH240315   0.893   5.029  14.036 -0.6597 -0.2627 -0.4862
 6275TIP3    H140316   0.852   4.968  14.097 -2.3374  0.3622 -0.9402
 6275TIP3    H240317   0.938   4.973  13.972  0.9421 -0.9326  1.1223
 6276TIP3   OH240318   3.835   6.315   4.682 -0.1088  0.3498  0.4661
 6276TIP3    H140319   3.750   6.359   4.691  0.0602  0.6091  0.8332
 6276TIP3    H240320   3.861   6.296   4.772  0.4724  0.7548  0.3907
 6277TIP3   OH240321   1.729   0.029   0.960  0.2728 -0.2350 -0.1815
 6277TIP3    H140322   1.664   0.077   0.909 -0.2217 -1.2351 -0.5023
 6277TIP3    H240323   1.754   0.090   1.030 -0.7647  0.2769 -0.2441
 6278TIP3   OH240324   5.373   5.184   3.077 -0.4998 -0.5331 -0.0688
 6278TIP3    H140325   5.443   5.149   3.132 -0.8044  0.1921  0.7963
 6278TIP3    H240326   5.308   5.114   3.075 -1.3447  0.1185  2.0952
 6279TIP3   OH240327   3.752   5.787  10.869 -0.3558 -0.5660 -0.5430
 6279TIP3    H140328   3.688   5.783  10.940 -0.1147 -2.9194 -0.4007
 6279TIP3    H240329   3.715   5.850  10.808 -2.2227 -0.9823  0.0905
 6280TIP3   OH240330   3.494   5.517   4.791 -0.3817  0.1452  0.7079
 6280TIP3    H140331   3.402   5.495   4.779 -0.6203  0.5637  1.6901
 6280TIP3    H240332   3.542   5.447   4.746 -1.1554 -0.6827  1.1433
 6281TIP3   OH240333   6.176   2.270  15.693 -0.3699 -0.0705  0.2441
 6281TIP3    H140334   6.171   2.184  15.735 -2.1871 -0.2068 -0.1600
 6281TIP3    H240335   6.182   2.332  15.766  0.3690 -0.5101  0.5577
 6282TIP3   OH240336   3.516   6.964  11.577  0.6562 -0.2676 -0.2600
 6282TIP3    H140337   3.569   6.890  11.547  2.6008  0.4195  1.2377
 6282TIP3    H240338   3.426   6.933  11.571  1.3587 -2.4422 -0.4585
 6283TIP3   OH240339   3.314   5.892  13.687 -0.0248  0.0637 -0.0327
 6283TIP3    H140340   3.261   5.878  13.766  0.4050 -0.5818  0.1529
 6283TIP3    H240341   3.399   5.853  13.709  0.0526 -0.2623 -0.8676
 6284TIP3   OH240342   2.196   6.304  10.850  0.7477 -0.1639  0.3992
 6284TIP3    H140343   2.136   6.344  10.913  2.5510  3.2759  0.1860
 6284TIP3    H240344   2.160   6.329  10.765  2.9307  3.2178  0.2496
 6285TIP3   OH240345   0.791   4.806  12.915 -0.0398  0.1035 -0.5758
 6285TIP3    H140346   0.737   4.883  12.897  2.2434  2.5049  2.0329
 6285TIP3    H240347   0.854   4.804  12.843 -0.4415  0.3121 -0.9418
 6286TIP3   OH240348   2.248   4.449  11.483 -0.4535 -0.3962 -0.2506
 6286TIP3    H140349   2.316   4.384  11.499  0.0168  0.5710  2.1514
 6286TIP3    H240350   2.176   4.423  11.539 -0.0740  1.3374  1.1274
 6287TIP3   OH240351   6.898   6.593  15.330 -0.1158 -0.8295 -0.1327
 6287TIP3    H140352   6.931   6.633  15.410 -0.4479 -1.5019  0.3426
 6287TIP3    H240353   6.866   6.507  15.357 -0.6854 -0.8642 -0.8958
 6288TIP3   OH240354   3.225   7.151   3.080 -0.7794 -0.6599 -0.8531
 6288TIP3    H140355   3.223   7.071   3.027  0.2606 -1.9611  0.9473
 6288TIP3    H240356   3.316   7.156   3.111 -0.5683  1.7947 -1.7067
 6289TIP3   OH240357   2.465   6.793  11.885  0.1987 -0.1105  0.2851
 6289TIP3    H140358   2.487   6.805  11.793 -1.5328  0.2060 -0.1206
 6289TIP3    H240359   2.433   6.879  11.914  0.4071 -0.2897  1.0906
 6290TIP3   OH240360   0.759   0.266  13.511  0.1875 -0.0530  0.4293
 6290TIP3    H140361   0.819   0.305  13.447  0.7453 -2.6316 -0.7565
 6290TIP3    H240362   0.704   0.207  13.460 -0.4277 -1.0258  2.1174
 6291TIP3   OH240363   2.417   4.898  11.930 -0.4263 -0.1129  0.9101
 6291TIP3    H140364   2.476   4.974  11.932 -1.9035  1.1329 -0.1763
 6291TIP3    H240365   2.447   4.843  12.002  1.2636  1.0654  1.1768
 6292TIP3   OH240366   7.152   6.119   0.457  0.1681 -0.0600 -0.5238
 6292TIP3    H140367   7.182   6.061   0.387  0.9095  0.8286 -0.9753
 6292TIP3    H240368   7.182   6.206   0.430 -0.5598  0.4712  0.3308
 6293TIP3   OH240369   6.929   4.163  15.557  0.2123  0.4611 -0.3568
 6293TIP3    H140370   6.883   4.245  15.540 -0.5698  0.7055  2.4443
 6293TIP3    H240371   6.997   4.160  15.489 -0.1230  3.0969 -0.9403
 6294TIP3   OH240372   3.896   3.422  14.743  0.1008  0.1353 -0.2784
 6294TIP3    H140373   3.831   3.450  14.678 -0.1108 -2.2576 -1.2045
 6294TIP3    H240374   3.958   3.494  14.747 -1.6765  1.7780 -0.6293
 6295TIP3   OH240375   1.805   5.292  13.277 -0.4313  0.1084 -0.1803
 6295TIP3    H140376   1.863   5.300  13.202 -1.1904 -1.0171 -0.9362
 6295TIP3    H240377   1.719   5.274  13.239 -1.1361  0.9919  0.9212
 6296TIP3   OH240378   1.456   2.332  10.069  0.5581  0.4540 -0.4666
 6296TIP3    H140379   1.407   2.338   9.987  0.1679 -1.2117 -0.3914
 6296TIP3    H240380   1.545   2.360  10.047  0.2334  0.8730 -1.2438
 6297TIP3   OH240381   6.414   6.339  10.709  0.7213  0.0584  0.1481
 6297TIP3    H140382   6.335   6.392  10.710  0.2450 -0.5833 -1.2838
 6297TIP3    H240383   6.477   6.390  10.761  0.1186  1.7645 -0.7014
 6298TIP3   OH240384   2.820   4.747   0.986 -0.0566 -0.0412  0.2955
 6298TIP3    H140385   2.890   4.796   0.944 -0.2867  0.9051  0.9847
 6298TIP3    H240386   2.796   4.799   1.062 -3.3649  1.1507 -1.3640
 6299TIP3   OH240387   2.558   0.162   5.358  0.1008  0.0844 -0.0564
 6299TIP3    H140388   2.499   0.119   5.420  0.6646 -0.2216  0.2739
 6299TIP3    H240389   2.577   0.247   5.398 -1.9766  1.2162 -1.2720
 6300TIP3   OH240390   5.675   3.856  14.751 -0.1207 -0.3852 -0.3150
 6300TIP3    H140391   5.700   3.835  14.661 -0.2880 -0.2073 -0.4010
 6300TIP3    H240392   5.727   3.796  14.804 -0.1211 -0.5818 -0.5352
 6301TIP3   OH240393   2.105   3.481  13.869 -0.6940  0.1925 -0.7442
 6301TIP3    H140394   2.040   3.411  13.857 -2.2207  1.3836  0.0907
 6301TIP3    H240395   2.064   3.540  13.932  1.8482  0.2764  0.9869
 6302TIP3   OH240396   6.688   1.718  13.708 -0.8259  0.8186  0.2845
 6302TIP3    H140397   6.768   1.668  13.724 -1.4631  0.2134  1.8606
 6302TIP3    H240398   6.629   1.656  13.664 -2.4562 -0.7912  4.2721
 6303TIP3   OH240399   3.616   6.172  14.916  0.4160  0.4062  0.2864
 6303TIP3    H140400   3.653   6.084  14.909  0.7845  0.5872 -0.0897
 6303TIP3    H240401   3.664   6.224  14.852 -0.5786  0.6206 -0.3137
 6304TIP3   OH240402   0.420   3.221   2.525 -0.2772 -0.0530  0.1179
 6304TIP3    H140403   0.425   3.314   2.548 -1.2275 -0.2241  1.0714
 6304TIP3    H240404   0.436   3.219   2.431 -1.9664  1.2738 -0.2532
 6305TIP3   OH240405   0.000   2.092   0.998  0.2665 -0.0479 -0.0912
 6305TIP3    H140406   0.008   2.007   1.041 -1.2801  0.6279  1.6427
 6305TIP3    H240407   0.090   2.116   0.976  0.8020 -1.7804  0.0867
 6306TIP3   OH240408   2.868   3.847   2.416  0.0089  0.0981 -0.0105
 6306TIP3    H140409   2.939   3.813   2.361  0.5351  0.3052  0.5338
 6306TIP3    H240410   2.912   3.897   2.485 -0.5199 -1.4911  1.5595
 6307TIP3   OH240411   2.137   2.808   5.158  0.8212  0.9180  0.6972
 6307TIP3    H140412   2.058   2.838   5.113  1.2670  1.2202  0.1032
 6307TIP3    H240413   2.199   2.787   5.087  1.8879  2.3457  1.1672
 6308TIP3   OH240414   4.441   0.614  14.764  0.4783  1.2112  0.8226
 6308TIP3    H140415   4.397   0.650  14.840  0.4832  1.1065  0.8752
 6308TIP3    H240416   4.534   0.629  14.781  0.6168 -0.4035  1.6833
 6309TIP3   OH240417   2.639   6.947  12.733 -0.3660  0.5585 -0.4891
 6309TIP3    H140418   2.630   6.890  12.657  0.2305  1.3673 -1.1874
 6309TIP3    H240419   2.708   7.009  12.708  0.4437  0.3131  1.0383
 6310TIP3   OH240420   0.259   3.802  12.499  0.0006 -0.4209  0.2937
 6310TIP3    H140421   0.289   3.892  12.498  1.0001 -0.7405 -0.5220
 6310TIP3    H240422   0.222   3.788  12.411  0.6742 -1.0479  0.0948
 6311TIP3   OH240423   6.772   0.684   5.096 -0.0057  0.1358 -0.3279
 6311TIP3    H140424   6.763   0.592   5.073  0.7467  0.0191 -0.1587
 6311TIP3    H240425   6.731   0.691   5.182 -2.4372  0.4910 -1.4263
 6312TIP3   OH240426   1.091   6.895  12.275 -0.7678  0.4453  0.7491
 6312TIP3    H140427   1.055   6.977  12.310 -0.2567  0.4539  1.2664
 6312TIP3    H240428   1.160   6.871  12.336 -1.4594 -0.8171  1.0591
 6313TIP3   OH240429   3.650   6.606  10.588  0.2288 -0.8375  0.2600
 6313TIP3    H140430   3.726   6.607  10.646  0.5071 -0.0429 -0.1065
 6313TIP3    H240431   3.611   6.520  10.602  0.8104 -1.0031  0.9484
 6314TIP3   OH240432   1.935   6.694   1.039  0.2652 -0.6769 -0.1053
 6314TIP3    H140433   1.864   6.635   1.014 -0.1112 -0.8072  1.1749
 6314TIP3    H240434   1.891   6.777   1.060  0.6143 -0.4413 -0.2875
 6315TIP3   OH240435   6.471   3.976  14.812  0.7269 -0.0855 -0.6518
 6315TIP3    H140436   6.539   4.043  14.818  0.5541  0.0829 -0.5288
 6315TIP3    H240437   6.408   4.000  14.880  1.1182 -0.8987  0.0041
 6316TIP3   OH240438   4.424   5.226  12.892  0.1891  0.1477 -0.3029
 6316TIP3    H140439   4.464   5.271  12.966 -0.3930 -1.6597  1.1999
 6316TIP3    H240440   4.395   5.142  12.928  0.7832 -1.2375 -2.8303
 6317TIP3   OH240441   1.634   5.383  14.181 -0.1775  0.0661  0.1367
 6317TIP3    H140442   1.539   5.388  14.192 -0.1147  1.8043  0.1802
 6317TIP3    H240443   1.662   5.315  14.243 -1.4435 -1.0023 -0.4093
 6318TIP3   OH240444   1.844   4.279  11.083  0.8688 -0.3808  0.1410
 6318TIP3    H140445   1.825   4.281  10.989  0.5276 -2.0715  0.1338
 6318TIP3    H240446   1.926   4.327  11.092 -0.1361  1.6274 -0.7027
 6319TIP3   OH240447   1.800   2.527   0.098 -0.0557 -0.1635 -0.2833
 6319TIP3    H140448   1.896   2.529   0.090  0.2983 -5.5498 -0.6282
 6319TIP3    H240449   1.768   2.540   0.009  0.3915  0.1125 -0.4087
 6320TIP3   OH240450   5.289   1.459  13.767  0.4590  0.0154 -1.3108
 6320TIP3    H140451   5.279   1.533  13.827 -0.9356 -0.5083 -0.8598
 6320TIP3    H240452   5.381   1.434  13.774  0.3562  0.0582  0.4974
 6321TIP3   OH240453   6.855   3.185  13.442  0.4706 -0.1742  0.4827
 6321TIP3    H140454   6.886   3.166  13.353  0.0438 -3.2530  0.8656
 6321TIP3    H240455   6.760   3.176  13.437 -0.0188  3.4439  0.5580
 6322TIP3   OH240456   3.279   5.407   5.327  0.2200  0.1308 -0.2112
 6322TIP3    H140457   3.272   5.490   5.279 -0.0454  0.4586  0.3861
 6322TIP3    H240458   3.349   5.359   5.282  0.3001  0.6312 -0.6287
 6323TIP3   OH240459   5.013   1.254  13.331  0.2166 -0.3571 -0.3306
 6323TIP3    H140460   4.979   1.312  13.399  1.8524 -1.0256  1.1328
 6323TIP3    H240461   4.936   1.229  13.280 -1.0461  0.2605  1.2007
 6324TIP3   OH240462   6.237   0.044  15.330 -0.1812  0.4986  0.8529
 6324TIP3    H140463   6.246   0.059  15.236 -1.6037  1.0944  0.7895
 6324TIP3    H240464   6.318   0.078  15.367 -0.3075  1.8157 -0.0168
 6325TIP3   OH240465   1.120   4.756   4.157 -0.2680  0.1349  0.3401
 6325TIP3    H140466   1.163   4.838   4.133 -2.6033  1.5564  0.7487
 6325TIP3    H240467   1.142   4.744   4.250  0.1586  0.2197  0.2533
 6326TIP3   OH240468   5.750   2.152  12.655 -0.1451  0.3121 -0.0270
 6326TIP3    H140469   5.738   2.140  12.561 -1.3790 -0.5697  0.2226
 6326TIP3    H240470   5.661   2.151  12.691  0.2743  1.2475  1.0844
 6327TIP3   OH240471   4.078   2.706  10.990  0.4224 -0.5266  0.0241
 6327TIP3    H140472   4.120   2.781  11.033  0.4504 -0.7263  0.3456
 6327TIP3    H240473   4.146   2.669  10.934  1.1544 -1.7249  1.6177
 6328TIP3   OH240474   1.959   3.028  15.696 -0.4036 -0.2335  0.2071
 6328TIP3    H140475   1.953   3.118  15.729 -0.0451  0.1233 -0.6695
 6328TIP3    H240476   2.006   3.036  15.613 -2.7765 -0.8783 -1.2836
 6329TIP3   OH240477   4.797   6.802   1.465  0.2383  0.4401  0.0200
 6329TIP3    H140478   4.787   6.832   1.375 -1.6329  0.9127  0.3478
 6329TIP3    H240479   4.820   6.882   1.514  0.1235  0.4034  0.1349
 6330TIP3   OH240480   6.285   2.022  15.031 -0.4509  0.8777 -0.2814
 6330TIP3    H140481   6.228   2.098  15.018 -0.1314  0.9528 -1.3422
 6330TIP3    H240482   6.301   1.988  14.943 -0.4145 -0.3063  0.1617
 6331TIP3   OH240483   0.205   3.468  11.744  0.2094 -0.0907  0.1266
 6331TIP3    H140484   0.237   3.476  11.834  0.2930  1.1089 -0.0024
 6331TIP3    H240485   0.281   3.436  11.695  0.4033  0.0665  0.3253
 6332TIP3   OH240486   7.058   5.124  11.008  1.1819 -0.0205 -0.1417
 6332TIP3    H140487   7.107   5.149  11.087 -0.8949  1.9160  0.6187
 6332TIP3    H240488   7.026   5.207  10.972 -2.3947 -1.1635  0.0146
 6333TIP3   OH240489   0.012   1.920   3.182  0.3357 -0.2743  0.5261
 6333TIP3    H140490   0.093   1.917   3.234  2.3919  0.6292 -2.3700
 6333TIP3    H240491   0.007   1.833   3.142 -0.5841 -0.5737  1.2632
 6334TIP3   OH240492   5.376   0.585  13.782  0.5188  0.3765  0.2216
 6334TIP3    H140493   5.304   0.522  13.788 -0.8874  1.9247  0.1877
 6334TIP3    H240494   5.426   0.556  13.705 -1.4416  0.5906 -1.2169
 6335TIP3   OH240495   3.080   2.093  14.730 -0.2235  0.1662 -0.0724
 6335TIP3    H140496   3.101   2.041  14.653 -0.9235  0.0391 -0.1864
 6335TIP3    H240497   2.986   2.110  14.722 -0.8369 -1.8018  1.9187
 6336TIP3   OH240498   1.051   0.840  10.487 -0.1593  0.4774  0.2706
 6336TIP3    H140499   1.021   0.829  10.397 -0.2526 -0.0123  0.3636
 6336TIP3    H240500   0.974   0.821  10.540  0.3182 -0.8763  0.5135
 6337TIP3   OH240501   0.169   6.573   2.792 -0.0486  0.3390  0.4489
 6337TIP3    H140502   0.110   6.639   2.754  1.2724 -0.3362 -3.2052
 6337TIP3    H240503   0.257   6.610   2.779  0.5768 -0.9057  0.9809
 6338TIP3   OH240504   5.290   6.599  13.031  0.7622  0.2429 -0.6181
 6338TIP3    H140505   5.271   6.510  13.002  0.1449 -0.5057  1.7974
 6338TIP3    H240506   5.282   6.595  13.126  0.4886  2.9440 -0.4469
 6339TIP3   OH240507   4.174   6.193   1.629  0.0497  0.9025  0.4752
 6339TIP3    H140508   4.141   6.274   1.667  1.0848  0.9910  1.2522
 6339TIP3    H240509   4.259   6.217   1.592 -0.2276  0.4539 -0.4866
 6340TIP3   OH240510   3.736   3.695  10.905 -0.4611  0.0407 -0.3787
 6340TIP3    H140511   3.716   3.601  10.908 -0.9957  0.1700  0.2927
 6340TIP3    H240512   3.772   3.714  10.992 -2.0912  0.8226  0.1696
 6341TIP3   OH240513   1.356   2.957   2.270  0.6569 -0.0851  0.5869
 6341TIP3    H140514   1.320   2.893   2.332 -0.6588  1.7658  1.8622
 6341TIP3    H240515   1.359   3.039   2.320 -1.5833  1.8063 -2.0842
 6342TIP3   OH240516   2.925   1.081  13.764 -0.5877  0.1832 -0.2681
 6342TIP3    H140517   2.990   1.025  13.806  1.1984  1.6143 -1.0119
 6342TIP3    H240518   2.976   1.145  13.714 -2.5816  0.8729 -1.5498
 6343TIP3   OH240519   0.155   5.939   0.332 -0.2026  0.6062 -0.4825
 6343TIP3    H140520   0.200   5.961   0.414 -0.5982  1.3664 -0.4627
 6343TIP3    H240521   0.220   5.890   0.282 -0.0154 -0.0423  0.3630
 6344TIP3   OH240522   0.316   2.856  15.202 -0.2329 -1.0001 -0.4356
 6344TIP3    H140523   0.304   2.950  15.189 -0.0026 -0.6986  1.2539
 6344TIP3    H240524   0.314   2.819  15.114 -1.9760  0.3863 -1.0538
 6345TIP3   OH240525   2.510   6.277   5.367 -0.1233 -0.1557 -0.1285
 6345TIP3    H140526   2.606   6.273   5.361 -0.1319 -0.7215  0.0276
 6345TIP3    H240527   2.492   6.362   5.408  0.3042 -0.0013 -0.2523
 6346TIP3   OH240528   6.790   0.038   1.087  0.0671 -0.0763 -0.1099
 6346TIP3    H140529   6.779  -0.044   1.038 -0.7119  0.7089 -1.2907
 6346TIP3    H240530   6.838   0.095   1.027 -0.4292  0.7287  0.2548
 6347TIP3   OH240531   3.842   4.438  12.081  0.7382 -0.0183 -0.3444
 6347TIP3    H140532   3.914   4.400  12.131  1.0146  0.2790 -0.5157
 6347TIP3    H240533   3.798   4.362  12.042  0.7480 -0.2231  0.0402
 6348TIP3   OH240534   3.863   1.020  15.521  0.0763 -0.7612 -0.0191
 6348TIP3    H140535   3.862   0.949  15.457 -0.1871 -1.3434  0.6179
 6348TIP3    H240536   3.843   1.099  15.471 -0.4519 -1.2569 -0.5947
 6349TIP3   OH240537   4.908   2.586  11.511 -0.1256  0.3862  0.2639
 6349TIP3    H140538   4.908   2.522  11.440 -0.7598 -0.1610  0.7388
 6349TIP3    H240539   4.990   2.635  11.500 -0.6155  0.8862 -1.3335
 6350TIP3   OH240540   2.855   4.973  11.300 -0.3237  0.6751  0.4127
 6350TIP3    H140541   2.780   4.924  11.267 -0.6180 -1.0180  3.3051
 6350TIP3    H240542   2.931   4.924  11.268 -0.4911  0.8084 -0.2121
 6351TIP3   OH240543   4.043   7.069   5.315  0.2775 -0.2044 -0.6369
 6351TIP3    H140544   4.105   7.120   5.263  0.9565 -1.6807 -1.3336
 6351TIP3    H240545   4.080   6.981   5.317 -1.6982 -1.0934 -0.9271
 6352TIP3   OH240546   7.148   3.123  10.989 -0.1757 -0.1366  0.5714
 6352TIP3    H140547   7.103   3.054  10.940  0.4132 -2.0139  2.5036
 6352TIP3    H240548   7.223   3.079  11.030  2.8661  2.5753 -1.5162
 6353TIP3   OH240549   2.312   5.066   1.571  0.1386 -0.6114 -0.6674
 6353TIP3    H140550   2.302   5.009   1.647  1.3118 -1.3719 -1.0552
 6353TIP3    H240551   2.355   5.011   1.506 -1.3598 -0.1556 -2.1120
 6354TIP3   OH240552   3.552   2.741   1.461 -0.0121  0.0595 -0.0257
 6354TIP3    H140553   3.505   2.684   1.523 -2.1191 -0.1039 -1.6674
 6354TIP3    H240554   3.611   2.682   1.415  1.3192  0.1198  1.4997
 6355TIP3   OH240555   6.131   5.353  15.041 -0.2367 -0.4972  0.5112
 6355TIP3    H140556   6.040   5.382  15.033  0.2059  0.7155 -0.5287
 6355TIP3    H240557   6.162   5.346  14.951 -0.0054 -3.4438  0.7111
 6356TIP3   OH240558   6.234   3.613  12.382 -0.0095 -0.0049  0.1146
 6356TIP3    H140559   6.166   3.631  12.447  0.1309  1.8948 -0.2081
 6356TIP3    H240560   6.214   3.672  12.310  1.8102  0.3984 -0.1047
 6357TIP3   OH240561   3.501   7.055  13.671 -0.2679  0.4680 -0.2355
 6357TIP3    H140562   3.499   7.140  13.715 -0.7695 -0.2037  1.0941
 6357TIP3    H240563   3.421   7.011  13.699 -0.8240  0.1458 -2.1684
 6358TIP3   OH240564   6.390   5.964   1.117  0.2719  0.0783  0.1613
 6358TIP3    H140565   6.381   5.976   1.022  0.4755 -1.5865 -0.0941
 6358TIP3    H240566   6.461   6.024   1.141  2.2246 -1.5042 -1.2720
 6359TIP3   OH240567   1.281   0.107  12.027 -0.1879  0.2421 -0.0421
 6359TIP3    H140568   1.340   0.049  12.076 -1.2328  0.5310  1.6466
 6359TIP3    H240569   1.223   0.047  11.979  1.4774 -0.0446 -1.8383
 6360TIP3   OH240570   4.392   0.929  11.669 -0.2356 -0.1572  0.7020
 6360TIP3    H140571   4.322   0.980  11.628 -0.2578 -0.8789 -0.1977
 6360TIP3    H240572   4.455   0.994  11.698 -0.8702  0.4533  0.7343
 6361TIP3   OH240573   1.405   2.764  10.901  0.4736  0.2120  0.5371
 6361TIP3    H140574   1.361   2.753  10.986 -1.4707  0.3455 -0.3975
 6361TIP3    H240575   1.415   2.858  10.891 -2.8819  0.5309 -1.0120
 6362TIP3   OH240576   0.727   0.515   1.671 -0.0452  0.1320  0.0905
 6362TIP3    H140577   0.818   0.542   1.655  0.2488  0.8103  2.4057
 6362TIP3    H240578   0.686   0.592   1.709 -0.9125 -0.8439  1.2333
 6363TIP3   OH240579   2.499   3.374  14.599 -0.3395 -0.2673  0.1118
 6363TIP3    H140580   2.512   3.324  14.519 -0.3360 -1.0956  0.6248
 6363TIP3    H240581   2.408   3.404  14.595  0.3699  1.9530 -1.4486
 6364TIP3   OH240582   6.812   3.477  12.290 -0.4326  0.6905 -0.3670
 6364TIP3    H140583   6.731   3.430  12.312 -0.5292  0.5961 -0.9065
 6364TIP3    H240584   6.782   3.558  12.248 -0.2525  0.8578 -0.1731
 6365TIP3   OH240585   1.233   5.194  14.742 -0.4062 -0.6104 -0.8303
 6365TIP3    H140586   1.288   5.206  14.666 -2.2383 -1.6798 -2.4226
 6365TIP3    H240587   1.263   5.111  14.781  0.4662 -0.1108 -0.4176
 6366TIP3   OH240588   2.868   4.335  13.471 -0.8818 -0.8473  0.0819
 6366TIP3    H140589   2.937   4.269  13.480  0.2499  0.3462  0.6054
 6366TIP3    H240590   2.873   4.363  13.380  0.2150  0.1104  0.4052
 6367TIP3   OH240591   6.327   0.064   2.466 -0.0844 -0.3139  0.7876
 6367TIP3    H140592   6.409   0.095   2.505  0.6363 -0.8490 -0.2434
 6367TIP3    H240593   6.312  -0.021   2.507 -0.6055  0.1824  1.6309
 6368TIP3   OH240594   0.874   4.693   1.805 -0.1712 -0.0751 -0.0231
 6368TIP3    H140595   0.851   4.777   1.843 -1.0246  0.3293 -1.3630
 6368TIP3    H240596   0.969   4.693   1.803 -0.1378  1.7219 -1.7530
 6369TIP3   OH240597   5.498   4.079   0.446  0.2009  0.6027  0.1021
 6369TIP3    H140598   5.544   4.037   0.373 -0.8668 -0.7559  0.1737
 6369TIP3    H240599   5.413   4.036   0.448 -0.0976  1.2210  1.6282
 6370TIP3   OH240600   5.410   0.024   1.224 -0.7017 -0.1275 -0.2276
 6370TIP3    H140601   5.363  -0.026   1.290 -1.5794 -0.3097 -0.9728
 6370TIP3    H240602   5.364   0.007   1.143  0.9563 -0.7108 -1.1029
 6371TIP3   OH240603   3.208   5.401   5.734 -0.6402 -0.0872 -0.2752
 6371TIP3    H140604   3.154   5.477   5.755  0.3876  0.7229 -0.4492
 6371TIP3    H240605   3.166   5.363   5.656 -1.4277  0.0191  0.0892
 6372TIP3   OH240606   2.886   1.619  10.060 -0.6041 -0.2818  0.0598
 6372TIP3    H140607   2.860   1.686   9.997 -1.4667 -0.4172  0.2500
 6372TIP3    H240608   2.967   1.582  10.025 -1.7378 -1.2661 -1.6644
 6373TIP3   OH240609   6.896   0.698   0.006  0.6080  0.2143  0.0003
 6373TIP3    H140610   6.965   0.753   0.044 -2.0169  5.1866 -1.4621
 6373TIP3    H240611   6.832   0.687   0.076 -0.0416  1.4694 -0.3515
 6374TIP3   OH240612   0.046   0.251  12.005 -0.6368  0.3790 -0.4999
 6374TIP3    H140613   0.112   0.224  12.069 -0.5680 -1.4201 -1.2810
 6374TIP3    H240614  -0.034   0.264  12.056 -0.2025  0.5061  0.1544
 6375TIP3   OH240615   2.564   3.266   1.147  0.2558 -0.1031 -0.2384
 6375TIP3    H140616   2.529   3.348   1.112 -0.5921  0.2634  1.3536
 6375TIP3    H240617   2.646   3.291   1.188 -0.1741  0.0453  0.5585
 6376TIP3   OH240618   4.063   1.238  14.363 -0.3883  0.1745 -0.1649
 6376TIP3    H140619   4.044   1.144  14.356 -1.1632  0.3559 -0.5590
 6376TIP3    H240620   4.040   1.273  14.277 -0.6377  0.8186  0.1598
 6377TIP3   OH240621   2.040   0.477   0.551  0.4090 -0.3851 -0.2060
 6377TIP3    H140622   2.056   0.393   0.593  1.8776 -0.8262 -1.5673
 6377TIP3    H240623   2.006   0.456   0.464 -0.1649  0.4557 -0.2055
 6378TIP3   OH240624   0.057   3.281   3.495 -0.2356 -0.5146 -1.4841
 6378TIP3    H140625   0.013   3.335   3.561  2.9620  1.1615 -0.5301
 6378TIP3    H240626  -0.002   3.283   3.420 -1.8178  1.4916 -0.2989
 6379TIP3   OH240627   1.277   3.286  12.139  0.1774  0.5122  0.5300
 6379TIP3    H140628   1.288   3.327  12.053 -1.2327  1.8620  0.9454
 6379TIP3    H240629   1.295   3.356  12.201  2.1685 -0.7038  1.4165
 6380TIP3   OH240630   5.755   0.593   3.820 -0.4856  0.2476  0.6691
 6380TIP3    H140631   5.811   0.557   3.889  0.3720  1.7486  0.7985
 6380TIP3    H240632   5.703   0.519   3.790  1.7260 -1.2688  0.3776
 6381TIP3   OH240633   1.457   6.687  10.416 -0.7620 -0.2074  0.4069
 6381TIP3    H140634   1.485   6.778  10.427  0.7925 -0.6523  0.3129
 6381TIP3    H240635   1.363   6.693  10.399 -0.3301  1.5719 -1.9834
 6382TIP3   OH240636   5.474   5.712   4.151  0.0020 -0.2674  0.0039
 6382TIP3    H140637   5.486   5.617   4.147 -0.0780 -0.2716 -0.1683
 6382TIP3    H240638   5.382   5.725   4.128  0.3596 -0.0557 -1.3899
 6383TIP3   OH240639   1.272   3.971  12.082 -0.4571  0.2227  0.3792
 6383TIP3    H140640   1.316   3.888  12.067  0.9019  0.3152  3.1722
 6383TIP3    H240641   1.336   4.037  12.055 -0.8507  0.3711 -0.1999
 6384TIP3   OH240642   3.142   6.657  15.076 -0.0937 -0.3809  0.0304
 6384TIP3    H140643   3.208   6.641  15.008 -3.7072  0.3095 -4.0947
 6384TIP3    H240644   3.168   6.740  15.116  2.1111 -0.7222 -0.5513
 6385TIP3   OH240645   1.187   2.847   4.160 -0.1751  0.0265 -0.7510
 6385TIP3    H140646   1.164   2.822   4.249 -1.2000 -2.2309 -1.5719
 6385TIP3    H240647   1.282   2.860   4.162  0.2809 -2.7737  0.1395
 6386TIP3   OH240648   5.017   6.102  11.091 -0.3722 -0.4540  0.5462
 6386TIP3    H140649   4.960   6.113  11.168 -0.8349  3.0813 -0.1238
 6386TIP3    H240650   4.962   6.128  11.017  0.9701 -0.7733 -0.5992
 6387TIP3   OH240651   6.326   3.923  10.060 -0.1523 -0.4681 -0.2025
 6387TIP3    H140652   6.397   3.972  10.102 -1.4005  1.2294  0.0844
 6387TIP3    H240653   6.366   3.881   9.984  1.5451 -1.1924  1.0331
 6388TIP3   OH240654   6.694   6.363   9.552  0.0846 -0.4426 -1.0680
 6388TIP3    H140655   6.775   6.396   9.590 -1.0628  0.7029  0.5221
 6388TIP3    H240656   6.690   6.271   9.579  0.2897 -0.1916 -0.1663
 6389TIP3   OH240657   0.423   5.880   4.985  0.3213 -0.2491 -0.1478
 6389TIP3    H140658   0.451   5.871   4.894  1.0761  0.4479 -0.0066
 6389TIP3    H240659   0.329   5.862   4.984 -0.1081  1.7103 -1.4145
 6390TIP3   OH240660   5.392   7.017  10.879  0.2257 -0.9002 -0.1816
 6390TIP3    H140661   5.438   6.954  10.823 -1.6291 -1.8707 -0.6759
 6390TIP3    H240662   5.384   7.096  10.825  2.7967 -0.0386  0.5343
 6391TIP3   OH240663   0.211   3.829  15.267 -0.0251 -0.2940  0.6933
 6391TIP3    H140664   0.121   3.805  15.289 -0.8933  1.2249 -0.9596
 6391TIP3    H240665   0.251   3.747  15.237 -1.5960 -0.5770 -0.7852
 6392TIP3   OH240666   2.523   3.901  12.862  0.1850 -0.5743 -0.2002
 6392TIP3    H140667   2.556   3.873  12.947  0.4435 -0.6406 -0.3198
 6392TIP3    H240668   2.427   3.896  12.870  0.2104 -0.6448  0.0621
 6393TIP3   OH240669   4.429   4.499  10.316  0.6089 -0.5035  0.0808
 6393TIP3    H140670   4.368   4.451  10.373  0.0464 -0.8844 -0.8214
 6393TIP3    H240671   4.420   4.457  10.231  1.6440 -0.1167 -0.2333
 6394TIP3   OH240672   0.690   1.524  12.072  0.6589  0.2397 -0.1334
 6394TIP3    H140673   0.742   1.454  12.031  0.2317  0.3498 -0.8672
 6394TIP3    H240674   0.608   1.481  12.097 -0.2368  0.7798 -1.9521
 6395TIP3   OH240675   4.090   5.304   2.610  0.1763  0.1746 -0.1188
 6395TIP3    H140676   4.175   5.345   2.626 -0.7091  2.5315 -1.0777
 6395TIP3    H240677   4.092   5.282   2.517 -0.4411  0.6857 -0.2543
 6396TIP3   OH240678   1.971   4.335   0.567  0.1499 -0.0569 -0.0612
 6396TIP3    H140679   1.882   4.359   0.541  0.6725  0.7876 -1.1450
 6396TIP3    H240680   1.987   4.386   0.647 -1.2378 -2.1981  1.7000
 6397TIP3   OH240681   3.168   6.053   1.666 -0.6509 -0.2000 -0.4354
 6397TIP3    H140682   3.103   6.089   1.606  0.5240 -0.4923 -1.9379
 6397TIP3    H240683   3.164   6.110   1.743 -0.9554  1.2677 -1.5007
 6398TIP3   OH240684   6.343   2.271  14.809  0.0359 -0.5484  1.0054
 6398TIP3    H140685   6.247   2.271  14.812 -0.0795  1.3366 -0.6083
 6398TIP3    H240686   6.364   2.293  14.718  2.0310 -1.8046  1.1052
 6399TIP3   OH240687   3.152   4.595  11.995  0.2754  0.0836  0.3297
 6399TIP3    H140688   3.240   4.632  12.004  1.2356 -1.4779 -1.6951
 6399TIP3    H240689   3.101   4.638  12.063  2.2221  2.1766  0.6070
 6400TIP3   OH240690   3.061   0.766  10.388 -0.1371  0.8724 -0.0900
 6400TIP3    H140691   2.976   0.803  10.367  0.5809  0.9407 -3.4023
 6400TIP3    H240692   3.048   0.671  10.384  0.2407  0.8733 -2.3869
 6401TIP3   OH240693   2.755   5.756   1.460 -0.1911  0.1483  0.0761
 6401TIP3    H140694   2.722   5.831   1.410 -1.5621  0.0129  0.7458
 6401TIP3    H240695   2.723   5.679   1.413  0.5497 -0.0251 -0.1636
 6402TIP3   OH240696   4.977   4.815  14.726 -0.3117  0.1198  0.4301
 6402TIP3    H140697   4.907   4.825  14.661  0.9888 -0.9480 -1.2281
 6402TIP3    H240698   5.035   4.890  14.710 -1.4420  1.5029  2.3919
 6403TIP3   OH240699   6.922   5.236  13.034  0.4689  0.0427 -0.4885
 6403TIP3    H140700   6.837   5.215  12.996 -0.0201  0.5125  0.3093
 6403TIP3    H240701   6.901   5.291  13.109  1.5165  0.6532 -0.6264
 6404TIP3   OH240702   7.104   4.985  10.294 -0.3231  0.2454  0.6011
 6404TIP3    H140703   7.080   5.052  10.231  0.5152 -1.5454 -1.7443
 6404TIP3    H240704   7.136   4.912  10.242  0.4799 -1.3478  3.1087
 6405TIP3   OH240705   3.594   1.289  12.517 -0.3099  0.2864 -0.4678
 6405TIP3    H140706   3.579   1.361  12.455  0.0996  0.2646 -0.5964
 6405TIP3    H240707   3.686   1.266  12.505 -1.0968 -2.2276 -2.5427
 6406TIP3   OH240708   0.051   3.525   9.772  0.2712 -0.4207 -0.5100
 6406TIP3    H140709   0.025   3.616   9.776 -2.4571 -1.1611  0.6103
 6406TIP3    H240710   0.104   3.511   9.851  0.3152  0.0803 -0.4505
 6407TIP3   OH240711   2.845   1.179  11.917 -0.3793  0.1391  0.3957
 6407TIP3    H140712   2.860   1.273  11.903 -0.8952  0.1067 -0.4154
 6407TIP3    H240713   2.918   1.152  11.972  0.6232  0.7129 -0.5992
 6408TIP3   OH240714   6.861   0.035  10.722 -0.4500  0.5141 -0.0635
 6408TIP3    H140715   6.859   0.108  10.785 -0.4061  1.3571 -1.0191
 6408TIP3    H240716   6.829   0.072  10.640  0.5130 -0.2821 -0.8351
 6409TIP3   OH240717   0.168   5.900  10.830  0.3257 -0.0850  0.0298
 6409TIP3    H140718   0.225   5.969  10.795  0.0084 -0.9424 -2.3717
 6409TIP3    H240719   0.206   5.818  10.799 -1.2286 -0.7758 -0.1773
 6410TIP3   OH240720   3.750   0.872   1.507  0.0950  0.4968 -0.1434
 6410TIP3    H140721   3.837   0.898   1.538 -0.4526 -0.1871  2.1217
 6410TIP3    H240722   3.690   0.915   1.567 -1.1647  0.6162 -1.4357
 6411TIP3   OH240723   5.574   5.229   2.832 -0.6156  0.2921 -0.5910
 6411TIP3    H140724   5.632   5.253   2.904  1.3300 -2.5571 -1.0470
 6411TIP3    H240725   5.501   5.185   2.874 -1.1009  1.4215 -0.2072
 6412TIP3   OH240726   6.154   0.354   0.210 -0.2329 -0.4397 -0.4245
 6412TIP3    H140727   6.106   0.275   0.232  0.4584 -0.6632  0.3346
 6412TIP3    H240728   6.092   0.406   0.159 -1.5357 -0.3960  1.1130
 6413TIP3   OH240729   6.666   2.899  10.032  0.6538  0.0904  0.0890
 6413TIP3    H140730   6.699   2.986  10.010  2.2337  0.3110  2.8195
 6413TIP3    H240731   6.607   2.876   9.961  0.9153  2.9949 -1.1772
 6414TIP3   OH240732   2.182   1.929   5.788  0.5960 -0.2920 -0.2501
 6414TIP3    H140733   2.249   1.977   5.837  2.4383  0.4161 -3.2209
 6414TIP3    H240734   2.142   1.995   5.731  1.0249 -1.6660 -2.2169
 6415TIP3   OH240735   5.259   6.973  13.515  0.2346 -0.3995 -0.0037
 6415TIP3    H140736   5.259   7.068  13.503  1.1533 -0.4483 -0.4796
 6415TIP3    H240737   5.313   6.960  13.593  0.0345 -0.5278  0.1129
 6416TIP3   OH240738   0.702   0.134   3.860 -0.3303  0.0743 -0.0683
 6416TIP3    H140739   0.708   0.048   3.817 -0.8070 -1.1616  2.1460
 6416TIP3    H240740   0.642   0.184   3.805  0.9107 -0.5554 -2.0817
 6417TIP3   OH240741   3.920   5.103  13.374  0.6276 -0.1100  0.0006
 6417TIP3    H140742   3.933   5.194  13.347  0.0623  0.4146  1.3583
 6417TIP3    H240743   3.830   5.101  13.408  0.8693 -0.9987  0.6249
 6418TIP3   OH240744   5.752   6.452   1.056  0.2278  0.2742 -0.5319
 6418TIP3    H140745   5.781   6.540   1.080  0.3873  0.3453 -0.9672
 6418TIP3    H240746   5.796   6.434   0.973 -0.1219 -0.0527 -0.6514
 6419TIP3   OH240747   3.369   2.379  13.460 -0.4203 -0.2973 -0.2894
 6419TIP3    H140748   3.415   2.335  13.531  0.0827  0.1203 -0.3503
 6419TIP3    H240749   3.279   2.347  13.466 -0.1852 -0.9305 -0.0117
 6420TIP3   OH240750   0.977   4.207  12.444  0.3995  0.5344  0.0885
 6420TIP3    H140751   1.049   4.146  12.437 -0.9989 -1.4466  1.7052
 6420TIP3    H240752   0.964   4.240  12.355  0.7587 -2.1137 -1.0405
 6421TIP3   OH240753   5.516   0.409  10.593 -0.5560  0.2613 -0.5303
 6421TIP3    H140754   5.539   0.498  10.564 -2.3494  0.4761 -1.4252
 6421TIP3    H240755   5.505   0.360  10.513  2.9526 -1.5971 -0.0830
 6422TIP3   OH240756   1.470   6.362   2.892  0.0835 -0.4180 -0.2073
 6422TIP3    H140757   1.476   6.387   2.800 -0.5764 -0.1607 -0.1805
 6422TIP3    H240758   1.379   6.334   2.905  0.2716 -0.8470  0.2691
 6423TIP3   OH240759   1.749   6.774  14.896  0.5652 -0.1797 -0.4898
 6423TIP3    H140760   1.810   6.843  14.870  0.6030  0.6256  1.5910
 6423TIP3    H240761   1.673   6.785  14.838  1.3644  0.3407 -1.4712
 6424TIP3   OH240762   2.705   1.743  14.736 -0.3179 -0.1737  0.1570
 6424TIP3    H140763   2.665   1.658  14.720  1.3384 -1.0059  0.1943
 6424TIP3    H240764   2.695   1.758  14.830  0.1700 -0.7648  0.3098
 6425TIP3   OH240765   2.022   6.888   2.476  0.4870 -0.5546 -0.3316
 6425TIP3    H140766   2.075   6.929   2.544 -0.8981  1.1158 -0.2033
 6425TIP3    H240767   1.936   6.878   2.515  0.0705 -0.9865 -1.3332
 6426TIP3   OH240768   2.534   1.300  12.798 -0.3020  0.0364 -0.5577
 6426TIP3    H140769   2.471   1.250  12.745  0.1315  1.4107 -2.4883
 6426TIP3    H240770   2.515   1.392  12.776  0.9243  0.5803  0.5426
 6427TIP3   OH240771   0.094   4.949   2.271  0.5862 -0.5231 -0.5408
 6427TIP3    H140772   0.080   5.040   2.296 -0.8231 -1.0960  0.8877
 6427TIP3    H240773   0.166   4.920   2.326 -2.6945 -1.8718  3.5757
 6428TIP3   OH240774   5.651   1.851  10.819 -0.5935  0.1459 -0.1398
 6428TIP3    H140775   5.685   1.925  10.869  1.3255 -1.6553  1.3753
 6428TIP3    H240776   5.556   1.862  10.822 -0.4947  0.9805  2.5887
 6429TIP3   OH240777   3.994   0.139  15.315  0.2898 -0.4970 -0.0371
 6429TIP3    H140778   3.967   0.067  15.371  1.2442 -1.1583 -0.4160
 6429TIP3    H240779   3.998   0.215  15.373 -0.1335 -0.8639  0.4833
 6430TIP3   OH240780   5.626   5.344  13.525 -0.5062  0.2296 -0.1139
 6430TIP3    H140781   5.634   5.248  13.532 -2.1235  0.0747 -0.1062
 6430TIP3    H240782   5.568   5.358  13.450 -0.0259  1.2314 -0.3125
 6431TIP3   OH240783   5.032   6.837   4.311 -0.2189  0.3644 -0.3827
 6431TIP3    H140784   4.937   6.848   4.307 -0.0277  1.6166 -2.2309
 6431TIP3    H240785   5.046   6.745   4.288 -0.9571  0.2325 -0.3368
 6432TIP3   OH240786   0.231   7.110  10.508  0.1218 -0.3646  0.3308
 6432TIP3    H140787   0.201   7.028  10.468 -2.2246  0.7243 -0.3377
 6432TIP3    H240788   0.167   7.127  10.577  0.5609  0.9313  0.4406
 6433TIP3   OH240789   1.567   3.946   1.418  0.1969 -0.1844  0.0815
 6433TIP3    H140790   1.566   4.004   1.494 -0.2823 -1.2696  0.9284
 6433TIP3    H240791   1.644   3.891   1.431  0.0769 -0.4180 -0.1981
 6434TIP3   OH240792   1.468   2.579  12.023  0.0332 -0.7378 -0.5210
 6434TIP3    H140793   1.382   2.564  11.983 -0.1429 -0.4922 -0.2483
 6434TIP3    H240794   1.465   2.671  12.049  1.0877 -0.1892 -2.1917
 6435TIP3   OH240795   3.096   7.068   4.787 -0.1682  0.1244  0.3746
 6435TIP3    H140796   3.110   7.108   4.701 -2.7851  0.9444  0.2259
 6435TIP3    H240797   3.136   7.129   4.849 -1.9794  1.8525 -0.0312
 6436TIP3   OH240798   2.895   3.873   3.932 -0.1189  0.9575 -0.0061
 6436TIP3    H140799   2.915   3.847   4.022 -0.3850  0.0347 -0.2064
 6436TIP3    H240800   2.980   3.901   3.897 -0.1889  2.2960  0.8270
 6437TIP3   OH240801   3.246   2.831  14.096 -0.3097 -0.1147 -0.5726
 6437TIP3    H140802   3.174   2.893  14.086 -1.2997 -1.3904 -1.7010
 6437TIP3    H240803   3.210   2.747  14.067  1.1232 -1.1436  0.4723
 6438TIP3   OH240804   3.954   6.458  15.539 -0.0579  0.2731  0.1648
 6438TIP3    H140805   3.963   6.550  15.565 -0.0151  0.2282  0.3078
 6438TIP3    H240806   3.864   6.435  15.562 -0.4549  0.6234 -0.9535
 6439TIP3   OH240807   1.351   1.647  14.877  0.6253  0.2295  0.3546
 6439TIP3    H140808   1.311   1.674  14.960  0.0631 -1.9364  0.8568
 6439TIP3    H240809   1.367   1.729  14.830  1.0206  1.5277  2.6090
 6440TIP3   OH240810   0.608   2.275   5.223 -0.2355  0.0093 -0.2440
 6440TIP3    H140811   0.645   2.269   5.311 -1.8728  1.0451  0.5659
 6440TIP3    H240812   0.560   2.193   5.211 -0.7043  0.2217  0.1715
 6441TIP3   OH240813   3.679   7.139  11.767  0.1269 -0.1665  0.0703
 6441TIP3    H140814   3.618   7.143  11.840  1.3294  0.6578  1.0695
 6441TIP3    H240815   3.627   7.104  11.694 -1.2168 -0.5470  1.1752
 6442TIP3   OH240816   2.839   6.673  11.546  0.6317  0.1197 -0.1043
 6442TIP3    H140817   2.816   6.583  11.524  1.6923 -0.2068  0.1104
 6442TIP3    H240818   2.867   6.712  11.463 -3.4877  1.4767 -1.1018
 6443TIP3   OH240819   0.090   3.573   2.066 -0.0758 -0.4208  0.1057
 6443TIP3    H140820   0.148   3.564   1.990  2.6826  0.5049  1.9320
 6443TIP3    H240821   0.093   3.487   2.109  0.0645 -0.3369  0.2659
 6444TIP3   OH240822   2.270   6.495  12.107 -0.2731  0.4353  0.0523
 6444TIP3    H140823   2.197   6.549  12.136  0.3662  0.7593  1.0886
 6444TIP3    H240824   2.275   6.509  12.012 -0.2116  2.0909  0.2791
 6445TIP3   OH240825   4.526   1.023  12.694  0.3390  0.0919 -0.4866
 6445TIP3    H140826   4.502   1.101  12.643  0.8011  1.1796  0.8892
 6445TIP3    H240827   4.615   1.002  12.666  0.4187  0.4063 -0.4708
 6446TIP3   OH240828   5.745   1.477   9.913 -0.5022 -0.2707 -0.5034
 6446TIP3    H140829   5.739   1.384   9.935 -0.6109 -0.3393 -0.8212
 6446TIP3    H240830   5.718   1.482   9.821 -1.0859  0.1530 -0.3199
 6447TIP3   OH240831   1.820   6.546  11.767 -0.2583  0.6022 -0.2007
 6447TIP3    H140832   1.734   6.505  11.767 -0.3688  0.7928  1.3482
 6447TIP3    H240833   1.803   6.640  11.755 -0.2436  0.5905 -0.3099
 6448TIP3   OH240834   5.860   1.093   2.655 -0.0020 -0.1616  0.1497
 6448TIP3    H140835   5.854   1.139   2.739 -2.3853  0.4712 -0.2913
 6448TIP3    H240836   5.821   1.007   2.672 -0.9224  0.1337 -0.3663
 6449TIP3   OH240837   5.668   6.144  12.524  0.3211  0.1837 -0.2960
 6449TIP3    H140838   5.576   6.163  12.507  0.6890  2.2593 -0.2662
 6449TIP3    H240839   5.677   6.158  12.619  1.0772  2.2163 -0.6181
 6450TIP3   OH240840   5.409   6.501   2.501 -0.5640 -0.4366 -0.0033
 6450TIP3    H140841   5.378   6.583   2.539 -1.3614 -0.8364  0.2250
 6450TIP3    H240842   5.501   6.518   2.481 -0.3696  0.1080  1.2179
 6451TIP3   OH240843   0.907   2.250  13.021 -0.4371 -0.0612 -0.3944
 6451TIP3    H140844   0.968   2.264  13.094 -0.9428 -1.0083  0.2304
 6451TIP3    H240845   0.954   2.191  12.961 -0.3414  0.0481 -0.4278
 6452TIP3   OH240846   5.540   5.569  14.368 -1.0055 -0.1126 -0.2506
 6452TIP3    H140847   5.466   5.537  14.317 -1.8192  1.3922 -0.0965
 6452TIP3    H240848   5.508   5.650  14.407  0.5397  0.2627  0.3094
 6453TIP3   OH240849   7.151   1.216  10.747  0.2014  0.0031 -0.5327
 6453TIP3    H140850   7.092   1.153  10.705 -1.3274 -1.1609  2.9786
 6453TIP3    H240851   7.097   1.292  10.765  0.7530  0.3983 -0.5205
 6454TIP3   OH240852   5.452   6.262  11.069 -0.1697 -0.4486  0.3215
 6454TIP3    H140853   5.432   6.180  11.114 -0.5188 -0.2976  0.4487
 6454TIP3    H240854   5.531   6.295  11.113  1.0657 -1.6127 -0.9343
 6455TIP3   OH240855   2.945   6.983  11.541 -0.6884  0.2725  0.4505
 6455TIP3    H140856   2.947   6.914  11.607 -1.5570 -0.1484  0.0580
 6455TIP3    H240857   2.939   6.935  11.458  1.0204  0.7673 -0.0049
 6456TIP3   OH240858   5.214   5.315  11.542  0.0574 -0.0609  0.1961
 6456TIP3    H140859   5.148   5.267  11.492 -1.9768  2.2035  0.5023
 6456TIP3    H240860   5.173   5.400  11.561  2.4245  0.8165  1.9406
 6457TIP3   OH240861   4.967   5.455   2.637  0.6665  0.0907 -0.4028
 6457TIP3    H140862   4.906   5.493   2.700  2.5790 -1.9568  3.0292
 6457TIP3    H240863   4.912   5.401   2.580 -0.9739 -0.1518  1.3113
 6458TIP3   OH240864   3.159   1.238  10.191  0.1998  0.4770  0.0436
 6458TIP3    H140865   3.069   1.206  10.194  0.3191  0.2312  1.0336
 6458TIP3    H240866   3.176   1.249  10.097 -1.2870  1.7507 -0.1244
 6459TIP3   OH240867   0.259   3.173   0.302 -0.3479 -0.3817  0.0389
 6459TIP3    H140868   0.280   3.096   0.249  0.6638 -0.7208  0.8887
 6459TIP3    H240869   0.198   3.224   0.248 -2.5684 -2.6687  0.2008
 6460TIP3   OH240870   6.044   3.994  12.035  0.8055 -1.0386 -0.8871
 6460TIP3    H140871   5.958   3.959  12.013 -0.8439  1.0546  1.6041
 6460TIP3    H240872   6.052   4.072  11.981  0.2505 -0.2118  0.1874
 6461TIP3   OH240873   0.908   3.322  10.001 -0.3056  0.2578  0.1680
 6461TIP3    H140874   0.923   3.402   9.951 -0.8806 -0.5733 -1.4118
 6461TIP3    H240875   0.922   3.252   9.938 -2.6144 -0.7981  0.7205
 6462TIP3   OH240876   4.896   5.467  11.782  0.1311 -0.8939 -0.0745
 6462TIP3    H140877   4.936   5.388  11.818  1.1804  0.0546  0.9228
 6462TIP3    H240878   4.913   5.535  11.848 -1.8346 -0.1007 -0.3245
 6463TIP3   OH240879   1.874   2.777  13.023  0.1079 -0.3577  0.3430
 6463TIP3    H140880   1.941   2.724  13.066 -1.1664 -1.5028  0.9911
 6463TIP3    H240881   1.797   2.719  13.018 -1.5058  1.5683  1.5233
 6464TIP3   OH240882   4.348   6.269  10.551 -0.0014 -0.0057 -0.2034
 6464TIP3    H140883   4.407   6.342  10.529  1.4442 -1.4578 -1.3592
 6464TIP3    H240884   4.271   6.283  10.495  0.4064  0.4421 -0.6639
 6465TIP3   OH240885   0.830   2.479  11.908  0.1306  0.0823 -0.0127
 6465TIP3    H140886   0.891   2.539  11.952 -0.9101  0.1426  1.4190
 6465TIP3    H240887   0.798   2.529  11.833  1.9114 -0.0058 -0.8929
 6466TIP3   OH240888   6.887   6.102  11.856  0.2150  0.5338  0.0120
 6466TIP3    H140889   6.884   6.189  11.818  0.7084 -0.0183 -1.3713
 6466TIP3    H240890   6.854   6.044  11.787 -1.1200 -0.2747  1.2729
 6467TIP3   OH240891   1.887   5.475  11.876 -0.0756  0.5930 -0.5475
 6467TIP3    H140892   1.793   5.460  11.864 -0.1381  0.0199  0.5471
 6467TIP3    H240893   1.894   5.516  11.962  0.7396 -0.0497 -0.2958
 6468TIP3   OH240894   0.179   6.511  10.413 -0.2048  0.1852 -0.3563
 6468TIP3    H140895   0.183   6.582  10.477 -1.5921  0.8686 -0.9770
 6468TIP3    H240896   0.131   6.549  10.339 -1.2936 -1.5044 -0.5695
 6469TIP3   OH240897   2.517   1.202  13.084  0.2382 -1.1160  0.0507
 6469TIP3    H140898   2.427   1.188  13.054  0.1515  0.4811 -0.5333
 6469TIP3    H240899   2.532   1.296  13.072  1.6554 -1.1744  1.0743
 6470TIP3   OH240900   3.753   2.358   4.584 -0.3183  0.1336 -0.4933
 6470TIP3    H140901   3.719   2.296   4.519  0.3447  0.2546 -0.9621
 6470TIP3    H240902   3.847   2.360   4.569 -0.0631 -0.3225  0.9076
 6471TIP3   OH240903   2.507   6.403  10.326 -0.0007  0.3317  0.1669
 6471TIP3    H140904   2.548   6.363  10.249 -0.5034  0.9508 -0.4318
 6471TIP3    H240905   2.453   6.473  10.291  0.9232  1.6238  1.1994
 6472TIP3   OH240906   1.870   0.512   3.229  0.2933  0.5114 -0.0973
 6472TIP3    H140907   1.818   0.584   3.196  0.2655  0.8235  0.6098
 6472TIP3    H240908   1.848   0.438   3.172  0.7901  1.1970 -1.2242
 6473TIP3   OH240909   4.488   5.866  12.743  0.5959  0.5520  0.4480
 6473TIP3    H140910   4.528   5.811  12.676 -0.2265  1.0041 -0.4260
 6473TIP3    H240911   4.552   5.935  12.759  1.2763 -0.1690  0.9561
 6474TIP3   OH240912   3.706   5.714   5.632  0.1860  0.1772  0.2272
 6474TIP3    H140913   3.788   5.753   5.663  0.9871 -1.1552 -0.0870
 6474TIP3    H240914   3.660   5.786   5.589  0.6477  1.2284  1.4282
 6475TIP3   OH240915   0.193   1.067  11.921 -0.2975  0.3660 -0.2150
 6475TIP3    H140916   0.131   1.134  11.892 -0.8304  0.4974  1.1648
 6475TIP3    H240917   0.169   1.050  12.012  1.6832  0.3960  0.3570
 6476TIP3   OH240918   4.188   1.581  11.060  0.2316 -0.4516 -0.1285
 6476TIP3    H140919   4.153   1.493  11.050 -0.8800 -0.1770  1.0228
 6476TIP3    H240920   4.112   1.639  11.049  0.6098  0.2492  0.7541
 6477TIP3   OH240921   4.239   4.626   4.122  0.3638  0.0443  0.3345
 6477TIP3    H140922   4.223   4.537   4.090 -1.5161 -0.3541  2.1328
 6477TIP3    H240923   4.289   4.614   4.202 -0.6004  0.5304  1.0233
 6478TIP3   OH240924   2.627   4.390  13.807  0.5426  0.0238  0.0004
 6478TIP3    H140925   2.579   4.340  13.741  0.9413  1.1667 -1.1888
 6478TIP3    H240926   2.578   4.472  13.815  0.6816  0.0234  0.9067
 6479TIP3   OH240927   6.927   1.677   1.800 -0.5228  0.4450  0.1932
 6479TIP3    H140928   6.855   1.636   1.846 -1.0305  1.4172  0.2887
 6479TIP3    H240929   6.984   1.604   1.773  0.4191 -0.1116  3.3372
 6480TIP3   OH240930   0.716   2.660  13.042 -0.1981 -0.2047  0.0928
 6480TIP3    H140931   0.625   2.679  13.017  0.1426  0.2664 -0.8587
 6480TIP3    H240932   0.756   2.626  12.962  0.3475 -0.8586  0.6351
 6481TIP3   OH240933   5.117   5.335   4.362  0.0217 -0.1411 -0.3388
 6481TIP3    H140934   5.066   5.416   4.355  0.1857 -0.1136 -1.3529
 6481TIP3    H240935   5.117   5.315   4.456 -2.0202 -0.2585 -0.3169
 6482TIP3   OH240936   1.346   6.200   5.821  0.1376  0.0922 -0.0621
 6482TIP3    H140937   1.389   6.217   5.905  0.6380 -0.8577 -0.1179
 6482TIP3    H240938   1.338   6.105   5.816  0.8165  0.0762 -1.4238
 6483TIP3   OH240939   3.906   1.841   9.874 -0.4181 -0.5447  0.3720
 6483TIP3    H140940   3.836   1.898   9.907 -1.4258 -2.7584  2.3464
 6483TIP3    H240941   3.865   1.791   9.804 -0.2113 -0.4363  0.1738
 6484TIP3   OH240942   5.140   6.446  14.980 -0.4567  0.3646 -0.6175
 6484TIP3    H140943   5.128   6.378  15.047  0.2885  0.8936  0.0701
 6484TIP3    H240944   5.134   6.528  15.028  0.3189  0.7421 -1.1550
 6485TIP3   OH240945   3.654   6.960   5.157  0.3818 -0.6144  0.2435
 6485TIP3    H140946   3.705   6.880   5.141  0.8954 -0.0932 -0.7848
 6485TIP3    H240947   3.718   7.023   5.189  0.0460 -0.4841  0.6687
 6486TIP3   OH240948   0.965   4.138  11.094  1.0130  0.3381 -0.1757
 6486TIP3    H140949   0.997   4.191  11.022 -0.1586  1.2208 -0.0807
 6486TIP3    H240950   0.901   4.194  11.138  0.2377 -0.9065  0.3337
 6487TIP3   OH240951   0.751   4.331  11.600 -0.0451  0.2391  0.4943
 6487TIP3    H140952   0.742   4.306  11.692  0.4298  0.0629  0.4964
 6487TIP3    H240953   0.670   4.378  11.580 -0.2689  0.0497  0.9278
 6488TIP3   OH240954   1.339   3.606   1.498 -0.5150  0.1884 -0.6881
 6488TIP3    H140955   1.375   3.612   1.410 -0.1630 -0.2202 -0.5722
 6488TIP3    H240956   1.415   3.591   1.554 -0.6227  1.3255 -0.2025
 6489TIP3   OH240957   6.819   1.072  12.964 -0.0337  0.2851 -0.7064
 6489TIP3    H140958   6.892   1.021  12.931  0.3213 -0.2792  0.8776
 6489TIP3    H240959   6.825   1.156  12.917  1.2488  0.0227 -1.0406
 6490TIP3   OH240960   1.060   2.171  13.743  0.0633 -0.7336 -0.3514
 6490TIP3    H140961   1.062   2.154  13.649 -0.9851 -0.5436 -0.4203
 6490TIP3    H240962   0.968   2.188  13.763 -0.0845 -2.7760  1.0663
 6491TIP3   OH240963   3.496   3.846  10.350  0.4169  0.4783  0.8414
 6491TIP3    H140964   3.574   3.819  10.398  0.0808  0.6817  1.5174
 6491TIP3    H240965   3.528   3.870  10.263  1.0672  0.3062  1.0301
 6492TIP3   OH240966   3.397   3.527  10.639  0.0349 -0.5679 -0.4724
 6492TIP3    H140967   3.455   3.586  10.688 -1.4260  1.5802 -1.2165
 6492TIP3    H240968   3.334   3.584  10.597 -1.4439 -2.6933 -1.3157
 6493TIP3   OH240969   5.530   1.335  11.240 -0.1076  0.7931  0.0808
 6493TIP3    H140970   5.611   1.356  11.193 -0.3587  0.8233 -0.3467
 6493TIP3    H240971   5.465   1.323  11.171 -0.1470 -0.6648  0.3455
 6494TIP3   OH240972   1.035   3.225  15.204  0.2057  0.5815  0.3932
 6494TIP3    H140973   1.014   3.180  15.285 -1.1584 -0.4280 -0.4775
 6494TIP3    H240974   0.951   3.236  15.159  1.1456 -1.1218 -1.9956
 6495TIP3   OH240975   2.022   4.896  14.325 -0.3146 -0.4214  1.0350
 6495TIP3    H140976   1.945   4.903  14.381 -0.5963 -2.1915  0.9289
 6495TIP3    H240977   2.041   4.802  14.321  1.7042 -0.0657  0.8568
 6496TIP3   OH240978   5.077   7.073  13.882 -0.1143  0.3155 -0.6019
 6496TIP3    H140979   5.041   7.027  13.806  0.1854 -2.0577  0.5872
 6496TIP3    H240980   5.019   7.049  13.954 -0.3877  2.5049 -0.0217
 6497TIP3   OH240981   0.012   1.344   0.693 -0.3167 -0.1011 -0.4036
 6497TIP3    H140982  -0.051   1.416   0.700  1.8098  1.9076 -0.3508
 6497TIP3    H240983   0.044   1.331   0.782 -0.1055 -0.5465 -0.5398
 6498TIP3   OH240984   0.543   6.957   4.841  0.1019  0.2052 -0.0403
 6498TIP3    H140985   0.533   6.965   4.747  0.7910 -0.0626 -0.1432
 6498TIP3    H240986   0.454   6.960   4.876 -0.4462 -2.7833 -0.9468
 6499TIP3   OH240987   1.550   2.273  12.402 -0.0143  0.0864  0.0332
 6499TIP3    H140988   1.603   2.311  12.332  0.0674 -2.9063 -1.7325
 6499TIP3    H240989   1.469   2.323  12.401  1.4932  2.6977  0.6238
 6500TIP3   OH240990   5.308   5.006  12.229  0.2090 -0.4535 -0.1545
 6500TIP3    H140991   5.350   5.090  12.249 -1.0935  0.0970  0.3811
 6500TIP3    H240992   5.327   4.991  12.136  0.9234  0.1541 -0.1137
 6501TIP3   OH240993   1.054   1.823   3.525 -0.1211 -0.1489 -0.2511
 6501TIP3    H140994   0.971   1.775   3.528  0.0272 -0.3815  0.1895
 6501TIP3    H240995   1.098   1.791   3.446 -0.7801  0.5316 -0.9062
 6502TIP3   OH240996   4.931   2.360  11.333 -0.0090  0.3293 -0.3374
 6502TIP3    H140997   4.887   2.391  11.253  0.9141  1.1560 -0.5395
 6502TIP3    H240998   5.018   2.332  11.303  0.5729  1.2370  0.4676
 6503TIP3   OH240999   5.050   2.432  12.986  0.5680 -0.1080 -0.3760
 6503TIP3    H141000   4.964   2.418  12.947 -0.0510  0.4215  0.7700
 6503TIP3    H241001   5.037   2.421  13.080  1.7178  0.1205 -0.1707
 6504TIP3   OH241002   2.927   5.973   2.952  0.2602  0.5238  0.0919
 6504TIP3    H141003   2.859   5.918   2.914  0.0642  2.3421 -2.4075
 6504TIP3    H241004   2.996   5.912   2.976 -1.0832 -1.0725  0.1052
 6505TIP3   OH241005   2.860   5.950  12.566  0.4066  0.3217  0.3137
 6505TIP3    H141006   2.901   6.030  12.600  0.0238  1.0343 -0.8408
 6505TIP3    H241007   2.766   5.965  12.577  0.3461 -0.0770  0.3305
 6506TIP3   OH241008   1.713   4.464  14.287  0.3882  0.6919  0.0323
 6506TIP3    H141009   1.803   4.432  14.292  0.2491  0.3765  0.6594
 6506TIP3    H241010   1.709   4.535  14.350 -0.6118 -1.3706  2.4828
 6507TIP3   OH241011   5.782   2.293  15.174 -0.0643 -0.0458 -0.0398
 6507TIP3    H141012   5.823   2.313  15.089  0.7588  0.2320  0.4058
 6507TIP3    H241013   5.693   2.267  15.152  0.1024  0.1259 -0.9852
 6508TIP3   OH241014   2.200   2.780   1.196 -0.8654  0.1453 -0.1444
 6508TIP3    H141015   2.145   2.775   1.117 -1.1426 -0.6466  0.0831
 6508TIP3    H241016   2.288   2.759   1.165 -0.9584 -0.0815 -0.2584
 6509TIP3   OH241017   2.009   0.777   1.093 -0.2711 -0.1575  0.1367
 6509TIP3    H141018   2.052   0.741   1.015  0.8689  1.5228 -0.0665
 6509TIP3    H241019   2.081   0.806   1.148 -1.1116  1.2094  0.5520
 6510TIP3   OH241020   5.373   4.473   2.073 -0.0952 -0.6583  0.2567
 6510TIP3    H141021   5.287   4.512   2.053  0.6856  0.5859 -0.8404
 6510TIP3    H241022   5.411   4.531   2.139  0.2637 -0.6901  0.0796
 6511TIP3   OH241023   4.364   3.691   2.116 -0.4653  0.0733  0.6333
 6511TIP3    H141024   4.362   3.662   2.025  1.0507  0.8403  0.3071
 6511TIP3    H241025   4.330   3.781   2.113 -1.4672 -0.2779  1.0196
 6512TIP3   OH241026   6.239   1.845  12.454  0.5126 -0.4570 -0.7610
 6512TIP3    H141027   6.241   1.848  12.358  1.1944  0.6559 -0.7284
 6512TIP3    H241028   6.299   1.774  12.476 -0.6412 -1.5984 -1.1703
 6513TIP3   OH241029   6.481   5.575  12.687  0.1887 -0.0532 -0.2290
 6513TIP3    H141030   6.427   5.650  12.712  1.8770  0.5598  1.8307
 6513TIP3    H241031   6.523   5.603  12.605 -1.3950  0.0210 -1.0714
 6514TIP3   OH241032   1.757   3.436  10.292  0.6416  0.2940  0.1000
 6514TIP3    H141033   1.754   3.353  10.341  0.7395 -0.5053 -1.1956
 6514TIP3    H241034   1.665   3.458  10.277  0.6120 -0.7312 -1.3872
 6515TIP3   OH241035   1.414   3.061   4.704 -0.7853  0.0173 -0.1897
 6515TIP3    H141036   1.420   3.099   4.617 -1.9594 -1.1906 -0.8447
 6515TIP3    H241037   1.363   3.124   4.755  0.3422  0.9692 -0.2011
 6516TIP3   OH241038   3.130   4.898  14.502  0.1679 -0.3217 -0.4847
 6516TIP3    H141039   3.177   4.861  14.428 -0.4823  1.1268 -1.6729
 6516TIP3    H241040   3.039   4.877  14.486  0.0328 -0.0823 -0.0511
 6517TIP3   OH241041   5.712   0.817  12.865  0.2339  0.4154 -0.7048
 6517TIP3    H141042   5.767   0.892  12.889  1.7452 -0.0803 -2.3794
 6517TIP3    H241043   5.646   0.853  12.805  0.3971  0.5688 -0.7925
 6518TIP3   OH241044   0.853   3.440   1.481 -0.4473  0.2606  0.2825
 6518TIP3    H141045   0.803   3.372   1.526 -0.8598  0.1003 -0.4153
 6518TIP3    H241046   0.787   3.491   1.435 -0.0693  0.7234  0.2519
 6519TIP3   OH241047   2.767   0.677   2.730  0.3240  0.1439  0.4083
 6519TIP3    H141048   2.784   0.764   2.767 -2.4320  0.1538  1.9289
 6519TIP3    H241049   2.717   0.695   2.651  0.8740 -0.0375  0.0178
 6520TIP3   OH241050   0.859   4.031  15.546 -0.3926  0.0516  0.1780
 6520TIP3    H141051   0.914   3.957  15.521  2.1650  2.0046 -0.3905
 6520TIP3    H241052   0.890   4.056  15.634 -1.9422 -0.1750  0.8104
 6521TIP3   OH241053   0.613   3.981   1.840  0.2393  0.2934 -0.2230
 6521TIP3    H141054   0.624   4.009   1.749 -0.0037  0.4172 -0.2180
 6521TIP3    H241055   0.698   3.948   1.866  0.9240  2.2556  0.1862
 6522TIP3   OH241056   4.520   2.303  10.536  0.1645 -0.1241 -0.2694
 6522TIP3    H141057   4.599   2.337  10.494 -0.3520  2.3384  0.6168
 6522TIP3    H241058   4.535   2.315  10.630 -0.6462 -1.1132  0.0118
 6523TIP3   OH241059   3.521   2.439  11.331 -0.5669 -0.2373  0.3599
 6523TIP3    H141060   3.437   2.464  11.290  0.3075  0.7819 -0.8985
 6523TIP3    H241061   3.559   2.523  11.358 -0.0338 -0.7148  1.1054
 6524TIP3   OH241062   4.378   4.136   2.323 -0.5800 -0.3954  0.3813
 6524TIP3    H141063   4.290   4.102   2.341 -0.1285 -1.5146  0.5837
 6524TIP3    H241064   4.382   4.219   2.369 -1.7038 -0.0943 -0.0389
 6525TIP3   OH241065   6.893   1.124   2.365  0.0404 -0.2234 -0.1245
 6525TIP3    H141066   6.821   1.187   2.357 -1.2346 -1.5148  0.6823
 6525TIP3    H241067   6.936   1.149   2.447 -0.4456 -0.3611  0.1812
 6526TIP3   OH241068   4.099   4.191  15.327 -0.4540 -0.1023  0.0104
 6526TIP3    H141069   4.130   4.144  15.249  0.1918  1.0035 -0.4285
 6526TIP3    H241070   4.105   4.127  15.398  1.3060 -0.4269 -0.3882
 6527TIP3   OH241071   3.789   0.004   5.317  0.4065  0.6975  0.5486
 6527TIP3    H141072   3.775   0.049   5.400 -1.0965  0.5569  0.4006
 6527TIP3    H241073   3.879  -0.029   5.323  0.3583  0.7363  2.0954
 6528TIP3   OH241074   0.090   2.705   2.490  0.2323  0.2228  0.1215
 6528TIP3    H141075  -0.005   2.701   2.476  0.0563 -2.7340  1.4396
 6528TIP3    H241076   0.126   2.734   2.406 -1.7945  1.4450 -0.3929
 6529TIP3   OH241077   6.743   3.455  15.592  0.3266  0.8211 -0.1313
 6529TIP3    H141078   6.820   3.512  15.594 -0.2695  1.6615 -0.4333
 6529TIP3    H241079   6.702   3.467  15.677  1.0201 -0.3406  0.3800
 6530TIP3   OH241080   6.230   1.467  13.746 -0.2613  0.1285 -0.4709
 6530TIP3    H141081   6.163   1.535  13.746 -0.4891 -0.0943 -0.4699
 6530TIP3    H241082   6.186   1.390  13.709 -0.5131 -0.5185  1.1008
 6531TIP3   OH241083   4.749   3.410  12.539 -0.4091  0.2803  0.2044
 6531TIP3    H141084   4.771   3.379  12.451 -1.1641 -1.2991  0.5250
 6531TIP3    H241085   4.736   3.504  12.529 -2.4059 -0.1145 -1.8201
 6532TIP3   OH241086   1.168   4.734   1.770 -1.0121  0.2063  0.1618
 6532TIP3    H141087   1.160   4.718   1.675  2.8296  0.8461 -0.4238
 6532TIP3    H241088   1.162   4.829   1.779 -0.7967  0.1916  0.4780
 6533TIP3   OH241089   6.633   3.826  14.628  0.5241 -0.0155  0.6940
 6533TIP3    H141090   6.576   3.859  14.698  0.3788 -2.7352  2.0127
 6533TIP3    H241091   6.576   3.772  14.574  1.2169 -0.2538  0.1854
 6534TIP3   OH241092   1.813   1.145   5.404 -0.2935 -0.4469 -0.1493
 6534TIP3    H141093   1.751   1.104   5.342 -1.0396 -1.2632  1.0880
 6534TIP3    H241094   1.778   1.123   5.490  1.0578  0.1574  0.5774
 6535TIP3   OH241095   2.649   4.152   2.053 -0.1524 -0.0507  0.1751
 6535TIP3    H141096   2.733   4.108   2.065  0.7803  1.6269  0.0611
 6535TIP3    H241097   2.652   4.227   2.112 -1.4164  0.2495 -0.1103
 6536TIP3   OH241098   1.772   7.084  15.329 -0.6567  0.2523  0.5654
 6536TIP3    H141099   1.859   7.113  15.303 -0.6015 -0.3403  0.0699
 6536TIP3    H241100   1.785   6.996  15.364 -1.2340 -0.3992 -0.7978
 6537TIP3   OH241101   6.625   2.154  13.390  0.1794  0.0215  0.5231
 6537TIP3    H141102   6.660   2.238  13.421 -1.3732  1.4576 -1.3497
 6537TIP3    H241103   6.618   2.101  13.469  0.8628  1.7872  1.8482
 6538TIP3   OH241104   5.741   5.162  12.171 -0.0322 -0.2330 -0.9217
 6538TIP3    H141105   5.660   5.135  12.127 -0.0565 -1.8241  0.0210
 6538TIP3    H241106   5.714   5.179  12.261  0.2120  1.9730 -1.2020
 6539TIP3   OH241107   0.779   0.044  10.088 -0.1083 -0.4560 -0.3688
 6539TIP3    H141108   0.730   0.119  10.122 -1.5238 -0.0334 -3.0251
 6539TIP3    H241109   0.711  -0.017  10.057  0.9217 -0.2633 -3.3603
 6540TIP3   OH241110   5.937   6.129   1.171 -0.1819  0.2185 -0.5514
 6540TIP3    H141111   5.918   6.167   1.085 -1.2922 -1.8671 -1.2898
 6540TIP3    H241112   5.921   6.036   1.160  0.8487 -0.2726  1.6221
 6541TIP3   OH241113   2.237   6.285   3.882 -0.5453 -0.0880  0.3874
 6541TIP3    H141114   2.173   6.217   3.902  0.3738 -1.2983 -0.6389
 6541TIP3    H241115   2.222   6.307   3.790 -1.2726  1.6264  0.8668
 6542TIP3   OH241116   1.355   0.303  10.380  0.2489  0.3316  0.2063
 6542TIP3    H141117   1.436   0.332  10.337 -0.3843 -0.5142 -1.6700
 6542TIP3    H241118   1.374   0.214  10.408  0.4501  0.6664  1.1756
 6543TIP3   OH241119   4.009   4.327  10.333  0.5061  0.4237 -0.2910
 6543TIP3    H141120   3.967   4.264  10.392 -1.2045  2.3643  0.6713
 6543TIP3    H241121   3.965   4.315  10.249 -1.0355  1.4295  0.3292
 6544TIP3   OH241122   4.306   6.456   0.711 -0.1404 -0.0273  0.7031
 6544TIP3    H141123   4.386   6.432   0.757  0.3731 -1.3252 -0.7773
 6544TIP3    H241124   4.239   6.398   0.746 -0.2760  0.5417  1.4036
 6545TIP3   OH241125   1.896   5.532  12.142 -0.1190  0.2407 -0.0010
 6545TIP3    H141126   1.879   5.610  12.194  0.2082  0.3769 -0.1000
 6545TIP3    H241127   1.854   5.461  12.192 -0.1880  0.4361  0.2219
 6546TIP3   OH241128   6.885   0.845  10.228  0.1110  0.3348  0.9825
 6546TIP3    H141129   6.923   0.877  10.146 -0.7580  1.1014  0.8558
 6546TIP3    H241130   6.881   0.921  10.285  0.1802 -0.0676  1.5340
 6547TIP3   OH241131   1.775   1.694  15.208 -0.1144 -0.7305 -0.8134
 6547TIP3    H141132   1.686   1.685  15.242  0.3295 -0.8168  0.4029
 6547TIP3    H241133   1.828   1.640  15.267  0.7116 -0.8276 -1.6378
 6548TIP3   OH241134   3.713   6.002   0.034  0.2148  0.6233  0.2269
 6548TIP3    H141135   3.694   5.946  -0.042  0.7050 -0.0326  0.5780
 6548TIP3    H241136   3.807   5.991   0.049 -0.0123  0.1727  1.3806
 6549TIP3   OH241137   1.999   4.617  14.379 -0.2145 -0.3835 -0.5184
 6549TIP3    H141138   2.050   4.550  14.424 -0.8563 -1.0290 -0.7385
 6549TIP3    H241139   2.019   4.605  14.287  0.1022  0.1039 -0.5202
 6550TIP3   OH241140   5.529   5.625  11.055 -0.1788 -0.6266  0.4241
 6550TIP3    H141141   5.458   5.588  11.108 -1.5923 -1.1434 -1.7157
 6550TIP3    H241142   5.505   5.717  11.044  2.0190  0.4849  3.6023
 6551TIP3   OH241143   6.011   2.573  10.624 -0.2445  0.0395 -0.1796
 6551TIP3    H141144   5.960   2.602  10.549  0.9248 -1.1441 -1.4915
 6551TIP3    H241145   6.061   2.498  10.592 -1.3962 -2.0002  2.4054
 6552TIP3   OH241146   4.613   2.036  14.729  0.0268  0.0322 -0.1230
 6552TIP3    H141147   4.704   2.024  14.701  0.0624 -1.2811  0.4859
 6552TIP3    H241148   4.619   2.084  14.811  0.4104 -2.5699  1.4814
 6553TIP3   OH241149   5.261   7.027  14.561 -0.0791 -0.2258  0.4390
 6553TIP3    H141150   5.350   6.991  14.563  0.0620  0.1146  0.3342
 6553TIP3    H241151   5.238   7.028  14.468  0.3352  0.9606  0.3299
 6554TIP3   OH241152   2.091   2.517   4.436 -0.1920  0.3455 -0.4288
 6554TIP3    H141153   2.186   2.509   4.450 -0.1790  1.2548  0.0788
 6554TIP3    H241154   2.082   2.527   4.341  0.2282  0.3098 -0.4764
 6555TIP3   OH241155   0.875   5.383   3.517 -0.1903  0.0006  0.2085
 6555TIP3    H141156   0.901   5.327   3.444  2.5548  1.8114 -0.3296
 6555TIP3    H241157   0.810   5.442   3.480 -0.3476 -0.4274 -0.2126
 6556TIP3   OH241158   2.909   4.528   2.222 -0.6617 -0.0862 -0.3467
 6556TIP3    H141159   2.932   4.510   2.131  0.5843 -0.3067 -0.0139
 6556TIP3    H241160   2.852   4.604   2.218 -0.4020  0.0705 -1.3000
 6557TIP3   OH241161   6.428   1.258   3.327  0.5511 -0.2299  0.1632
 6557TIP3    H141162   6.421   1.342   3.283 -0.6131 -0.1490  0.4769
 6557TIP3    H241163   6.473   1.277   3.409 -1.3452  0.4417  1.0906
 6558TIP3   OH241164   0.171   2.149   5.091  0.2286 -0.0996 -0.3106
 6558TIP3    H141165   0.125   2.171   5.010  0.3607  0.5114 -0.2305
 6558TIP3    H241166   0.208   2.062   5.076 -2.6107 -1.5459  0.3367
 6559TIP3   OH241167   6.845   5.276  15.108 -0.4895  0.0539  0.2789
 6559TIP3    H141168   6.798   5.202  15.070 -2.5260  1.7788 -0.7911
 6559TIP3    H241169   6.896   5.312  15.036 -1.4532  1.1323  0.1142
 6560TIP3   OH241170   2.644   3.558   0.018 -0.2090 -0.0994 -0.5454
 6560TIP3    H141171   2.732   3.570   0.052 -0.8511 -0.1383  1.2794
 6560TIP3    H241172   2.652   3.565  -0.077  1.7415 -0.1326 -0.4047
 6561TIP3   OH241173   4.899   5.146   1.729 -0.1600  0.2633  0.1174
 6561TIP3    H141174   4.928   5.102   1.809  1.3077  0.8967 -0.0228
 6561TIP3    H241175   4.907   5.080   1.661 -2.3459 -0.5744  0.6061
 6562TIP3   OH241176   5.743   2.481   3.289 -0.5861 -0.0695 -0.1768
 6562TIP3    H141177   5.671   2.447   3.343 -1.0455 -0.5873 -1.0944
 6562TIP3    H241178   5.706   2.488   3.201  0.6853 -1.0332 -0.8176
 6563TIP3   OH241179   0.062   0.545  15.269  0.3385 -0.1211 -0.5153
 6563TIP3    H141180  -0.006   0.612  15.269  2.0126  1.7465  1.8542
 6563TIP3    H241181   0.025   0.473  15.321 -0.9176 -0.4978 -1.8557
 6564TIP3   OH241182   0.909   4.865   0.083  0.1192  0.1696 -0.1883
 6564TIP3    H141183   0.934   4.850  -0.008 -2.3494 -0.4777 -0.8499
 6564TIP3    H241184   0.950   4.793   0.131 -0.3736 -0.7936 -1.1727
 6565TIP3   OH241185   3.801   4.095   0.430 -0.0638 -0.0267  0.2040
 6565TIP3    H141186   3.782   4.179   0.388  0.9594 -0.8561 -2.0966
 6565TIP3    H241187   3.730   4.083   0.493 -1.3998  1.5648 -0.9124
 6566TIP3   OH241188   5.141   0.780   6.055 -0.2351 -0.3253  0.5487
 6566TIP3    H141189   5.101   0.842   6.115 -1.7587  0.1067 -0.8441
 6566TIP3    H241190   5.203   0.832   6.004 -1.7430  0.1838 -0.8368
 6567TIP3   OH241191   1.828   4.134   3.172  0.3912 -0.0938 -0.4685
 6567TIP3    H141192   1.797   4.161   3.258 -2.4544  0.6480 -1.6173
 6567TIP3    H241193   1.752   4.092   3.131  0.5472  2.4861 -3.8096
 6568TIP3   OH241194   1.895   1.518  15.369 -0.9577  0.1975 -0.2867
 6568TIP3    H141195   1.916   1.467  15.447  0.1755  2.4342  0.9359
 6568TIP3    H241196   1.979   1.549  15.337 -1.5668  0.7331 -1.4213
 6569TIP3   OH241197   6.083   0.742  11.129  0.6457  0.6046 -0.1809
 6569TIP3    H141198   6.163   0.755  11.179  0.4114  3.6592 -0.4489
 6569TIP3    H241199   6.023   0.809  11.162 -1.7347 -1.3621 -0.2329
 6570TIP3   OH241200   2.872   2.473   5.333 -0.0354  0.5138 -0.2216
 6570TIP3    H141201   2.852   2.554   5.380  0.9356  1.5328 -1.4901
 6570TIP3    H241202   2.804   2.467   5.267 -0.0171  0.3845 -0.2277
 6571TIP3   OH241203   4.644   5.775  14.780  0.6569 -0.3766 -0.6462
 6571TIP3    H141204   4.672   5.687  14.755 -2.5371 -0.7414 -3.7378
 6571TIP3    H241205   4.564   5.761  14.831  0.5334  0.7093 -0.5104
 6572TIP3   OH241206   4.045   5.547   6.108  0.0071  0.2329  0.2761
 6572TIP3    H141207   4.070   5.586   6.192 -1.2633  1.2862  0.2080
 6572TIP3    H241208   3.998   5.617   6.063 -0.2873 -0.6707 -0.8582
 6573TIP3   OH241209   3.447   0.626   5.023  0.6402 -0.1699 -0.1707
 6573TIP3    H141210   3.487   0.714   5.025  0.2405  0.0245  1.4905
 6573TIP3    H241211   3.434   0.605   5.116 -0.5738 -1.4007 -0.5991
 6574TIP3   OH241212   6.769   5.404   0.283  0.2394 -0.0466  0.4125
 6574TIP3    H141213   6.809   5.466   0.222  1.2006 -1.6764 -0.6974
 6574TIP3    H241214   6.683   5.385   0.245  1.2199 -1.8278 -1.1118
 6575TIP3   OH241215   7.146   2.495  14.239 -0.2569 -0.0063  0.4037
 6575TIP3    H141216   7.084   2.562  14.269 -1.9480 -0.8736 -0.9593
 6575TIP3    H241217   7.153   2.510  14.145  0.7380 -0.6392  0.3646
 6576TIP3   OH241218   5.006   0.158  13.255  0.1492 -0.6003  0.1179
 6576TIP3    H141219   4.929   0.197  13.297  1.1516 -0.6645  2.1235
 6576TIP3    H241220   4.972   0.080  13.212 -1.1504  0.1753 -0.3555
 6577TIP3   OH241221   2.307   0.752  12.599  0.5430  0.1119 -0.0177
 6577TIP3    H141222   2.369   0.722  12.533  2.0818  1.9330  0.5015
 6577TIP3    H241223   2.291   0.675  12.654  1.7406 -0.5939 -0.6254
 6578TIP3   OH241224   1.888   3.731  10.466  0.9489 -0.1645  0.1131
 6578TIP3    H141225   1.806   3.699  10.503  1.0264  1.4584  1.8106
 6578TIP3    H241226   1.953   3.715  10.534  1.5436  0.8104 -0.2059
 6579TIP3   OH241227   0.038   0.156  15.651  0.1335 -0.2753 -0.0270
 6579TIP3    H141228   0.101   0.221  15.681  0.6223 -1.1675  0.9670
 6579TIP3    H241229   0.072   0.127  15.566 -0.1082  0.7643 -0.4924
 6580TIP3   OH241230   3.975   1.005  13.651 -0.1282 -0.3739  0.3903
 6580TIP3    H141231   3.972   0.914  13.679  1.6211 -0.4435  0.4811
 6580TIP3    H241232   4.033   1.005  13.574  0.3500  0.7245  0.7247
 6581TIP3   OH241233   3.008   0.222   5.654 -0.0781 -0.3954 -0.6032
 6581TIP3    H141234   2.942   0.286   5.628  0.1438 -0.3517 -1.0663
 6581TIP3    H241235   3.091   0.268   5.646 -0.0108 -0.3360  0.3371
 6582TIP3   OH241236   0.423   6.912   0.522  0.2863 -0.3653  0.0307
 6582TIP3    H141237   0.365   6.842   0.491 -0.0194 -1.0177  1.9653
 6582TIP3    H241238   0.510   6.887   0.491  0.1998 -1.6901  0.8057
 6583TIP3   OH241239   0.378   6.818  15.652 -0.2684 -0.4518 -0.6147
 6583TIP3    H141240   0.409   6.759  15.584  2.5156 -1.4823  1.3731
 6583TIP3    H241241   0.411   6.904  15.626 -1.9112 -0.2032 -2.0672
 6584TIP3   OH241242   3.245   1.897   1.003 -0.8848 -0.0570 -0.0257
 6584TIP3    H141243   3.189   1.855   1.068 -0.6536  0.0016  0.2178
 6584TIP3    H241244   3.219   1.989   1.003  0.4814  0.3789  1.4925
 6585TIP3   OH241245   0.076   0.598  13.324 -0.2349  0.1691 -0.0445
 6585TIP3    H141246   0.076   0.615  13.419 -0.9617 -1.1777  0.2116
 6585TIP3    H241247   0.115   0.677  13.287  0.8348  0.3948  1.4337
 6586TIP3   OH241248   3.561   0.437  12.610  0.1726 -0.7603 -0.2670
 6586TIP3    H141249   3.541   0.445  12.516  1.1922  0.1825 -0.4270
 6586TIP3    H241250   3.584   0.526  12.637 -0.2091 -1.0033  0.9114
 6587TIP3   OH241251   5.186   0.938  10.895  0.3321  0.3327 -0.1624
 6587TIP3    H141252   5.106   0.886  10.901 -0.2319  1.0191 -1.4394
 6587TIP3    H241253   5.230   0.905  10.816  1.1784  0.1564  0.3700
 6588TIP3   OH241254   0.006   3.895  15.549 -0.0632  1.1162 -0.1513
 6588TIP3    H141255   0.088   3.908  15.596  0.1927  1.4594 -0.6869
 6588TIP3    H241256  -0.013   3.980  15.509 -1.8970  1.7450  1.8512
 6589TIP3   OH241257   2.377   1.829  11.602 -0.6271  0.3301  0.4744
 6589TIP3    H141258   2.338   1.742  11.594 -0.4959  0.4091 -1.7907
 6589TIP3    H241259   2.309   1.882  11.642 -1.2918 -0.4758  0.4425
 6590TIP3   OH241260   5.309   6.573   1.909  0.2628 -0.5841 -0.1036
 6590TIP3    H141261   5.327   6.642   1.845 -2.0491  0.0194 -0.2156
 6590TIP3    H241262   5.220   6.592   1.939  1.1494 -1.0129  3.1340
 6591TIP3   OH241263   2.333   5.591   5.213 -0.0536  0.0153 -0.0926
 6591TIP3    H141264   2.306   5.664   5.159  2.4696  0.5988 -0.6753
 6591TIP3    H241265   2.367   5.526   5.152  1.9322  0.2707  0.6866
 6592TIP3   OH241266   0.072   7.050   3.776 -0.6086  0.8026 -0.3680
 6592TIP3    H141267   0.010   7.085   3.839 -1.0560  0.8826 -0.8500
 6592TIP3    H241268   0.072   7.114   3.704  2.1529  2.3554  0.8495
 6593TIP3   OH241269   0.369   1.921   4.006  0.0205 -0.2297  0.0836
 6593TIP3    H141270   0.298   1.937   4.068 -0.4167 -1.0121 -0.1934
 6593TIP3    H241271   0.324   1.911   3.921  0.4055 -1.2241 -0.0179
 6594TIP3   OH241272   5.974   4.953  11.042  0.5503 -0.5574  0.9445
 6594TIP3    H141273   6.013   5.034  11.008 -0.0226 -1.0331 -1.0108
 6594TIP3    H241274   6.049   4.903  11.076  1.0190  0.4173  1.3875
 6595TIP3   OH241275   0.336   5.112  10.180 -0.4130 -0.4645  0.0716
 6595TIP3    H141276   0.261   5.125  10.238 -0.7618 -0.2331 -0.4249
 6595TIP3    H241277   0.297   5.082  10.097 -0.1714  1.8087 -0.9382
 6596TIP3   OH241278   2.407   4.317   0.236 -0.1925 -0.1975  0.1505
 6596TIP3    H141279   2.438   4.408   0.234  0.9784 -0.5597  0.5824
 6596TIP3    H241280   2.472   4.269   0.185  0.0919 -1.0155  1.2306
 6597TIP3   OH241281   6.596   6.056  11.644 -0.1693  1.1971  0.1570
 6597TIP3    H141282   6.580   6.142  11.684  0.4889  0.8518  1.2027
 6597TIP3    H241283   6.628   6.076  11.556  1.5252  2.0884  0.9231
 6598TIP3   OH241284   6.543   6.731   5.178  0.0027 -0.3181 -0.2312
 6598TIP3    H141285   6.448   6.731   5.187  0.0550 -1.1213  0.5091
 6598TIP3    H241286   6.575   6.761   5.263  0.3992  2.2987 -1.2232
 6599TIP3   OH241287   2.875   2.452  10.050  0.0530  0.2457  0.1142
 6599TIP3    H141288   2.881   2.546  10.037  0.5959  0.6404  2.7914
 6599TIP3    H241289   2.782   2.436  10.069  0.2243  0.5164  1.2545
 6600TIP3   OH241290   3.644   2.439   1.599  0.0680  0.2875  0.2719
 6600TIP3    H141291   3.593   2.359   1.609  2.1145 -1.0178  0.8748
 6600TIP3    H241292   3.626   2.469   1.510 -0.5570 -0.9717 -0.0415
 6601TIP3   OH241293   2.341   3.383  13.955  0.0983 -0.5337  0.6689
 6601TIP3    H141294   2.259   3.424  13.929  0.2000 -1.2719 -1.0095
 6601TIP3    H241295   2.344   3.392  14.050 -1.0959  1.0008  0.6077
 6602TIP3   OH241296   5.031   6.920  14.869 -0.3707 -0.1951  0.4345
 6602TIP3    H141297   5.007   6.874  14.788 -3.4826  2.9066 -0.6629
 6602TIP3    H241298   4.971   6.886  14.935 -0.6611  0.1870  0.3694
 6603TIP3   OH241299   4.673   1.033   1.431  0.4479 -0.4226 -0.1286
 6603TIP3    H141300   4.763   1.053   1.406  0.2046 -0.0007 -0.7008
 6603TIP3    H241301   4.636   1.118   1.456 -0.0121 -0.4677 -0.6432
 6604TIP3   OH241302   1.345   2.229  12.019  0.5439  0.0302  0.0271
 6604TIP3    H141303   1.381   2.282  11.949  1.3550  0.0511  0.4515
 6604TIP3    H241304   1.351   2.283  12.097  1.2562 -0.6239  0.4383
 6605TIP3   OH241305   3.715   5.096  13.601 -0.1877  0.2655 -0.8601
 6605TIP3    H141306   3.651   5.076  13.532  1.1506 -1.4936 -1.6701
 6605TIP3    H241307   3.704   5.027  13.666  0.7232  0.0524 -0.9103
 6606TIP3   OH241308   6.125   2.681  13.693 -0.3398 -0.3743  0.2488
 6606TIP3    H141309   6.212   2.673  13.654  0.3938  0.6924  1.5560
 6606TIP3    H241310   6.106   2.593  13.726  0.3373 -0.5780  0.1194
 6607TIP3   OH241311   4.147   2.361   5.231  0.4013  0.6768  0.4768
 6607TIP3    H141312   4.145   2.457   5.222 -0.1832  0.5565 -0.8513
 6607TIP3    H241313   4.241   2.340   5.237  0.7013  1.1667 -1.5846
 6608TIP3   OH241314   5.920   0.818   3.448 -0.7366  0.0795  0.1888
 6608TIP3    H141315   5.914   0.743   3.507 -1.1496  0.0721  0.1417
 6608TIP3    H241316   5.921   0.894   3.505  1.4819  0.0149  0.3513
 6609TIP3   OH241317   3.125   6.860   5.476  0.2243 -0.5584 -0.3932
 6609TIP3    H141318   3.126   6.925   5.406  0.7492 -0.9052 -0.7166
 6609TIP3    H241319   3.193   6.889   5.537 -0.0073 -0.4355 -0.1928
 6610TIP3   OH241320   2.052   5.243  11.783  0.1819 -0.2104  0.2657
 6610TIP3    H141321   2.123   5.295  11.744 -0.7727  0.9731  0.0325
 6610TIP3    H241322   1.984   5.308  11.804 -0.3047 -1.1367  1.6945
 6611TIP3   OH241323   1.371   5.767  13.811 -0.5422 -0.7668 -0.2708
 6611TIP3    H141324   1.301   5.830  13.795 -1.8935 -1.7459  1.4170
 6611TIP3    H241325   1.358   5.698  13.746  0.8883  0.5721 -2.0659
 6612TIP3   OH241326   3.354   4.023  11.545  0.2720  0.0932  0.3658
 6612TIP3    H141327   3.444   3.995  11.559  0.2805  0.2931  0.7067
 6612TIP3    H241328   3.360   4.116  11.524  0.1549  0.0795  0.2670
 6613TIP3   OH241329   1.835   2.772  15.429  0.4551  0.5408 -0.2305
 6613TIP3    H141330   1.881   2.739  15.352 -0.7653 -0.5456 -0.5214
 6613TIP3    H241331   1.753   2.808  15.394 -0.9248 -1.5179  0.6708
 6614TIP3   OH241332   4.842   1.050  13.954  0.2946 -0.1276 -0.4276
 6614TIP3    H141333   4.922   1.043  13.902  0.1429 -2.1954 -0.4598
 6614TIP3    H241334   4.771   1.038  13.892 -0.0034  0.2472 -0.1684
 6615TIP3   OH241335   2.488   2.027  12.859 -0.6692  0.5218 -0.1471
 6615TIP3    H141336   2.425   2.099  12.856 -1.1662  0.0602 -1.1861
 6615TIP3    H241337   2.513   2.013  12.768 -2.7628 -2.5041 -0.3984
 6616TIP3   OH241338   7.120   3.132   0.366  0.5372 -0.5866  0.2754
 6616TIP3    H141339   7.213   3.132   0.388  0.6303 -0.7548 -0.1102
 6616TIP3    H241340   7.080   3.192   0.429  0.9330 -0.3910  0.3410
 6617TIP3   OH241341   2.950   3.296   0.075  0.6394  0.3729 -0.0983
 6617TIP3    H141342   2.903   3.355   0.134 -0.8949  0.0645 -0.9615
 6617TIP3    H241343   2.946   3.210   0.119  0.3741  0.3445 -0.1760
 6618TIP3   OH241344   3.914   4.468   5.873  0.3918 -0.1001 -0.6576
 6618TIP3    H141345   3.879   4.382   5.899 -1.1206  0.5064 -0.5668
 6618TIP3    H241346   4.001   4.449   5.838  1.4521 -1.3116  2.3012
 6619TIP3   OH241347   4.539   5.209  10.193  0.3647 -0.2056  0.4818
 6619TIP3    H141348   4.605   5.224  10.125 -0.1364  1.7917  0.3845
 6619TIP3    H241349   4.486   5.288  10.193 -0.3792 -0.6554  2.4113
 6620TIP3   OH241350   4.871   2.178   4.279  0.0021  0.3689  0.2777
 6620TIP3    H141351   4.826   2.119   4.220 -0.0927  1.0875 -0.3835
 6620TIP3    H241352   4.831   2.264   4.263  0.8353  0.8117  0.4808
 6621TIP3   OH241353   3.648   2.828  13.731 -0.1876  0.2068 -0.3449
 6621TIP3    H141354   3.597   2.862  13.805 -0.2788  0.5161 -0.5469
 6621TIP3    H241355   3.691   2.905  13.695  1.1163 -0.1619  0.3460
 6622TIP3   OH241356   1.591   5.546   2.345 -0.4184 -0.0955  0.1812
 6622TIP3    H141357   1.512   5.516   2.390 -0.5441 -0.0275  0.0068
 6622TIP3    H241358   1.645   5.467   2.337  1.6175  0.5792  4.3749
 6623TIP3   OH241359   5.218   1.757  14.511 -0.1707  0.3799  0.4444
 6623TIP3    H141360   5.134   1.795  14.537  0.0924  1.5819 -0.3359
 6623TIP3    H241361   5.224   1.675  14.560 -2.3510 -0.3718 -0.4262
 6624TIP3   OH241362   1.633   2.426  11.420  0.1965 -0.4070 -0.0834
 6624TIP3    H141363   1.671   2.470  11.496  0.7029 -0.0387 -0.5398
 6624TIP3    H241364   1.566   2.368  11.457 -0.5080  0.7595  0.5159
 6625TIP3   OH241365   1.553   5.206  14.981 -0.5331  0.3110 -0.0259
 6625TIP3    H141366   1.518   5.255  14.907  1.3322  0.3581 -0.9507
 6625TIP3    H241367   1.646   5.231  14.985 -0.3548 -0.4440  1.7223
 6626TIP3   OH241368   3.205   5.364   0.766 -0.0775 -0.4676 -0.2120
 6626TIP3    H141369   3.269   5.433   0.750 -0.8316  0.1541 -0.5607
 6626TIP3    H241370   3.164   5.388   0.849 -1.3951  0.3327 -1.0722
 6627TIP3   OH241371   1.545   0.632   1.552  0.6026  0.0753  0.3547
 6627TIP3    H141372   1.462   0.585   1.557  0.3212  0.4283 -0.8538
 6627TIP3    H241373   1.605   0.578   1.603 -0.2196 -0.4921  0.7470
 6628TIP3   OH241374   2.005   2.783  10.467 -0.3448 -0.2359 -0.5167
 6628TIP3    H141375   2.062   2.844  10.420 -1.1802  0.6649 -0.3795
 6628TIP3    H241376   2.053   2.699  10.464  0.8385  0.4173 -0.6672
 6629TIP3   OH241377   3.561   6.966  12.343  0.1177 -0.0518 -0.7692
 6629TIP3    H141378   3.623   6.941  12.411 -1.5262  0.9272  1.2317
 6629TIP3    H241379   3.501   6.892  12.337  0.5854 -0.3701 -1.5846
 6630TIP3   OH241380   2.082   4.203  14.526  0.0821 -0.4202 -0.2370
 6630TIP3    H141381   2.039   4.257  14.459 -3.0130 -0.0223  1.8884
 6630TIP3    H241382   2.036   4.119  14.522  0.8642 -0.8885  0.4452
 6631TIP3   OH241383   4.198   0.271  10.364  0.0202  0.1035 -0.2709
 6631TIP3    H141384   4.143   0.301  10.436  0.9103 -1.0293  0.9455
 6631TIP3    H241385   4.162   0.313  10.286 -0.0368  2.6475  1.0119
 6632TIP3   OH241386   6.397   6.308  14.273 -0.0993  0.1898  0.7173
 6632TIP3    H141387   6.311   6.310  14.231 -0.2078  3.3716  0.8622
 6632TIP3    H241388   6.378   6.305  14.367  0.1038 -2.5934  0.7711
 6633TIP3   OH241389   3.885   4.069  14.155 -0.1422  0.2100  0.3398
 6633TIP3    H141390   3.944   4.144  14.147  1.0673 -0.5674  1.5834
 6633TIP3    H241391   3.886   4.047  14.248 -2.3772  0.1271  0.3911
 6634TIP3   OH241392   0.741   0.102  13.148  0.0419 -0.0320 -0.1099
 6634TIP3    H141393   0.804   0.172  13.132 -0.2677  0.3760  0.4449
 6634TIP3    H241394   0.662   0.129  13.102  0.7864 -1.4086 -2.3822
 6635TIP3   OH241395   4.144   5.499  11.862 -0.1179  0.2401  0.1475
 6635TIP3    H141396   4.126   5.566  11.796 -0.8798 -0.5374 -0.4599
 6635TIP3    H241397   4.106   5.534  11.942 -0.6989  0.4509 -0.2116
 6636TIP3   OH241398   2.015   6.505   2.886 -0.3175 -0.0145  0.1518
 6636TIP3    H141399   2.084   6.439   2.892  0.5610  0.5107 -2.6903
 6636TIP3    H241400   1.934   6.455   2.871  0.1120 -0.5032 -0.5557
 6637TIP3   OH241401   2.668   2.791  13.912  0.1713  0.0015 -0.0935
 6637TIP3    H141402   2.745   2.736  13.925 -0.5024 -0.7847  0.6747
 6637TIP3    H241403   2.700   2.867  13.863  1.2127 -0.8419 -0.7472
 6638TIP3   OH241404   7.091   0.505  10.494 -0.3790 -0.1190 -0.4230
 6638TIP3    H141405   7.182   0.531  10.498  0.1349 -1.9044  0.2460
 6638TIP3    H241406   7.053   0.532  10.577  0.1218 -1.3178  0.2182
 6639TIP3   OH241407   1.009   6.077  11.044 -0.1592 -0.3079  0.1127
 6639TIP3    H141408   1.035   6.163  11.078 -1.9902  0.2865  0.1150
 6639TIP3    H241409   1.076   6.055  10.980  1.1772  0.4103  1.2110
 6640TIP3   OH241410   0.582   5.186  10.060 -0.5409 -0.2045  0.5854
 6640TIP3    H141411   0.638   5.205  10.135 -1.8462 -0.2240  1.5909
 6640TIP3    H241412   0.503   5.147  10.097 -1.9631  1.3798 -0.6225
 6641TIP3   OH241413   6.657   6.736  13.646 -0.0017 -0.0268  0.4520
 6641TIP3    H141414   6.730   6.796  13.632  0.0271 -0.6513 -3.1243
 6641TIP3    H241415   6.695   6.663  13.696  1.4888  0.2721 -0.1888
 6642TIP3   OH241416   1.020   7.085  14.395 -0.0562 -0.1710 -0.5654
 6642TIP3    H141417   1.001   7.014  14.456  2.2127 -0.0384  0.3814
 6642TIP3    H241418   1.099   7.126  14.429  1.1170  0.1369 -3.3980
 6643TIP3   OH241419   3.174   2.416   4.632 -0.2340 -0.3954  0.5786
 6643TIP3    H141420   3.222   2.359   4.572 -2.3551  1.5356 -3.3505
 6643TIP3    H241421   3.112   2.358   4.675 -1.2762 -1.4941 -2.1295
 6644TIP3   OH241422   0.411   2.925  13.541 -0.2138 -0.4140  0.6032
 6644TIP3    H141423   0.392   2.990  13.473 -1.1837 -1.1382  0.1474
 6644TIP3    H241424   0.501   2.944  13.568 -0.1629  0.5332 -0.1565
 6645TIP3   OH241425   5.721   1.424   1.714 -1.1525  0.0098 -0.2933
 6645TIP3    H141426   5.750   1.446   1.626  1.4908 -1.4573  0.0953
 6645TIP3    H241427   5.652   1.487   1.733 -1.4464  0.6957 -3.1865
 6646TIP3   OH241428   0.408   6.096  15.459  0.1129  0.3084 -0.6295
 6646TIP3    H141429   0.416   6.072  15.366 -0.5719 -0.8892 -0.4080
 6646TIP3    H241430   0.314   6.089  15.477  0.2950  0.0340  0.2718
 6647TIP3   OH241431   0.086   1.420  13.825  0.0934 -0.1812 -0.3686
 6647TIP3    H141432   0.132   1.359  13.883 -2.3788 -0.9534  0.9213
 6647TIP3    H241433   0.074   1.499  13.878 -1.6494 -0.6724  0.0394
 6648TIP3   OH241434   2.185   1.870   0.752  0.3309  0.4402  0.1043
 6648TIP3    H141435   2.264   1.829   0.788 -0.1094 -1.2574 -0.7605
 6648TIP3    H241436   2.201   1.873   0.657 -0.5718  0.2230 -0.0624
 6649TIP3   OH241437   7.052   3.309  10.091  0.7072  0.9147  0.0328
 6649TIP3    H141438   7.020   3.351  10.011  0.2889 -0.5075 -0.5882
 6649TIP3    H241439   7.062   3.217  10.067  2.5975  0.8024  1.0186
 6650TIP3   OH241440   4.412   2.832   2.227 -0.4119  0.4659 -0.4163
 6650TIP3    H141441   4.444   2.826   2.137 -0.9319  0.3726 -0.5972
 6650TIP3    H241442   4.442   2.751   2.268  0.9540  1.0806 -0.1238
 6651TIP3   OH241443   1.037   5.506   0.581  0.3452  0.0939  0.3259
 6651TIP3    H141444   1.021   5.533   0.491 -1.3072 -0.3558  0.4594
 6651TIP3    H241445   1.031   5.410   0.579 -0.2555  0.1107  1.0086
 6652TIP3   OH241446   4.046   0.530   3.990 -0.0711 -0.0963  0.7224
 6652TIP3    H141447   4.050   0.553   3.897 -1.8853  0.1096  0.6641
 6652TIP3    H241448   4.127   0.566   4.027 -0.1734  1.4232 -0.4287
 6653TIP3   OH241449   0.785   6.342   5.163 -0.6201 -0.0572 -0.0905
 6653TIP3    H141450   0.829   6.378   5.086  0.6579 -1.6320 -0.1577
 6653TIP3    H241451   0.699   6.314   5.131 -0.1107 -0.6832 -0.9604
 6654TIP3   OH241452   6.780   6.316  10.172  0.4928 -0.0032 -0.6643
 6654TIP3    H141453   6.717   6.321  10.100  0.5023 -0.0346 -0.6757
 6654TIP3    H241454   6.863   6.295  10.130  0.4949 -0.0381 -0.6427
 6655TIP3   OH241455   3.694   6.178   2.235  0.0777  0.0167  0.7129
 6655TIP3    H141456   3.654   6.262   2.255  1.4402  0.6071  1.0938
 6655TIP3    H241457   3.781   6.182   2.276  1.5938 -0.1266 -2.1950
 6656TIP3   OH241458   6.964   0.946   1.964  0.7473  0.7404 -0.0856
 6656TIP3    H141459   6.952   0.925   1.872  0.8458  0.7659 -0.1047
 6656TIP3    H241460   6.984   0.862   2.005  0.6247  0.7172 -0.0747
 6657TIP3   OH241461   0.288   3.436   0.700 -0.2329 -0.2860  0.2129
 6657TIP3    H141462   0.242   3.372   0.754  0.6788  0.6645  2.2180
 6657TIP3    H241463   0.271   3.520   0.743  1.1643  0.4096 -0.5261
 6658TIP3   OH241464   5.331   5.017  14.160  0.4671 -0.0381 -0.9817
 6658TIP3    H141465   5.386   4.961  14.214 -0.0899 -0.0535 -0.4244
 6658TIP3    H241466   5.389   5.089  14.134  0.9329 -0.4029 -0.9579
 6659TIP3   OH241467   6.724   1.508   2.846  0.4504  0.1539 -0.0101
 6659TIP3    H141468   6.812   1.546   2.847 -0.0051  1.3222 -1.3560
 6659TIP3    H241469   6.716   1.464   2.931  1.5995  1.7175  0.9659
 6660TIP3   OH241470   0.436   3.595  12.512 -0.2454  0.3853 -0.1942
 6660TIP3    H141471   0.428   3.574  12.419 -0.9344  1.0938 -0.3027
 6660TIP3    H241472   0.364   3.656  12.530 -0.8399 -0.6192  1.0716
 6661TIP3   OH241473   5.381   6.003   2.169 -0.5113  0.4261 -0.8261
 6661TIP3    H141474   5.422   5.975   2.251 -1.0037  0.2604 -0.6277
 6661TIP3    H241475   5.431   6.079   2.142 -1.2636  1.4078  0.4309
 6662TIP3   OH241476   4.915   3.925  10.929 -0.0574  0.2599  0.2105
 6662TIP3    H141477   4.872   3.865  10.869 -0.0795  0.9968 -0.5284
 6662TIP3    H241478   4.870   4.009  10.915  2.1107  1.2694 -1.1913
 6663TIP3   OH241479   4.022   1.378   1.079  0.6641  0.0156 -0.8044
 6663TIP3    H141480   3.960   1.344   1.144  0.6568  1.7748  0.1918
 6663TIP3    H241481   3.971   1.383   0.998  0.6363 -2.1062 -0.9778
 6664TIP3   OH241482   5.476   5.436  11.527 -0.0111  0.2276  0.9663
 6664TIP3    H141483   5.407   5.376  11.500  0.5779 -0.2201  0.4271
 6664TIP3    H241484   5.475   5.506  11.462 -1.8625  1.7883  2.5403
 6665TIP3   OH241485   1.794   4.131  11.875 -0.1013 -0.0371 -0.3174
 6665TIP3    H141486   1.869   4.167  11.923  0.6137 -0.8124 -0.8179
 6665TIP3    H241487   1.782   4.043  11.911 -1.0834  0.2495  0.0834
 6666TIP3   OH241488   1.185   0.802  14.766 -0.3191 -0.6766  0.1233
 6666TIP3    H141489   1.197   0.897  14.762 -0.1289 -0.6033  1.7348
 6666TIP3    H241490   1.202   0.772  14.677 -0.2051  0.7757 -0.3741
 6667TIP3   OH241491   4.728   3.240   2.125 -0.4865  0.3756 -0.3294
 6667TIP3    H141492   4.664   3.224   2.055 -0.6879  1.1207 -0.3291
 6667TIP3    H241493   4.784   3.163   2.124 -0.3659  0.4613 -1.4539
 6668TIP3   OH241494   4.072   0.751  12.533  0.1177  0.1532 -0.0368
 6668TIP3    H141495   3.990   0.751  12.485  1.8601 -0.1526 -3.2462
 6668TIP3    H241496   4.051   0.708  12.616 -2.7422 -0.7336 -1.1073
 6669TIP3   OH241497   4.481   6.109   0.325  0.0022  0.1684 -0.1126
 6669TIP3    H141498   4.417   6.084   0.259 -1.8593  1.0648  1.2423
 6669TIP3    H241499   4.538   6.171   0.281 -2.1559  1.9805 -0.5439
 6670TIP3   OH241500   1.118   1.693   1.783  0.0002  0.0171  0.5255
 6670TIP3    H141501   1.124   1.650   1.869  2.4460 -0.1701  0.3378
 6670TIP3    H241502   1.097   1.784   1.803  0.3926 -0.0590  1.3208
 6671TIP3   OH241503   0.249   6.018  12.994 -0.6928 -0.2421  0.0418
 6671TIP3    H141504   0.182   6.071  13.037 -1.5800 -0.5443 -0.9421
 6671TIP3    H241505   0.233   5.929  13.026 -0.7560 -0.3124 -0.1832
 6672TIP3   OH241506   5.426   6.492   2.848  0.3993 -0.0916 -0.1565
 6672TIP3    H141507   5.346   6.513   2.801 -0.1383  0.4678  0.9717
 6672TIP3    H241508   5.438   6.398   2.835 -0.3346 -0.1428 -0.4951
 6673TIP3   OH241509   4.926   4.164   0.399  0.8623  0.0402  0.1548
 6673TIP3    H141510   5.011   4.174   0.442  0.4857  0.8098  0.7407
 6673TIP3    H241511   4.890   4.083   0.435  1.4337 -0.4077 -0.2635
 6674TIP3   OH241512   2.856   6.452   0.417  1.1093 -0.4323 -0.0841
 6674TIP3    H141513   2.804   6.528   0.391 -0.8864 -1.7906 -0.2715
 6674TIP3    H241514   2.894   6.477   0.501 -1.1077  0.1128  0.8317
 6675TIP3   OH241515   0.161   6.600   3.845  0.4091  0.6045  0.3744
 6675TIP3    H141516   0.199   6.612   3.758  0.2646  0.5932  0.3090
 6675TIP3    H241517   0.195   6.673   3.897 -2.1084  2.5929 -0.5767
 6676TIP3   OH241518   3.018   5.640   4.557 -0.2577  0.6425  0.4950
 6676TIP3    H141519   3.072   5.719   4.549  0.4466  0.4266  2.5545
 6676TIP3    H241520   2.944   5.666   4.612 -0.1445 -0.0591  0.9975
 6677TIP3   OH241521   2.246   6.153  13.438  0.1629 -0.3983  0.7936
 6677TIP3    H141522   2.331   6.149  13.394 -0.2187  0.5142 -0.0502
 6677TIP3    H241523   2.257   6.221  13.504  0.9503 -2.2190  2.6775
 6678TIP3   OH241524   3.271   7.053  11.761 -0.4854 -0.2320 -0.7182
 6678TIP3    H141525   3.191   7.026  11.805 -0.9000  0.6141 -0.9136
 6678TIP3    H241526   3.248   7.052  11.668 -1.0695  2.3059 -0.6762
 6679TIP3   OH241527   3.415   4.719  15.353  0.0601 -0.6866  0.4711
 6679TIP3    H141528   3.394   4.657  15.283  0.7156  0.2951 -0.6263
 6679TIP3    H241529   3.384   4.803  15.321  0.6705 -0.1631  1.2227
 6680TIP3   OH241530   4.770   5.454  12.140 -0.6026 -0.2489 -0.2406
 6680TIP3    H141531   4.763   5.359  12.141 -2.9751 -0.1610 -1.2184
 6680TIP3    H241532   4.715   5.484  12.212 -1.5833  0.3889 -1.2122
 6681TIP3   OH241533   3.185   2.147   2.106  0.5700 -0.0697  0.3533
 6681TIP3    H141534   3.122   2.082   2.076  0.6552  0.7729 -1.8218
 6681TIP3    H241535   3.213   2.192   2.026  0.7289  2.4376  1.7135
 6682TIP3   OH241536   2.801   1.739   3.845  0.2234 -0.1337 -0.1501
 6682TIP3    H141537   2.755   1.682   3.784 -1.9831  0.6602  0.6531
 6682TIP3    H241538   2.879   1.767   3.797 -0.4753 -0.9781 -1.8909
 6683TIP3   OH241539   1.405   2.472  13.827  0.0771 -0.0736  0.3405
 6683TIP3    H141540   1.329   2.528  13.840 -0.4187 -1.1237  2.2919
 6683TIP3    H241541   1.470   2.504  13.890  0.4577 -0.5385  0.1913
 6684TIP3   OH241542   0.055   3.068   1.970  0.3864  0.1523 -0.1485
 6684TIP3    H141543   0.102   3.118   2.037  0.4682 -0.1075 -0.0112
 6684TIP3    H241544  -0.028   3.115   1.959  0.4078  0.2441  0.0746
 6685TIP3   OH241545   3.791   0.482  11.169  0.4866 -0.5547  0.2825
 6685TIP3    H141546   3.696   0.475  11.177  0.3392  0.6137 -0.3061
 6685TIP3    H241547   3.814   0.427  11.094 -0.0200  0.9644 -1.0292
 6686TIP3   OH241548   2.297   4.220   0.719 -0.4011  0.1464 -0.3886
 6686TIP3    H141549   2.202   4.226   0.725 -0.4865  0.7584 -1.8852
 6686TIP3    H241550   2.328   4.309   0.740 -0.3538  0.6654 -2.4733
 6687TIP3   OH241551   0.050   1.050  12.607  0.0966 -0.3575  0.2257
 6687TIP3    H141552   0.044   1.122  12.544  0.8142  0.2705  0.8522
 6687TIP3    H241553   0.008   0.976  12.563  2.3197 -0.5103 -1.8501
 6688TIP3   OH241554   4.412   2.035  14.074 -0.0375  0.7410  0.0928
 6688TIP3    H141555   4.417   2.098  14.002 -1.9541  1.1404  0.2536
 6688TIP3    H241556   4.370   1.958  14.035 -0.9890  0.9205  0.7410
 6689TIP3   OH241557   1.373   0.946  10.409 -0.1587  0.4613 -0.0195
 6689TIP3    H141558   1.466   0.940  10.385 -0.4266 -0.1133 -0.9980
 6689TIP3    H241559   1.336   1.009  10.347 -0.3372  1.0554  0.6776
 6690TIP3   OH241560   0.590   2.770   4.108  0.3790 -0.5157 -0.2650
 6690TIP3    H141561   0.513   2.747   4.161  1.1348  0.0801  1.1242
 6690TIP3    H241562   0.615   2.857   4.137  1.6765 -0.7519 -0.6013
 6691TIP3   OH241563   5.040   5.424  12.912  0.0257 -0.8817  0.2722
 6691TIP3    H141564   5.045   5.511  12.951 -2.3213 -0.8546  0.6501
 6691TIP3    H241565   5.131   5.394  12.907  0.7408  0.9387  1.5933
 6692TIP3   OH241566   2.131   3.352  12.190  0.2354 -0.3075  0.2125
 6692TIP3    H141567   2.115   3.446  12.175  0.2393  0.0474  2.1780
 6692TIP3    H241568   2.226   3.344  12.193  0.2537 -0.5114 -0.5895
 6693TIP3   OH241569   5.538   5.433  13.815 -0.5806 -0.2062  0.5874
 6693TIP3    H141570   5.564   5.499  13.879  0.8133 -2.0846  2.1120
 6693TIP3    H241571   5.618   5.414  13.766 -1.4222  0.5505 -1.1818
 6694TIP3   OH241572   2.753   6.570  12.516 -0.0715  0.2505 -0.1721
 6694TIP3    H141573   2.676   6.626  12.528 -0.5909 -0.9769  3.4663
 6694TIP3    H241574   2.826   6.632  12.504 -0.9773  1.6490  1.1986
 6695TIP3   OH241575   5.981   3.791  10.990 -0.5998 -0.3256  0.5356
 6695TIP3    H141576   5.890   3.780  10.962 -1.2100  0.6368  1.9863
 6695TIP3    H241577   6.001   3.882  10.968 -0.1665 -0.3795  0.6976
 6696TIP3   OH241578   0.249   6.044  14.908  0.0900 -0.2462 -0.1256
 6696TIP3    H141579   0.331   6.023  14.862 -0.3825  0.4825 -1.3869
 6696TIP3    H241580   0.271   6.120  14.962  0.1669  0.2606 -0.8388
 6697TIP3   OH241581   2.492   0.153  15.090 -0.6182  0.4941 -0.7392
 6697TIP3    H141582   2.515   0.187  15.003 -1.3571  0.5659 -0.9204
 6697TIP3    H241583   2.434   0.220  15.126  0.7212  1.1008  0.3637
 6698TIP3   OH241584   5.480   7.140  14.419 -0.1221 -0.1062  0.3300
 6698TIP3    H141585   5.515   7.179  14.499 -2.5456  0.2415  1.3069
 6698TIP3    H241586   5.405   7.195  14.397  0.6062 -0.0643 -2.3567
 6699TIP3   OH241587   0.014   0.843  14.402  0.3402 -0.2904 -0.1522
 6699TIP3    H141588   0.063   0.833  14.484  0.6605 -1.7268 -0.4789
 6699TIP3    H241589   0.082   0.852  14.335  0.1353 -1.0154 -0.4639
 6700TIP3   OH241590   1.677   2.430  13.171  0.0915 -0.5584 -0.5431
 6700TIP3    H141591   1.665   2.494  13.101  0.7618  0.9223  0.6262
 6700TIP3    H241592   1.761   2.387  13.150 -0.0514 -0.6203 -0.9994
 6701TIP3   OH241593   2.209   1.095  11.662  0.0446  0.2054 -0.8958
 6701TIP3    H141594   2.293   1.067  11.627 -0.6907 -2.0332 -1.0232
 6701TIP3    H241595   2.144   1.047  11.611 -1.2379  0.4003  0.4723
 6702TIP3   OH241596   2.033   5.278   4.138 -0.3579 -0.9534  0.3151
 6702TIP3    H141597   2.056   5.186   4.128 -1.0377 -0.8956 -2.7468
 6702TIP3    H241598   2.101   5.314   4.195  2.0443 -2.5867 -1.3249
 6703TIP3   OH241599   3.878   2.540   5.918 -0.6398  0.2139  0.0822
 6703TIP3    H141600   3.866   2.570   6.008  0.0242 -0.4805  0.4187
 6703TIP3    H241601   3.936   2.604   5.879 -0.3969  0.1631  0.3536
 6704TIP3   OH241602   2.038   2.747   2.008  0.1040  0.3494 -0.0805
 6704TIP3    H141603   1.986   2.749   1.927  1.0548  1.0098 -0.7001
 6704TIP3    H241604   2.018   2.830   2.051  0.7311  0.6531 -0.3759
 6705TIP3   OH241605   5.239   3.566   5.156  0.7606  0.5041  0.1379
 6705TIP3    H141606   5.157   3.598   5.118  1.7495  1.7173 -1.0852
 6705TIP3    H241607   5.262   3.633   5.221  0.5734 -0.0641  0.8008
 6706TIP3   OH241608   0.849   1.976   2.095 -0.7906 -0.4757 -0.0801
 6706TIP3    H141609   0.799   2.021   2.163 -1.4706 -0.4543 -0.5771
 6706TIP3    H241610   0.927   2.030   2.083 -1.8181  0.9032 -1.0222
 6707TIP3   OH241611   6.763   5.095  12.217  0.2226 -0.1415 -0.5675
 6707TIP3    H141612   6.715   5.021  12.253  1.3101 -1.1443 -1.0994
 6707TIP3    H241613   6.843   5.099  12.270 -0.2730  1.3276  0.1316
 6708TIP3   OH241614   6.165   1.382  15.313 -0.7913 -0.1822 -0.2046
 6708TIP3    H141615   6.150   1.440  15.238 -1.5740  2.2544  1.6851
 6708TIP3    H241616   6.259   1.368  15.314 -0.4844  1.6362 -0.3882
 6709TIP3   OH241617   1.957   6.844   1.426  0.6384 -0.1464  0.8427
 6709TIP3    H141618   2.003   6.891   1.495  3.0833 -0.6479 -0.3493
 6709TIP3    H241619   1.961   6.752   1.452  0.8830 -0.2583  0.4180
 6710TIP3   OH241620   4.157   1.551  12.871 -0.2648  0.1754  0.0999
 6710TIP3    H141621   4.190   1.465  12.843 -0.5217  0.2000 -0.2802
 6710TIP3    H241622   4.178   1.555  12.965  0.0507 -0.1618  0.0467
 6711TIP3   OH241623   0.970   0.101  14.694  0.4722  0.3547 -0.0722
 6711TIP3    H141624   0.932   0.014  14.677  0.3752 -0.1032  2.2420
 6711TIP3    H241625   1.042   0.108  14.630  0.5747 -1.4863 -0.2157
 6712TIP3   OH241626   3.667   0.397   0.408 -0.0454 -0.1309  0.4392
 6712TIP3    H141627   3.584   0.378   0.363  1.4960 -0.3791 -2.5218
 6712TIP3    H241628   3.702   0.311   0.432  2.6113 -0.9566 -4.8679
 6713TIP3   OH241629   1.150   6.658   4.261  0.2373  0.6969  0.4071
 6713TIP3    H141630   1.226   6.650   4.204 -1.4589 -0.6353 -1.8825
 6713TIP3    H241631   1.184   6.648   4.349  2.6536 -0.2154 -0.5529
 6714TIP3   OH241632   3.390   0.442  10.248 -0.4117 -0.3150  0.3051
 6714TIP3    H141633   3.437   0.381  10.190  1.1835 -0.0236  1.2220
 6714TIP3    H241634   3.300   0.441  10.215  0.1596 -1.0910 -1.3926
 6715TIP3   OH241635   1.400   2.673   9.896  0.3592 -0.2328 -0.1672
 6715TIP3    H141636   1.470   2.683   9.831 -0.6821 -2.1531 -1.7031
 6715TIP3    H241637   1.328   2.635   9.846 -0.8936 -0.6970  1.9213
 6716TIP3   OH241638   6.005   3.755   0.285 -0.7452  0.2103 -0.0261
 6716TIP3    H141639   5.920   3.773   0.247 -0.2003 -1.2268 -2.0765
 6716TIP3    H241640   5.998   3.666   0.319 -0.7493  0.9292  2.0258
 6717TIP3   OH241641   5.728   0.502  12.457 -0.1270 -0.1237 -0.1221
 6717TIP3    H141642   5.642   0.524  12.494 -0.9438 -0.5042 -1.7005
 6717TIP3    H241643   5.789   0.556  12.507 -1.3621  0.7386  0.5336
 6718TIP3   OH241644   3.226   5.040  12.335  0.2205  0.3539 -0.4503
 6718TIP3    H141645   3.219   5.069  12.426  1.7768  1.6767 -0.7029
 6718TIP3    H241646   3.200   5.117  12.284  0.3379 -0.0447 -1.1214
 6719TIP3   OH241647   0.095   3.441  13.599  0.6668  0.0187 -0.2497
 6719TIP3    H141648   0.062   3.413  13.685  1.1561  1.6057  0.4845
 6719TIP3    H241649   0.018   3.474  13.553  0.7673  1.4142  0.5252
 6720TIP3   OH241650   7.132   6.632   1.146  0.1280  0.4736  0.2010
 6720TIP3    H141651   7.152   6.640   1.240 -0.3791 -1.4354  0.5171
 6720TIP3    H241652   7.190   6.695   1.104 -0.7893  2.5919  1.8923
 6721TIP3   OH241653   1.285   0.331  14.584  0.6331  0.6610  0.0174
 6721TIP3    H141654   1.338   0.409  14.567 -0.8423  1.6369 -0.2992
 6721TIP3    H241655   1.196   0.365  14.594  0.2634 -0.7710  1.9768
 6722TIP3   OH241656   2.513   2.707   2.122 -0.0485 -0.2552 -0.0337
 6722TIP3    H141657   2.522   2.687   2.215  0.3591 -0.4565 -0.1117
 6722TIP3    H241658   2.448   2.644   2.090  0.0062 -0.3610  0.0632
 6723TIP3   OH241659   1.652   2.975  10.589  0.4412  0.1289 -0.6181
 6723TIP3    H141660   1.697   3.059  10.603 -0.5434  0.3134  2.0469
 6723TIP3    H241661   1.559   2.997  10.596  0.0158 -0.7938 -2.6637
 6724TIP3   OH241662   2.471   4.471  13.410  0.0841 -0.1722 -0.5971
 6724TIP3    H141663   2.432   4.524  13.479  0.0074  0.2072 -0.9280
 6724TIP3    H241664   2.435   4.507  13.329  0.5549 -0.2925 -0.8617
 6725TIP3   OH241665   6.541   3.123   9.469  0.3281 -1.0263 -0.1346
 6725TIP3    H141666   6.614   3.065   9.486  0.2079 -1.3045 -0.5643
 6725TIP3    H241667   6.577   3.211   9.481  0.6053 -1.1767  0.1402
 6726TIP3   OH241668   6.916   5.489  14.723 -0.0033  0.0634  0.7398
 6726TIP3    H141669   6.973   5.448  14.788  0.2816 -0.8287 -0.0483
 6726TIP3    H241670   6.960   5.571  14.701  1.1213 -0.6964  0.0078
 6727TIP3   OH241671   3.070   0.526   4.363  0.1748 -0.0435 -0.4399
 6727TIP3    H141672   3.132   0.462   4.399  1.8810  0.4942 -2.2606
 6727TIP3    H241673   3.046   0.490   4.278 -0.9138  0.4958 -0.3751
 6728TIP3   OH241674   3.515   1.027   9.875 -0.3049 -0.2898 -0.4068
 6728TIP3    H141675   3.537   1.117   9.898  1.2328 -0.4364 -1.2321
 6728TIP3    H241676   3.426   1.033   9.840 -0.8490  0.6384  1.0362
 6729TIP3   OH241677   0.158   1.298  11.326  0.2581  0.5012  0.1391
 6729TIP3    H141678   0.231   1.308  11.387 -1.1755  1.9366  1.7282
 6729TIP3    H241679   0.152   1.382  11.281 -0.0787  0.2129 -0.3713
 6730TIP3   OH241680   4.097   3.854  10.323 -0.3635  0.7961  0.3171
 6730TIP3    H141681   4.108   3.808  10.407 -0.7919  0.3606  0.1381
 6730TIP3    H241682   4.181   3.843  10.279  0.0802  1.5534  0.9387
 6731TIP3   OH241683   6.951   3.620  12.846 -0.7672  0.4208 -0.1084
 6731TIP3    H141684   7.021   3.669  12.804  0.3659  0.6055  1.8540
 6731TIP3    H241685   6.897   3.687  12.889 -1.8354  0.2328 -1.0990
 6732TIP3   OH241686   5.572   6.164  12.778 -0.4059 -0.2599  0.0839
 6732TIP3    H141687   5.605   6.249  12.808 -1.0560  0.3816 -0.9764
 6732TIP3    H241688   5.486   6.184  12.742 -1.5415 -1.7187  1.7981
 6733TIP3   OH241689   4.764   2.704  15.728  0.1836 -0.5661 -0.1458
 6733TIP3    H141690   4.798   2.713  15.817  0.0061  0.2498 -0.1458
 6733TIP3    H241691   4.747   2.611  15.717  1.9879 -0.9414  0.0118
 6734TIP3   OH241692   6.087   0.105  14.170  0.7378 -0.3755 -0.5164
 6734TIP3    H141693   6.043   0.189  14.185  2.3843  0.1201  2.2455
 6734TIP3    H241694   6.034   0.041  14.218  1.5943 -0.2029  0.6960
 6735TIP3   OH241695   6.608   5.415  14.410 -0.2150 -0.5440  0.4509
 6735TIP3    H141696   6.541   5.365  14.457 -2.3515  0.9325 -0.8231
 6735TIP3    H241697   6.687   5.407  14.464 -1.6747 -1.4930  2.5906
 6736TIP3   OH241698   5.891   6.155   0.559  0.0195  0.1329 -0.3482
 6736TIP3    H141699   5.845   6.178   0.479 -0.7884 -0.9957 -0.2188
 6736TIP3    H241700   5.941   6.234   0.581 -1.1526  1.0719 -0.9658
 6737TIP3   OH241701   4.716   0.195   1.529 -0.0278 -0.2737 -0.1601
 6737TIP3    H141702   4.635   0.153   1.557  0.8236 -2.5599 -0.9224
 6737TIP3    H241703   4.717   0.185   1.434  2.5847 -3.2901  0.0292
 6738TIP3   OH241704   5.058   1.332   5.141 -0.4717  0.6519  0.2931
 6738TIP3    H141705   5.052   1.251   5.191 -0.6731  0.8308  0.5651
 6738TIP3    H241706   5.033   1.400   5.203  0.3803  1.0002  0.2694
 6739TIP3   OH241707   1.778   5.208  10.418  0.0019  0.4036  0.7443
 6739TIP3    H141708   1.872   5.208  10.437  0.5985  1.0204 -1.7948
 6739TIP3    H241709   1.768   5.270  10.346 -2.1892 -0.4867  0.2004
 6740TIP3   OH241710   3.960   6.034  13.401 -0.1588  0.0582  0.3763
 6740TIP3    H141711   3.879   6.045  13.451 -1.6702 -0.3999 -1.7991
 6740TIP3    H241712   3.967   5.939  13.388 -0.2329  0.1999 -0.8458
 6741TIP3   OH241713   1.592   5.444  12.961 -0.0443  0.2398 -0.0801
 6741TIP3    H141714   1.654   5.493  12.907 -1.8318  3.1619  0.3341
 6741TIP3    H241715   1.646   5.381  13.008  2.3929  1.6304 -0.8284
 6742TIP3   OH241716   6.007   1.296   5.028 -0.3126 -0.0806 -0.3273
 6742TIP3    H141717   5.969   1.378   5.060 -0.4240  0.1887 -1.1242
 6742TIP3    H241718   5.978   1.291   4.936 -0.9826 -1.4114 -0.0708
 6743TIP3   OH241719   0.951   6.108  10.249 -0.1550  0.0903 -0.3147
 6743TIP3    H141720   0.921   6.132  10.161 -0.8554  1.2070  0.2039
 6743TIP3    H241721   0.996   6.186  10.281 -1.4191  0.3327  0.9631
 6744TIP3   OH241722   5.046   4.042   1.568  1.0133  0.9825  0.0110
 6744TIP3    H141723   5.110   3.974   1.588  1.6857  1.7556  0.5592
 6744TIP3    H241724   5.025   4.082   1.653  0.9750  1.7519 -0.3456
 6745TIP3   OH241725   4.315   0.552  15.322  0.3986  0.3684  0.2081
 6745TIP3    H141726   4.221   0.567  15.327 -0.0359 -1.3793 -1.3857
 6745TIP3    H241727   4.334   0.490  15.392 -0.0700 -0.9100 -0.7579
 6746TIP3   OH241728   5.232   2.671   0.853 -0.1284  0.5527 -0.8564
 6746TIP3    H141729   5.206   2.645   0.942  0.7581 -1.3064 -1.1083
 6746TIP3    H241730   5.150   2.696   0.811 -0.9510 -1.0582 -0.3106
 6747TIP3   OH241731   2.974   4.449   4.367 -0.0648  0.2550 -0.8683
 6747TIP3    H141732   2.881   4.440   4.387 -0.5107  0.1732 -2.7246
 6747TIP3    H241733   2.996   4.538   4.393 -0.0667 -0.4003  1.5965
 6748TIP3   OH241734   1.143   5.587  13.508 -0.3923  0.7496 -0.1574
 6748TIP3    H141735   1.169   5.665  13.459 -0.7175  0.6246 -0.5404
 6748TIP3    H241736   1.074   5.547  13.454 -0.7440  0.5990  0.3952
 6749TIP3   OH241737   0.587   0.661  11.283  0.9734 -0.2110 -0.0947
 6749TIP3    H141738   0.610   0.660  11.190 -0.7490 -1.1936 -0.5502
 6749TIP3    H241739   0.536   0.742  11.294  0.1170 -0.7202 -0.2917
 6750TIP3   OH241740   3.604   1.848  14.454 -0.0928 -0.6523  0.0628
 6750TIP3    H141741   3.548   1.920  14.483  0.6534 -0.5675  1.3229
 6750TIP3    H241742   3.652   1.884  14.379 -0.1742 -0.0427  0.2970
 6751TIP3   OH241743   4.645   0.975   9.912 -0.2145  0.0332  0.7374
 6751TIP3    H141744   4.630   0.931   9.829  1.6728 -0.8542  0.8087
 6751TIP3    H241745   4.666   0.904   9.973 -2.7842  0.5374  2.3290
 6752TIP3   OH241746   4.073   6.276   5.357 -0.4659 -0.1375 -0.3454
 6752TIP3    H141747   4.158   6.256   5.395  0.2951  2.4535 -0.5047
 6752TIP3    H241748   4.093   6.319   5.274 -1.8610  1.6173  0.1649
 6753TIP3   OH241749   0.992   2.549   4.481 -0.2313  0.3642  0.1112
 6753TIP3    H141750   0.924   2.509   4.426 -1.6557  3.8200 -0.9081
 6753TIP3    H241751   0.952   2.555   4.567 -0.3746  0.4404  0.0403
 6754TIP3   OH241752   2.084   5.521  14.514  0.3052 -0.1856 -0.9622
 6754TIP3    H141753   2.172   5.522  14.552 -0.0391 -0.1977 -0.1605
 6754TIP3    H241754   2.089   5.584  14.441  0.3129  1.7426  0.6130
 6755TIP3   OH241755   4.925   3.508   4.343 -0.5855 -0.5006  0.1156
 6755TIP3    H141756   4.857   3.574   4.334 -0.0529 -0.0535 -0.7124
 6755TIP3    H241757   4.877   3.425   4.348 -1.1989 -0.1675 -0.1858
 6756TIP3   OH241758   7.049   0.759  15.324 -0.3636  0.4652 -0.0180
 6756TIP3    H141759   6.971   0.739  15.376  0.2253 -0.2656  0.6199
 6756TIP3    H241760   7.025   0.834  15.271 -0.6400  1.9729  2.1300
 6757TIP3   OH241761   6.212   0.722   0.765 -0.3591 -0.1931  0.2286
 6757TIP3    H141762   6.304   0.708   0.743  0.0493  1.0810  1.0315
 6757TIP3    H241763   6.173   0.755   0.684  0.6213  2.2496  0.6459
 6758TIP3   OH241764   1.227   0.748  14.498 -0.1279 -0.1534  0.0300
 6758TIP3    H141765   1.194   0.734  14.409 -1.2800  1.0169  0.2469
 6758TIP3    H241766   1.322   0.742  14.489 -0.2822 -1.8731 -0.9321
 6759TIP3   OH241767   5.009   5.076   4.228  0.0031 -0.3342  0.0626
 6759TIP3    H141768   4.916   5.091   4.210  0.4833  2.0078 -0.9394
 6759TIP3    H241769   5.041   5.161   4.258  1.9499 -0.9335 -0.1899
 6760TIP3   OH241770   0.151   1.446  13.288 -0.5789 -0.2979 -0.1951
 6760TIP3    H141771   0.246   1.450  13.291 -0.5465 -0.3327 -1.0899
 6760TIP3    H241772   0.125   1.432  13.379  0.3008 -0.8562 -0.0163
 6761TIP3   OH241773   6.240   5.744  14.315 -0.6690  0.3564  0.1873
 6761TIP3    H141774   6.281   5.735  14.229 -1.1410 -0.5449  0.0445
 6761TIP3    H241775   6.307   5.711  14.376 -1.4525 -1.9991 -0.1224
 6762TIP3   OH241776   4.549   5.026  13.753  0.2172 -0.3383 -0.4008
 6762TIP3    H141777   4.642   5.002  13.749  0.0800 -0.6972 -2.0710
 6762TIP3    H241778   4.503   4.945  13.735 -0.3757  0.1699 -1.2167
 6763TIP3   OH241779   4.664   2.280  14.077  0.7421  0.5209  0.2740
 6763TIP3    H141780   4.587   2.320  14.118  0.3444 -0.9924  1.0676
 6763TIP3    H241781   4.630   2.240  13.997  0.3936 -1.1548  1.1897
 6764TIP3   OH241782   2.226   6.298  14.588  0.4049 -0.2271 -0.0360
 6764TIP3    H141783   2.174   6.275  14.511 -0.5485  1.9071 -0.1181
 6764TIP3    H241784   2.166   6.349  14.643  0.9522 -1.9854  2.3310
 6765TIP3   OH241785   0.645   7.050  15.736 -0.2284 -0.5415 -0.3554
 6765TIP3    H141786   0.552   7.056  15.714 -0.5466 -1.7254  0.5558
 6765TIP3    H241787   0.679   7.139  15.722 -1.6215  0.0509 -0.1318
 6766TIP3   OH241788   5.232   3.927  11.683  0.2948 -0.1332  0.6585
 6766TIP3    H141789   5.182   4.001  11.718 -0.3017  0.4890 -1.3689
 6766TIP3    H241790   5.318   3.935  11.724 -0.2509  0.7094  1.7007
 6767TIP3   OH241791   5.499   4.106   0.943 -0.2940 -0.1224  0.1624
 6767TIP3    H141792   5.580   4.079   0.900  0.3953  1.6679  0.2538
 6767TIP3    H241793   5.483   4.195   0.912 -1.5998 -0.0164  1.0456
 6768TIP3   OH241794   0.764   1.247   4.743  0.1809 -0.0223 -0.0173
 6768TIP3    H141795   0.682   1.225   4.787  0.7296  1.4815  1.8646
 6768TIP3    H241796   0.779   1.339   4.764  2.0997 -0.1294 -0.7336
 6769TIP3   OH241797   2.574   3.399   2.932 -0.0251 -0.3653  0.8258
 6769TIP3    H141798   2.620   3.440   3.005  2.4284 -0.4220 -0.5464
 6769TIP3    H241799   2.592   3.305   2.941 -0.8668 -0.5255  0.8954
 6770TIP3   OH241800   0.773   3.719   1.619  0.3731 -0.4067 -0.3677
 6770TIP3    H141801   0.779   3.720   1.523  0.1834  0.4672 -0.3776
 6770TIP3    H241802   0.856   3.756   1.648 -0.5303  1.6942 -0.2733
 6771TIP3   OH241803   2.020   2.309  14.049  0.7418  0.0555 -0.1385
 6771TIP3    H141804   2.075   2.352  13.984  2.7644 -0.6369  1.0062
 6771TIP3    H241805   2.031   2.215  14.033  2.6616 -0.2104  2.1337
 6772TIP3   OH241806   4.701   6.818  13.685  0.3820 -0.4903 -0.2887
 6772TIP3    H141807   4.614   6.853  13.671 -0.1195 -1.2594  0.7988
 6772TIP3    H241808   4.728   6.786  13.598 -0.4659 -0.3735 -0.6010
 6773TIP3   OH241809   1.813   6.618  15.735 -0.2713  0.3412  0.8067
 6773TIP3    H141810   1.768   6.534  15.725  0.5017 -0.1299  1.2009
 6773TIP3    H241811   1.846   6.617  15.825  0.3788  0.7437  0.5756
 6774TIP3   OH241812   2.688   1.125  14.290  0.2903  0.0261 -0.1380
 6774TIP3    H141813   2.732   1.188  14.347  2.2228 -0.2828 -1.1853
 6774TIP3    H241814   2.718   1.148  14.202 -0.5200 -1.1453 -0.7404
 6775TIP3   OH241815   5.673   6.094  11.434  0.1153 -0.2679  0.3018
 6775TIP3    H141816   5.698   6.019  11.488  0.6943  0.1484  0.6219
 6775TIP3    H241817   5.682   6.170  11.492 -1.0041 -0.0012  0.1478
 6776TIP3   OH241818   3.428   6.035  12.229  0.2824 -0.4605  0.1303
 6776TIP3    H141819   3.350   6.021  12.283  0.1335 -0.8166 -0.1688
 6776TIP3    H241820   3.416   5.976  12.154  0.0165  0.7301 -0.7902
 6777TIP3   OH241821   3.285   6.845   1.983  0.4873  0.7912 -0.0410
 6777TIP3    H141822   3.238   6.779   2.034  1.6991  0.5757  0.8325
 6777TIP3    H241823   3.219   6.912   1.964 -1.2274 -1.3591 -2.3714
 6778TIP3   OH241824   1.266   3.323  13.278  1.3454  0.0725  0.4215
 6778TIP3    H141825   1.197   3.279  13.327  1.7067 -0.4972  0.4267
 6778TIP3    H241826   1.220   3.385  13.222  0.8008 -0.5957  0.1122
 6779TIP3   OH241827   6.857   5.126   0.349 -0.0957 -0.4422  0.0724
 6779TIP3    H141828   6.822   5.176   0.422  1.9984  1.3756 -0.0805
 6779TIP3    H241829   6.854   5.186   0.274  0.4808 -1.2616 -0.6378
 6780TIP3   OH241830   2.560   5.811  15.662  0.2283 -0.3618  0.2360
 6780TIP3    H141831   2.593   5.722  15.653 -0.4562 -0.8328  1.8825
 6780TIP3    H241832   2.587   5.838  15.750  0.3999  1.0514 -0.2239
 6781TIP3   OH241833   0.950   3.704   0.632  0.4430  0.8668 -0.1080
 6781TIP3    H141834   0.942   3.632   0.694 -1.9129 -0.6083 -1.9297
 6781TIP3    H241835   0.976   3.662   0.550  1.6676  2.4972 -0.6045
 6782TIP3   OH241836   1.447   1.733   1.922 -0.7950 -0.7028  0.2547
 6782TIP3    H141837   1.449   1.740   2.017 -1.2419  4.3489  0.1889
 6782TIP3    H241838   1.358   1.705   1.901 -0.6473 -2.0079  1.2753
 6783TIP3   OH241839   0.839   6.151   3.988 -0.0016 -0.3686 -0.1411
 6783TIP3    H141840   0.930   6.174   3.974 -0.0331 -0.5896 -0.7643
 6783TIP3    H241841   0.838   6.055   3.987  0.2139 -0.4877  2.9314
 6784TIP3   OH241842   4.182   5.118  10.820  0.5060  0.3098  0.0865
 6784TIP3    H141843   4.253   5.074  10.773  0.4808  1.0150 -0.6434
 6784TIP3    H241844   4.143   5.176  10.755 -1.3738 -0.7572  0.1955
 6785TIP3   OH241845   4.092   3.977   5.459  0.5379  0.6860  0.6549
 6785TIP3    H141846   3.997   3.980   5.447  0.4747 -2.3328 -0.3190
 6785TIP3    H241847   4.104   3.963   5.553  0.0095  0.7199  0.7308
 6786TIP3   OH241848   3.376   5.578   0.772 -0.6102 -0.0032 -0.0333
 6786TIP3    H141849   3.442   5.595   0.705 -0.0126 -1.5477  0.1081
 6786TIP3    H241850   3.425   5.577   0.854 -1.0812  0.4066  0.2527
 6787TIP3   OH241851   3.057   7.014  12.851  0.1441  0.3796  0.4391
 6787TIP3    H141852   2.969   7.023  12.887  0.3709 -0.3142  1.2017
 6787TIP3    H241853   3.108   6.975  12.922  1.1686  1.1672  0.1521
 6788TIP3   OH241854   0.348   6.581  13.854 -0.6318 -0.2145  0.5142
 6788TIP3    H141855   0.321   6.548  13.940 -1.3088 -0.4895  0.2028
 6788TIP3    H241856   0.407   6.514  13.821 -0.1721  0.0098  0.8638
 6789TIP3   OH241857   5.462   7.136   0.125  0.5294  0.3247  0.4872
 6789TIP3    H141858   5.484   7.170   0.038  2.1562 -0.3085  0.6191
 6789TIP3    H241859   5.369   7.111   0.118  0.0571  2.1810 -0.4166
 6790TIP3   OH241860   0.543   6.443   3.020 -0.0501 -0.6026 -0.0476
 6790TIP3    H141861   0.466   6.472   3.069  2.6514  3.4038  2.4856
 6790TIP3    H241862   0.609   6.425   3.088  2.0439 -1.1683 -2.1017
 6791TIP3   OH241863   0.248   3.105  15.106  0.3606 -0.2713  0.2351
 6791TIP3    H141864   0.162   3.115  15.147  0.2045  2.4200 -0.5768
 6791TIP3    H241865   0.229   3.070  15.019 -0.0829  1.3110 -0.3438
 6792TIP3   OH241866   6.699   0.447  10.505 -0.0764 -0.4577 -0.1960
 6792TIP3    H141867   6.772   0.488  10.457 -0.7098  1.6749  0.5348
 6792TIP3    H241868   6.681   0.507  10.577  0.2184 -3.0830  2.2282
 6793TIP3   OH241869   5.853   6.381  11.905  0.3673  0.0180  0.2921
 6793TIP3    H141870   5.874   6.473  11.917  0.9386 -0.1008  0.2651
 6793TIP3    H241871   5.851   6.345  11.993 -2.1995  0.5185  0.5023
 6794TIP3   OH241872   3.772   1.877  13.060 -0.1978  0.1013 -0.2710
 6794TIP3    H141873   3.709   1.935  13.103 -0.6453 -0.0812 -0.6650
 6794TIP3    H241874   3.852   1.930  13.053 -0.0263  0.0295  1.0213
 6795TIP3   OH241875   0.756   1.764  15.499 -0.1001  0.0679 -0.0778
 6795TIP3    H141876   0.690   1.797  15.559  1.2187  0.5443  1.1739
 6795TIP3    H241877   0.836   1.809  15.524  1.0417 -1.6016 -0.5414
 6796TIP3   OH241878   0.841   3.231   4.588 -0.2513  0.3596  0.3970
 6796TIP3    H141879   0.776   3.210   4.655 -1.0601  0.7153 -0.2638
 6796TIP3    H241880   0.908   3.280   4.635 -0.4441 -0.0224  1.0925
 6797TIP3   OH241881   0.677   2.414  14.557  0.3735  0.4326  0.1529
 6797TIP3    H141882   0.655   2.489  14.612  0.2363  1.3829 -1.1494
 6797TIP3    H241883   0.598   2.399  14.505  0.1739 -1.0399  0.8418
 6798TIP3   OH241884   3.119   3.393  13.538 -0.0337 -0.4959  0.3507
 6798TIP3    H141885   3.043   3.428  13.585 -0.8226 -1.8951  0.1884
 6798TIP3    H241886   3.100   3.412  13.446  1.1444  1.5589  0.4743
 6799TIP3   OH241887   0.848   6.585   2.346  0.2394  0.2365 -0.2031
 6799TIP3    H141888   0.919   6.522   2.356  0.4734  0.5046 -0.1573
 6799TIP3    H241889   0.892   6.671   2.346 -0.1923  0.4774  1.1538
 6800TIP3   OH241890   6.744   0.169  10.497  0.4722 -0.0039 -0.2906
 6800TIP3    H141891   6.728   0.257  10.533 -0.1219 -0.5921  0.9765
 6800TIP3    H241892   6.693   0.167  10.416 -2.9068 -0.4532  1.6413
 6801TIP3   OH241893   2.197   6.988  14.904  0.7650 -0.2244  1.0216
 6801TIP3    H141894   2.189   7.083  14.906  3.6477  0.1280  0.0030
 6801TIP3    H241895   2.251   6.970  14.827 -0.5083 -2.8067  0.6034
 6802TIP3   OH241896   0.993   2.046  13.510 -0.0762 -0.6540 -0.1882
 6802TIP3    H141897   0.952   1.972  13.466 -1.3882 -0.1467  0.1187
 6802TIP3    H241898   0.923   2.112  13.516  1.1548  0.7746 -0.8211
 6803TIP3   OH241899   6.224   4.425   0.091  0.2768  0.0694 -0.1584
 6803TIP3    H141900   6.207   4.427  -0.003 -1.4430 -2.8149 -0.0248
 6803TIP3    H241901   6.320   4.428   0.098  0.4566 -0.1201 -2.0319
 6804TIP3   OH241902   5.569   5.670   1.159  0.0819  0.0887 -0.0699
 6804TIP3    H141903   5.621   5.749   1.143 -0.6996  0.6552  0.1285
 6804TIP3    H241904   5.480   5.694   1.131 -0.4000 -0.3388  1.0541
 6805TIP3   OH241905   6.337   1.394   3.589  0.2010 -0.4230 -0.3766
 6805TIP3    H141906   6.258   1.345   3.568  0.1689 -0.2038 -0.7917
 6805TIP3    H241907   6.337   1.466   3.526  0.4967 -0.1683 -0.0839
 6806TIP3   OH241908   5.635   3.189  10.697 -0.0426  0.1412 -0.0011
 6806TIP3    H141909   5.542   3.192  10.673  0.0289 -1.8369 -0.6937
 6806TIP3    H241910   5.680   3.224  10.620 -0.1350 -0.6229 -0.4135
 6807TIP3   OH241911   2.020   6.530   0.614 -0.2597  0.1237  0.0716
 6807TIP3    H141912   2.102   6.491   0.645 -0.1092  1.0244  0.8777
 6807TIP3    H241913   1.952   6.473   0.650 -0.0156 -0.0024  0.3475
 6808TIP3   OH241914   5.240   5.671  14.633 -0.0147  0.1458 -0.6672
 6808TIP3    H141915   5.283   5.595  14.672  1.4954  1.2910  0.0329
 6808TIP3    H241916   5.152   5.641  14.612  0.6800 -1.9190 -0.8628
 6809TIP3   OH241917   3.363   2.514   3.699  0.0157  0.3570 -0.1608
 6809TIP3    H141918   3.419   2.486   3.628  0.5602 -1.5053  0.9400
 6809TIP3    H241919   3.359   2.439   3.758  0.2681  2.0769  2.1983
 6810TIP3   OH241920   3.459   6.878  13.057  0.8605 -0.6265 -0.3157
 6810TIP3    H141921   3.484   6.895  13.148 -0.9571  0.9382 -0.0377
 6810TIP3    H241922   3.490   6.955  13.010 -0.0042 -0.4479 -0.6189
 6811TIP3   OH241923   4.131   1.845  13.391 -0.1696 -0.1915  0.1605
 6811TIP3    H141924   4.180   1.927  13.399 -0.9640  0.4390 -1.0664
 6811TIP3    H241925   4.124   1.831  13.297 -0.9570 -1.1141  0.3409
 6812TIP3   OH241926   3.879   2.371   0.725 -0.0387  0.5038 -0.1518
 6812TIP3    H141927   3.838   2.387   0.810 -0.4618 -1.1132 -0.0227
 6812TIP3    H241928   3.972   2.390   0.739 -0.4925  3.2614 -0.1906
 6813TIP3   OH241929   4.201   1.089   9.904  0.1558 -0.8169  0.3422
 6813TIP3    H141930   4.119   1.134   9.883 -0.3239 -1.4268  0.8380
 6813TIP3    H241931   4.174   1.018   9.963  0.8351 -1.9623 -0.6803
 6814TIP3   OH241932   4.655   4.640   0.836  0.1632  0.4767  0.7021
 6814TIP3    H141933   4.653   4.735   0.846 -0.6999  0.5556 -0.0467
 6814TIP3    H241934   4.719   4.610   0.900 -2.0242  1.2320  3.4628
 6815TIP3   OH241935   6.390   0.428   9.260 -0.5656  0.4750 -0.3199
 6815TIP3    H141936   6.405   0.349   9.313  0.6593  1.0258  0.2118
 6815TIP3    H241937   6.474   0.444   9.217 -1.1415  0.8449 -1.3426
 6816TIP3   OH241938   1.967   6.111   5.715 -0.2792  0.1548  0.0094
 6816TIP3    H141939   1.889   6.159   5.741 -1.5390 -2.0893  0.6750
 6816TIP3    H241940   2.035   6.178   5.704 -1.9779  2.0524  0.5447
 6817TIP3   OH241941   3.572   0.518   0.761  0.2038  0.4012  0.3034
 6817TIP3    H141942   3.563   0.429   0.727  2.6632  0.5688 -1.0628
 6817TIP3    H241943   3.494   0.532   0.815  0.1221 -2.8575  1.2374
 6818TIP3   OH241944   5.755   6.611  13.028 -0.2806 -0.7787  0.0375
 6818TIP3    H141945   5.689   6.624  12.960  0.6759 -0.5953 -0.8710
 6818TIP3    H241946   5.802   6.532  13.000  0.7252 -0.1679 -0.0212
 6819TIP3   OH241947   6.970   5.760   1.209 -0.0810 -0.4354 -0.0202
 6819TIP3    H141948   6.894   5.817   1.220 -2.1110 -2.5094 -2.1922
 6819TIP3    H241949   6.933   5.674   1.192  2.8050 -1.6716 -0.6102
 6820TIP3   OH241950   6.327   0.018   0.082 -0.0208  0.1792  0.1181
 6820TIP3    H141951   6.321   0.065   0.165  2.0189 -0.1463  0.4826
 6820TIP3    H241952   6.419   0.023   0.058 -0.2862 -1.1678 -1.3011
 6821TIP3   OH241953   6.135   2.767   4.510  0.2314 -0.3886 -0.2341
 6821TIP3    H141954   6.191   2.744   4.436  0.1390 -0.2201 -0.3538
 6821TIP3    H241955   6.176   2.723   4.585  1.1580  0.6287 -0.1184
 6822TIP3   OH241956   1.921   1.996  10.319  0.1911 -0.7966  0.2529
 6822TIP3    H141957   1.903   2.090  10.325 -0.2910 -0.8448 -0.3379
 6822TIP3    H241958   1.843   1.954  10.356 -1.2961 -1.0192 -2.8385
 6823TIP3   OH241959   3.420   5.504  12.743  0.0902 -0.1130 -0.1122
 6823TIP3    H141960   3.359   5.548  12.684  2.3865  0.3083 -2.3923
 6823TIP3    H241961   3.383   5.515  12.830 -2.8967  0.2852 -1.3307
 6824TIP3   OH241962   3.859   0.628  13.029 -0.4182  0.5013  0.0883
 6824TIP3    H141963   3.859   0.572  13.107  0.4090 -0.4893 -0.6068
 6824TIP3    H241964   3.770   0.665  13.027 -0.0307  1.7484  2.3203
 6825TIP3   OH241965   2.059   0.601   2.288 -0.0473  0.6357  0.2624
 6825TIP3    H141966   2.154   0.587   2.285 -0.1509 -0.1072  0.1990
 6825TIP3    H241967   2.022   0.514   2.271 -0.7391  0.9255  0.2708
 6826TIP3   OH241968   5.835   6.761   2.377 -0.1225 -0.7629  0.3918
 6826TIP3    H141969   5.751   6.784   2.418  1.1315  3.2865  1.1869
 6826TIP3    H241970   5.828   6.795   2.287  0.6319 -0.3109  0.4899
 6827TIP3   OH241971   2.329   4.882   5.319  0.0554 -0.0662 -0.0186
 6827TIP3    H141972   2.351   4.971   5.290  0.6362 -0.3031 -0.3264
 6827TIP3    H241973   2.370   4.825   5.254 -2.0015 -0.5410 -0.9870
 6828TIP3   OH241974   3.018   3.903  12.959  0.2156  0.2452  0.1125
 6828TIP3    H141975   2.990   3.974  12.902 -1.9537 -0.9774 -0.4517
 6828TIP3    H241976   3.015   3.941  13.047 -1.6544  0.6915 -0.0975
 6829TIP3   OH241977   6.626   1.243   3.513  0.1605 -0.0502  0.7011
 6829TIP3    H141978   6.572   1.232   3.591 -1.4415  2.9036  0.1457
 6829TIP3    H241979   6.710   1.204   3.536 -1.3142 -2.4143  2.5677
 6830TIP3   OH241980   2.424   5.002  12.653 -0.0965  0.4428 -0.0088
 6830TIP3    H141981   2.479   4.991  12.730 -0.0702  0.4170 -0.0307
 6830TIP3    H241982   2.464   4.946  12.587  0.2299  0.9152 -0.2210
 6831TIP3   OH241983   5.386   1.530   5.031 -0.3751 -0.0969 -0.5542
 6831TIP3    H141984   5.425   1.538   5.118 -0.4722  1.6639 -0.6342
 6831TIP3    H241985   5.297   1.499   5.048  0.4114 -2.3132 -0.2429
 6832TIP3   OH241986   0.073   2.989   4.715 -0.2043  0.4658  0.2041
 6832TIP3    H141987   0.048   2.908   4.759 -0.1735 -0.2493 -1.0539
 6832TIP3    H241988   0.079   2.965   4.622  0.7345  1.6818 -0.0712
 6833TIP3   OH241989   4.357   1.675  10.797 -0.2883 -0.2331  0.3376
 6833TIP3    H141990   4.375   1.706  10.708  2.0717 -0.9080  0.5129
 6833TIP3    H241991   4.298   1.741  10.834  0.1842  1.0554 -1.1064
 6834TIP3   OH241992   2.861   1.565   3.332 -0.0867 -0.3847 -0.0786
 6834TIP3    H141993   2.881   1.501   3.263 -1.3078 -0.6817 -0.1836
 6834TIP3    H241994   2.789   1.617   3.296  2.4629  2.8119 -1.0559
 6835TIP3   OH241995   4.127   0.348   3.015 -0.2132 -0.4020  0.5641
 6835TIP3    H141996   4.109   0.309   2.930  0.9858 -2.3190  1.1352
 6835TIP3    H241997   4.055   0.410   3.028 -1.5641 -1.5570 -0.9352
 6836TIP3   OH241998   2.646   7.152   0.112 -0.0758  0.0464  0.4484
 6836TIP3    H141999   2.705   7.209   0.162 -0.1248 -1.8131  2.8236
 6836TIP3    H242000   2.622   7.083   0.174 -1.6548 -1.4190 -1.6611
 6837TIP3   OH242001   2.753   5.764  11.516  0.3002  0.2450 -0.4582
 6837TIP3    H142002   2.787   5.711  11.445  1.4776  1.8676 -1.1707
 6837TIP3    H242003   2.669   5.798  11.483  0.9879  1.2414 -1.2341
 6838TIP3   OH242004   3.112   0.772   1.976  0.3079  0.0390  0.2835
 6838TIP3    H142005   3.198   0.812   1.964  2.2082 -4.0317 -2.1076
 6838TIP3    H242006   3.067   0.786   1.893 -1.5618  2.2032  1.5407
 6839TIP3   OH242007   5.391   4.989  13.282  0.7812  0.6724 -0.3129
 6839TIP3    H142008   5.429   4.957  13.364  1.4471  0.0983 -0.8255
 6839TIP3    H242009   5.352   4.911  13.242 -0.1998  1.0956 -0.2014
 6840TIP3   OH242010   5.595   4.958  14.060  0.1789  0.2782 -0.0878
 6840TIP3    H142011   5.571   4.875  14.102  0.6224 -0.1407 -0.6577
 6840TIP3    H242012   5.645   4.933  13.983 -0.9893  1.0220 -1.1396
 6841TIP3   OH242013   0.649   6.623  15.249 -0.5724 -0.1220  0.2130
 6841TIP3    H142014   0.611   6.617  15.161  0.0789 -2.7731  0.0223
 6841TIP3    H242015   0.725   6.679  15.238 -1.3283  0.7788 -0.5820
 6842TIP3   OH242016   5.569   5.488   5.389 -0.6644  0.3700  0.8544
 6842TIP3    H142017   5.510   5.561   5.369  1.1075  1.3282 -1.4334
 6842TIP3    H242018   5.638   5.528   5.442  0.0920  0.3063 -0.0535
 6843TIP3   OH242019   6.066   3.407  11.849  0.1942  0.6634 -0.0844
 6843TIP3    H142020   6.080   3.465  11.924 -0.3023 -0.4179  0.8814
 6843TIP3    H242021   6.138   3.343  11.855 -1.7143 -1.5031  1.5598
 6844TIP3   OH242022   0.136   0.876   3.953 -0.8141 -0.7243 -0.4666
 6844TIP3    H142023   0.083   0.879   3.873  0.2940  0.7224 -1.1917
 6844TIP3    H242024   0.186   0.957   3.951  0.8955 -1.6989  0.5609
 6845TIP3   OH242025   4.824   4.169   5.101 -0.0357 -0.6243  0.6403
 6845TIP3    H142026   4.797   4.085   5.063 -0.4485  0.7627 -2.3828
 6845TIP3    H242027   4.741   4.211   5.125  0.0670 -0.3953  0.5895
 6846TIP3   OH242028   5.615   2.816   4.878  0.0720 -0.2786 -0.8209
 6846TIP3    H142029   5.627   2.733   4.831 -1.3797 -1.6778  1.0869
 6846TIP3    H242030   5.689   2.820   4.938 -1.3258 -1.8069  1.1611
 6847TIP3   OH242031   0.478   5.507  10.880 -0.2438  0.3565 -0.0022
 6847TIP3    H142032   0.526   5.427  10.857  1.4947  0.9289  1.3565
 6847TIP3    H242033   0.466   5.500  10.975 -1.3128  1.0793 -0.0780
 6848TIP3   OH242034   4.544   4.325  15.655 -0.1820  0.2948 -0.6485
 6848TIP3    H142035   4.477   4.392  15.639 -0.6538  0.3709  1.3363
 6848TIP3    H242036   4.619   4.375  15.687 -0.6838 -0.0851  1.2669
 6849TIP3   OH242037   1.365   0.806   3.509  0.3425  0.6436  0.0046
 6849TIP3    H142038   1.317   0.785   3.589 -0.8698 -2.9389 -1.4460
 6849TIP3    H242039   1.434   0.740   3.505 -1.7383 -1.6827 -3.4022
 6850TIP3   OH242040   2.176   3.980  10.260 -0.0859 -0.2655  0.3076
 6850TIP3    H142041   2.135   3.895  10.273 -0.1315 -0.2586  0.2042
 6850TIP3    H242042   2.123   4.040  10.313 -1.6089  0.1551 -1.5927
 6851TIP3   OH242043   6.565   5.167   2.040  0.0347  0.6177 -0.3741
 6851TIP3    H142044   6.645   5.138   2.085  0.4271  0.6961 -1.0011
 6851TIP3    H242045   6.500   5.101   2.063  1.1770 -1.4859 -2.6354
 6852TIP3   OH242046   3.734   1.180   2.538  0.8041  0.0730 -0.4365
 6852TIP3    H142047   3.795   1.126   2.488 -1.7248 -2.5690 -0.9562
 6852TIP3    H242048   3.675   1.117   2.579 -0.4659  2.3930  1.5290
 6853TIP3   OH242049   4.780   0.219  13.652 -0.2209  0.0037  0.3206
 6853TIP3    H142050   4.815   0.277  13.719 -0.0303 -1.3737  1.4432
 6853TIP3    H242051   4.853   0.206  13.592 -0.7086  2.1260 -0.8517
 6854TIP3   OH242052   1.699   4.018  11.520 -0.0026  0.1578 -0.7271
 6854TIP3    H142053   1.621   3.977  11.483  0.5390 -0.7205 -0.9278
 6854TIP3    H242054   1.752   4.044  11.444  0.1013  0.3646 -0.5881
 6855TIP3   OH242055   4.676   0.654  11.310 -0.3836 -0.1494 -0.0293
 6855TIP3    H142056   4.766   0.622  11.304 -0.6904 -0.8369 -1.2961
 6855TIP3    H242057   4.622   0.579  11.285 -1.3962 -0.1269  1.9589
 6856TIP3   OH242058   1.357   6.656  13.291 -0.0129 -0.1491  0.3303
 6856TIP3    H142059   1.362   6.727  13.228 -1.3554  1.4628  1.9426
 6856TIP3    H242060   1.441   6.610  13.283 -0.8587 -1.3538 -4.0071
 6857TIP3   OH242061   5.179   2.248  11.213  0.1270  0.2827 -0.4192
 6857TIP3    H142062   5.240   2.253  11.140 -0.4473 -1.3231 -1.0453
 6857TIP3    H242063   5.116   2.180  11.188 -0.9581  0.7408  0.9178
 6858TIP3   OH242064   3.010   3.390  13.292 -0.2375 -0.3702  0.3827
 6858TIP3    H142065   2.921   3.359  13.311 -0.5342 -0.2888 -0.7886
 6858TIP3    H242066   3.026   3.362  13.202  0.2507  1.1346 -0.0238
 6859TIP3   OH242067   0.811   4.595   4.704 -0.0646  0.2055 -0.3263
 6859TIP3    H142068   0.835   4.519   4.651 -0.7722  0.1759 -0.6185
 6859TIP3    H242069   0.749   4.561   4.768  1.3315  0.0901  1.0336
 6860TIP3   OH242070   7.040   5.446   2.368  0.3150 -0.2186  0.4312
 6860TIP3    H142071   6.950   5.475   2.383  0.2478 -1.0119  1.6980
 6860TIP3    H242072   7.052   5.454   2.273 -1.3704 -0.9011  0.1262
 6861TIP3   OH242073   4.500   2.331   3.251  0.1331  0.3713 -0.4130
 6861TIP3    H142074   4.424   2.346   3.307 -0.8482 -1.6398 -1.1165
 6861TIP3    H242075   4.481   2.380   3.171  1.3779  2.9585  0.7355
 6862TIP3   OH242076   0.693   2.535   4.674  0.2787 -0.0376 -0.4550
 6862TIP3    H142077   0.764   2.579   4.722  0.2215  0.1905 -0.5781
 6862TIP3    H242078   0.662   2.601   4.612  0.3005 -0.3107 -0.7543
 6863TIP3   OH242079   7.055   6.275  12.190  0.2320  0.4021  0.5488
 6863TIP3    H142080   7.096   6.265  12.276  2.1326 -0.2071 -0.3558
 6863TIP3    H242081   6.985   6.210  12.189  1.9488 -1.5673  0.6927
 6864TIP3   OH242082   4.532   2.822  10.605  0.2694  0.1263  0.4183
 6864TIP3    H142083   4.525   2.806  10.699 -1.4232  0.0571  0.3141
 6864TIP3    H242084   4.471   2.894  10.588  1.2442  0.7701 -0.4973
 6865TIP3   OH242085   2.326   4.336   9.796  0.1497  0.5360  0.0262
 6865TIP3    H142086   2.353   4.424   9.820  0.6452 -0.1479  2.1742
 6865TIP3    H242087   2.403   4.298   9.753  0.2069  0.8716 -0.1702
 6866TIP3   OH242088   2.368   0.884   3.776  0.6397  0.7067  0.5794
 6866TIP3    H142089   2.424   0.857   3.703 -0.5870 -0.7072  0.1193
 6866TIP3    H242090   2.365   0.979   3.769  0.4135  0.6056 -1.3289
 6867TIP3   OH242091   3.584   1.469  15.757 -0.1805  0.0434  0.6908
 6867TIP3    H142092   3.579   1.468  15.853  1.3544  0.7605  0.8154
 6867TIP3    H242093   3.564   1.380  15.731 -1.4806  0.0279  1.6062
 6868TIP3   OH242094   4.267   2.757   2.512  0.3557  0.5519 -0.2829
 6868TIP3    H142095   4.355   2.724   2.532  0.2082 -0.5925 -1.3936
 6868TIP3    H242096   4.276   2.852   2.513  1.9251  0.4578 -1.6483
 6869TIP3   OH242097   4.588   0.565   3.347 -0.1444  0.1081 -0.9227
 6869TIP3    H142098   4.526   0.619   3.396 -2.3648 -1.9199 -1.3359
 6869TIP3    H242099   4.575   0.591   3.256  2.6092  2.5001 -0.7966
 6870TIP3   OH242100   4.445   5.251  11.335 -0.3709  0.4735  0.3127
 6870TIP3    H142101   4.386   5.311  11.382  0.4618  0.2435  1.7124
 6870TIP3    H242102   4.470   5.300  11.256 -2.0280  0.7556 -0.0908
 6871TIP3   OH242103   1.699   4.328   0.183  0.6076 -0.0700 -0.1558
 6871TIP3    H142104   1.715   4.421   0.173  1.6017 -0.0733  1.2051
 6871TIP3    H242105   1.707   4.312   0.277  2.0082 -1.7957 -0.5242
 6872TIP3   OH242106   0.845   6.211   3.205  0.1090 -0.5414  0.0764
 6872TIP3    H142107   0.768   6.179   3.251  0.1584  0.3739  0.8193
 6872TIP3    H242108   0.830   6.305   3.195  1.4507 -0.2063  0.9172
 6873TIP3   OH242109   1.577   3.928   5.960  0.0272 -0.4242 -0.6646
 6873TIP3    H142110   1.499   3.874   5.956  0.3224 -0.8924 -0.2416
 6873TIP3    H242111   1.646   3.869   5.991  0.4555  0.0811 -0.6299
 6874TIP3   OH242112   2.928   3.768  13.383 -0.1769 -0.4088  0.6482
 6874TIP3    H142113   2.937   3.725  13.298  0.8909 -1.0656  1.0699
 6874TIP3    H242114   2.834   3.774  13.397 -0.3652 -0.6777 -0.3867
 6875TIP3   OH242115   3.062   1.597   0.026 -0.2873 -0.3451  0.1703
 6875TIP3    H142116   2.979   1.567  -0.013 -0.2555 -2.9680  1.8688
 6875TIP3    H242117   3.061   1.561   0.114  2.9358 -0.9848  0.0511
 6876TIP3   OH242118   5.304   5.809   3.336 -0.0856  0.2499 -0.5565
 6876TIP3    H142119   5.225   5.758   3.321 -0.0839  0.6001 -1.9544
 6876TIP3    H242120   5.292   5.888   3.283 -0.1447  1.7884  1.6420
 6877TIP3   OH242121   3.813   4.602   4.393  0.1129 -0.4636  0.3236
 6877TIP3    H142122   3.824   4.547   4.316 -0.3114  2.4879 -2.0369
 6877TIP3    H242123   3.897   4.647   4.402 -0.9483  1.8886 -0.7588
 6878TIP3   OH242124   6.897   4.450  10.412 -0.1522 -0.4874 -0.1618
 6878TIP3    H142125   6.979   4.480  10.375 -0.6783  1.0045 -0.1772
 6878TIP3    H242126   6.846   4.530  10.427 -1.4200 -1.3363  0.2706
 6879TIP3   OH242127   6.147   1.788   1.278 -0.3752  0.3300  0.1761
 6879TIP3    H142128   6.130   1.781   1.372 -0.0009  1.4934  0.3525
 6879TIP3    H242129   6.220   1.729   1.262  0.5412  1.2269  0.9165
 6880TIP3   OH242130   2.492   3.850  14.229 -0.1723  0.0822  0.2089
 6880TIP3    H142131   2.431   3.871  14.299 -0.1457  0.4914  0.1103
 6880TIP3    H242132   2.436   3.837  14.152 -0.2127 -0.4938  0.3290
 6881TIP3   OH242133   5.495   5.887   2.429  0.2803 -0.1599 -0.1776
 6881TIP3    H142134   5.475   5.866   2.520 -0.5303  2.1786  0.2360
 6881TIP3    H242135   5.533   5.806   2.394 -0.7812 -1.6045  1.7871
 6882TIP3   OH242136   3.536   6.986   3.561 -0.0232  0.1668 -0.0007
 6882TIP3    H142137   3.473   6.976   3.633  0.0313  0.0942  0.0382
 6882TIP3    H242138   3.533   7.079   3.538  0.3215  0.2883  0.4313
 6883TIP3   OH242139   1.459   6.838  13.100 -0.0956  0.0978 -0.3218
 6883TIP3    H142140   1.421   6.916  13.140 -0.6111 -1.8257  3.3478
 6883TIP3    H242141   1.535   6.870  13.052 -0.5572  2.8920  0.6466
 6884TIP3   OH242142   5.530   6.099  11.938 -0.1052 -0.4237  0.3813
 6884TIP3    H142143   5.440   6.131  11.949 -0.4595 -1.5612  0.8580
 6884TIP3    H242144   5.525   6.039  11.864  0.7259  1.2016 -1.0561
 6885TIP3   OH242145   7.031   1.566  14.080  0.0666  0.5773 -0.6406
 6885TIP3    H142146   6.941   1.579  14.112  0.0208  2.3798 -1.3862
 6885TIP3    H242147   7.072   1.652  14.088  2.0789 -0.4206  0.5966
 6886TIP3   OH242148   0.665   6.052  15.543  0.1730  0.1614 -0.4386
 6886TIP3    H142149   0.630   6.096  15.466 -0.2116 -1.6766 -1.3480
 6886TIP3    H242150   0.702   6.123  15.596 -1.2865  1.6795 -1.3732
 6887TIP3   OH242151   3.032   2.457  13.186  0.0428 -0.3380 -0.3578
 6887TIP3    H142152   2.977   2.489  13.258  0.9736  0.1432  0.1528
 6887TIP3    H242153   2.977   2.393  13.141 -0.2692 -1.2855  1.2777
 6888TIP3   OH242154   2.716   1.503   0.532  0.1342  0.3308 -0.6335
 6888TIP3    H142155   2.660   1.495   0.455 -0.4298  0.4643 -0.2465
 6888TIP3    H242156   2.791   1.447   0.513 -0.9744 -1.3265 -0.4073
 6889TIP3   OH242157   2.558   2.943  10.477  0.3573  0.2005 -0.4294
 6889TIP3    H142158   2.515   2.975  10.398  0.4663 -1.6368 -1.3059
 6889TIP3    H242159   2.581   2.852  10.456 -2.0656 -1.3121  2.6690
 6890TIP3   OH242160   6.477   3.166   0.798  0.1480 -0.3734 -0.4462
 6890TIP3    H142161   6.432   3.249   0.809  1.4027  0.3787 -0.8191
 6890TIP3    H242162   6.557   3.174   0.849  1.3763 -0.4709 -2.2651
 6891TIP3   OH242163   6.542   0.635   0.828  0.2975 -0.7259  0.5221
 6891TIP3    H142164   6.610   0.571   0.810  0.0930 -1.0209  0.7951
 6891TIP3    H242165   6.558   0.664   0.918 -0.4892 -1.4859  0.9159
 6892TIP3   OH242166   5.709   1.070  12.053  0.1692 -0.1525  0.1167
 6892TIP3    H142167   5.752   1.148  12.017 -1.8324  1.0448  0.1570
 6892TIP3    H242168   5.748   1.059  12.139  3.0348 -1.3902 -1.2062
 6893TIP3   OH242169   0.463   2.997  13.827 -0.4060 -0.5861 -0.2163
 6893TIP3    H142170   0.408   3.068  13.793 -1.4697 -1.0479  0.5040
 6893TIP3    H242171   0.431   2.919  13.782  1.0608 -0.5911 -1.3487
 6894TIP3   OH242172   4.849   2.606   5.607  0.3045  0.1675  0.0192
 6894TIP3    H142173   4.788   2.594   5.535  0.4846 -1.5223  0.0924
 6894TIP3    H242174   4.796   2.592   5.686  0.8999 -2.3773  0.0616
 6895TIP3   OH242175   0.845   1.914  11.582 -0.3108 -0.7546  0.0983
 6895TIP3    H142176   0.852   1.831  11.629 -0.7357 -1.4362 -1.0104
 6895TIP3    H242177   0.809   1.890  11.497 -1.0098  0.6455 -0.0211
 6896TIP3   OH242178   4.039   2.754  13.261 -0.3069 -0.4193 -0.4657
 6896TIP3    H142179   3.991   2.824  13.305 -1.9529 -1.4854 -0.5120
 6896TIP3    H242180   4.026   2.771  13.168  1.1310  0.4169 -0.5608
 6897TIP3   OH242181   5.692   5.396  11.253 -0.1268 -0.1483  0.7246
 6897TIP3    H142182   5.603   5.368  11.230 -0.9354  2.6161  0.0832
 6897TIP3    H242183   5.749   5.348  11.193 -1.4966  0.2696 -1.0104
 6898TIP3   OH242184   0.981   6.123  15.381 -0.6272 -0.3812  0.6033
 6898TIP3    H142185   0.948   6.138  15.293 -0.5457  0.3261  0.6864
 6898TIP3    H242186   0.935   6.187  15.436 -1.6643 -1.6788  1.3178
 6899TIP3   OH242187   1.947   1.093  12.996 -0.3538  0.2134  0.3870
 6899TIP3    H142188   2.021   1.129  12.947  0.3605 -2.0121 -0.2873
 6899TIP3    H242189   1.880   1.075  12.930 -1.0498  1.0969  0.8344
 6900TIP3   OH242190   4.603   0.347  10.817 -0.1857 -0.0789  0.5621
 6900TIP3    H142191   4.530   0.349  10.755 -0.7737 -1.5700  1.1603
 6900TIP3    H242192   4.675   0.308  10.767  0.1245  1.0516  0.0859
 6901TIP3   OH242193   3.790   7.068  10.916 -0.2883 -0.8073  0.2515
 6901TIP3    H142194   3.820   7.156  10.893 -1.1463 -0.5219  0.1845
 6901TIP3    H242195   3.864   7.011  10.895  0.3627 -0.0777  0.5199
 6902TIP3   OH242196   1.327   5.670   1.668 -0.2287 -0.8422  0.0436
 6902TIP3    H142197   1.363   5.708   1.588 -0.6095 -0.5941 -0.0146
 6902TIP3    H242198   1.247   5.627   1.640  0.5442 -2.3017 -0.0106
 6903TIP3   OH242199   0.279   6.830  13.777 -0.0447  0.4011  0.4233
 6903TIP3    H142200   0.286   6.735  13.780  4.2210  0.4680 -1.4693
 6903TIP3    H242201   0.273   6.856  13.869 -0.9439 -1.6052  0.9929
 6904TIP3   OH242202   0.873   0.170  14.959 -0.7529  0.0922 -0.3638
 6904TIP3    H142203   0.886   0.096  15.018 -1.0356 -0.8487 -1.4556
 6904TIP3    H242204   0.899   0.138  14.873 -1.2808  1.1301 -0.9384
 6905TIP3   OH242205   3.529   5.531   0.108  0.0064  0.5985  0.1967
 6905TIP3    H142206   3.505   5.457   0.052  0.8868  0.8742 -0.5658
 6905TIP3    H242207   3.461   5.533   0.175  0.6050 -1.6469  0.9570
 6906TIP3   OH242208   4.731   2.217  14.325 -0.3081  0.0702  0.0587
 6906TIP3    H142209   4.751   2.245  14.235 -3.0518  1.8398 -0.1011
 6906TIP3    H242210   4.695   2.295  14.367 -2.4246 -1.6297  1.6050
 6907TIP3   OH242211   0.925   0.617   0.946 -0.1583 -0.6203  0.0216
 6907TIP3    H142212   0.936   0.668   1.026  1.2042 -0.6454 -0.1376
 6907TIP3    H242213   0.881   0.677   0.886 -0.7513 -0.4422  0.6151
 6908TIP3   OH242214   3.950   1.316  14.119 -0.3655  0.2265  0.4701
 6908TIP3    H142215   3.870   1.349  14.161 -1.7023 -1.3900 -0.6697
 6908TIP3    H242216   3.930   1.320  14.025 -0.5242 -3.3783  0.2386
 6909TIP3   OH242217   5.155   0.829  14.821 -0.2276  0.3598  0.1123
 6909TIP3    H142218   5.078   0.869  14.781  0.5594  1.2541 -0.5305
 6909TIP3    H242219   5.156   0.740  14.787 -1.2923  0.1500  0.5766
 6910TIP3   OH242220   1.156   1.717   0.257  0.5170 -0.0150 -0.3309
 6910TIP3    H142221   1.066   1.687   0.246  0.7796 -0.0504 -3.0433
 6910TIP3    H242222   1.153   1.771   0.336 -1.9145  0.0881 -0.4030
 6911TIP3   OH242223   5.471   2.486  10.920  0.3299  0.1707  0.3486
 6911TIP3    H142224   5.534   2.547  10.960 -0.2785 -0.5094  2.4566
 6911TIP3    H242225   5.386   2.521  10.945 -0.0801 -0.3947 -0.2362
 6912TIP3   OH242226   4.162   5.856   0.154  0.3999 -0.1697  0.0633
 6912TIP3    H142227   4.094   5.922   0.170  0.0226 -1.2028  3.4422
 6912TIP3    H242228   4.134   5.811   0.075 -0.5842  2.0951 -0.9792
 6913TIP3   OH242229   2.888   4.390  13.210  0.0579 -0.1040  0.3569
 6913TIP3    H142230   2.827   4.321  13.185 -0.0850  0.1665 -0.0483
 6913TIP3    H242231   2.944   4.402  13.133  1.5351 -1.3115  1.1885
 6914TIP3   OH242232   3.300   0.611  13.922  0.0451  0.2068  0.0256
 6914TIP3    H142233   3.283   0.517  13.925  1.2011 -0.0214  0.0358
 6914TIP3    H242234   3.363   0.621  13.850 -1.5065  1.2285 -1.2673
 6915TIP3   OH242235   5.896   1.176   2.904  0.3638  0.3131  0.4211
 6915TIP3    H142236   5.981   1.192   2.945  0.3410  2.5857 -0.2881
 6915TIP3    H242237   5.834   1.175   2.978  0.8819 -0.5662  0.8631
 6916TIP3   OH242238   1.536   5.486  15.277 -0.6936 -0.1450  0.1064
 6916TIP3    H142239   1.541   5.394  15.254 -1.8365 -0.1465 -0.1730
 6916TIP3    H242240   1.594   5.495  15.352 -0.0329 -0.9402 -0.2878
 6917TIP3   OH242241   6.520   5.757  11.403 -0.4064  0.1302  0.1753
 6917TIP3    H142242   6.554   5.703  11.332  1.2179 -1.0083  1.7415
 6917TIP3    H242243   6.425   5.756  11.391 -0.3658 -2.3380 -0.4039
 6918TIP3   OH242244   1.728   4.061  14.542 -0.1419  0.2251  0.1923
 6918TIP3    H142245   1.700   4.032  14.455 -0.9332 -2.0831  1.1388
 6918TIP3    H242246   1.663   4.126  14.568  0.1629  1.0153 -0.9528
 6919TIP3   OH242247   3.581   3.473  10.938 -0.1070 -0.6622  0.1635
 6919TIP3    H142248   3.488   3.451  10.933 -0.3337 -0.1727  1.7131
 6919TIP3    H242249   3.626   3.388  10.938 -0.5065 -0.8911 -0.9378
 6920TIP3   OH242250   0.347   3.289  10.424  0.5665 -0.2507  0.2927
 6920TIP3    H142251   0.373   3.317  10.512 -0.1562  0.5538  0.2559
 6920TIP3    H242252   0.422   3.313  10.369 -0.5570  3.0656 -0.0004
 6921TIP3   OH242253   5.027   4.773   1.014  0.2827 -0.1839 -0.3843
 6921TIP3    H142254   5.056   4.848   1.066  0.3487 -0.9889  0.7801
 6921TIP3    H242255   5.090   4.767   0.942 -1.2955  2.5643 -2.1976
 6922TIP3   OH242256   2.449   6.558  11.647 -0.3660 -0.0947 -0.3757
 6922TIP3    H142257   2.402   6.558  11.731  0.2430  0.2819 -0.0274
 6922TIP3    H242258   2.497   6.641  11.646  1.6345 -1.1695  0.0499
 6923TIP3   OH242259   2.005   3.869  12.030  0.4272 -0.6928  0.3056
 6923TIP3    H142260   2.027   3.904  12.117  0.8666 -0.8753  0.2697
 6923TIP3    H242261   1.913   3.893  12.018  0.1686 -1.2411  1.1066
 6924TIP3   OH242262   0.781   3.366  15.395  0.7200  0.3373  0.2313
 6924TIP3    H142263   0.840   3.301  15.431 -1.1608 -1.1986  0.7334
 6924TIP3    H242264   0.733   3.399  15.472  1.3261  2.0536 -0.0652
 6925TIP3   OH242265   6.410   2.864   0.046 -0.0671 -0.9514 -0.0554
 6925TIP3    H142266   6.462   2.941   0.070  0.1874 -1.0508 -0.2830
 6925TIP3    H242267   6.322   2.899   0.028  0.0503 -0.7144 -0.1648
 6926TIP3   OH242268   0.959   0.128   9.900 -0.3242 -0.5437  0.1622
 6926TIP3    H142269   0.886   0.138   9.961 -1.6036 -1.6171 -1.1041
 6926TIP3    H242270   0.987   0.037   9.910  1.0955 -0.0612  0.8539
 6927TIP3   OH242271   6.556   2.133  13.792 -0.4183 -0.3728  0.6669
 6927TIP3    H142272   6.519   2.128  13.703  0.8637 -0.5692  0.1290
 6927TIP3    H242273   6.479   2.136  13.849 -1.3057  0.9666 -0.5041
 6928TIP3   OH242274   4.363   2.355  13.326  0.0310 -0.3423 -0.0225
 6928TIP3    H142275   4.343   2.374  13.418  2.0843 -1.5779  0.7368
 6928TIP3    H242276   4.327   2.430  13.279 -0.4770  0.6731  1.8495
 6929TIP3   OH242277   2.019   7.147  10.544  0.6617 -0.4216  0.5676
 6929TIP3    H142278   2.106   7.174  10.517 -0.5945  1.2534 -2.1775
 6929TIP3    H242279   1.967   7.227  10.545 -1.5120 -1.7063 -0.6243
 6930TIP3   OH242280   1.175   7.009  11.972 -0.2652 -0.0864 -0.3658
 6930TIP3    H142281   1.109   6.963  12.024 -0.1803  0.2852  0.0746
 6930TIP3    H242282   1.133   7.023  11.887 -0.1398 -1.3374 -0.6514
 6931TIP3   OH242283   5.332   3.230  11.177 -0.4937 -0.1439 -0.0685
 6931TIP3    H142284   5.312   3.152  11.228  1.0767 -0.2767  0.4184
 6931TIP3    H242285   5.256   3.286  11.187 -0.6703 -0.6286  1.5300
 6932TIP3   OH242286   3.346   4.750  14.163 -0.1993 -0.0783 -0.1132
 6932TIP3    H142287   3.374   4.709  14.245 -1.2996 -2.4005 -0.8058
 6932TIP3    H242288   3.381   4.839  14.167 -0.0884 -0.1725  2.7748
 6933TIP3   OH242289   6.269   6.105   0.748 -0.9141  0.0933  0.4282
 6933TIP3    H142290   6.255   6.010   0.751 -2.1289  0.2198 -0.4063
 6933TIP3    H242291   6.328   6.123   0.821 -0.8146 -1.2840  0.7115
 6934TIP3   OH242292   6.849   3.421  10.584 -0.3711  0.1314 -0.4605
 6934TIP3    H142293   6.876   3.358  10.651 -0.7788 -1.1642 -1.4714
 6934TIP3    H242294   6.756   3.404  10.571 -0.2787  0.3052 -1.4207
 6935TIP3   OH242295   1.448   7.083  14.797  0.2630 -0.0991 -0.8408
 6935TIP3    H142296   1.472   7.129  14.877  4.4228 -0.9095 -1.3974
 6935TIP3    H242297   1.493   7.131  14.727  0.4695 -1.9270 -2.0572
 6936TIP3   OH242298   0.860   6.292   0.465  0.1682  0.0869 -0.7517
 6936TIP3    H142299   0.915   6.266   0.539  0.8413  0.7200 -1.0145
 6936TIP3    H242300   0.922   6.313   0.395 -0.4358  0.2086 -1.2611
 6937TIP3   OH242301   4.665   5.839  11.518 -0.4655  0.9388  0.0274
 6937TIP3    H142302   4.719   5.843  11.597 -0.6429  0.7461  0.1599
 6937TIP3    H242303   4.709   5.777  11.461 -0.4444  0.9273  0.0570
 6938TIP3   OH242304   2.724   3.773   0.405  0.0797 -0.0164  0.2405
 6938TIP3    H142305   2.817   3.768   0.382  0.2792  0.4558  0.9381
 6938TIP3    H242306   2.723   3.801   0.496 -0.7507 -0.0428  0.2456
 6939TIP3   OH242307   4.185   0.536  10.782  0.2155  0.1414 -0.7273
 6939TIP3    H142308   4.259   0.517  10.724  0.7143  2.0129 -0.7598
 6939TIP3    H242309   4.222   0.535  10.870 -0.4079 -2.0362 -0.4395
 6940TIP3   OH242310   1.829   4.161   0.961  0.3187  0.3532 -0.0895
 6940TIP3    H142311   1.820   4.089   1.024  0.0924  0.4442 -0.0191
 6940TIP3    H242312   1.924   4.174   0.955  0.3113  0.9328  0.9086
 6941TIP3   OH242313   1.512   4.334   0.788  0.3981 -0.1342 -0.5438
 6941TIP3    H142314   1.538   4.422   0.763  0.5601  0.2718  0.9677
 6941TIP3    H242315   1.580   4.277   0.751  1.4178  0.5645  0.2219
 6942TIP3   OH242316   2.150   3.781   3.502  0.0187 -0.6444 -0.4247
 6942TIP3    H142317   2.133   3.834   3.580  0.6285  1.2573 -1.5275
 6942TIP3    H242318   2.182   3.697   3.537  0.6986  0.3111  1.3628
 6943TIP3   OH242319   5.811   3.200  11.859 -0.4326 -0.1529 -0.3505
 6943TIP3    H142320   5.888   3.252  11.880 -0.6864  0.1696 -0.2074
 6943TIP3    H242321   5.742   3.265  11.843 -0.2533 -0.3750 -2.1901
 6944TIP3   OH242322   3.680   7.070   4.487 -0.2985 -0.6323 -0.0685
 6944TIP3    H142323   3.636   7.049   4.404 -2.6172  3.7326 -0.2489
 6944TIP3    H242324   3.609   7.069   4.552  0.2958  1.4071  0.7011
 6945TIP3   OH242325   5.091   0.774   2.230  0.2849 -0.7473 -0.0240
 6945TIP3    H142326   5.149   0.732   2.167  0.8446 -0.1285  0.0660
 6945TIP3    H242327   5.080   0.709   2.299 -0.6737 -1.5968 -0.9408
 6946TIP3   OH242328   0.651   0.207   4.122  0.4364 -0.7615 -0.0841
 6946TIP3    H142329   0.607   0.278   4.076 -1.3572 -1.2942  0.7370
 6946TIP3    H242330   0.651   0.134   4.060 -0.0069 -0.8040 -0.0391
 6947TIP3   OH242331   0.413   3.205   1.118 -0.3921 -0.0523  0.0361
 6947TIP3    H142332   0.369   3.269   1.174  0.3621 -0.4623  1.1382
 6947TIP3    H242333   0.503   3.239   1.109 -0.3519 -0.2842 -0.4683
 6948TIP3   OH242334   7.092   6.061   5.007  0.0664 -0.2565 -0.3449
 6948TIP3    H142335   7.104   6.023   4.920 -0.8432  1.9608 -1.5325
 6948TIP3    H242336   6.997   6.068   5.017  0.1750 -0.2132  0.6951
 6949TIP3   OH242337   5.855   5.119   3.608  0.1682 -0.3663 -0.8715
 6949TIP3    H142338   5.902   5.107   3.526  2.0856 -0.0898  0.1286
 6949TIP3    H242339   5.896   5.057   3.669 -0.1483  0.5085  0.2819
 6950TIP3   OH242340   6.013   4.058  13.589 -0.1291 -0.7166 -0.5829
 6950TIP3    H142341   5.997   3.965  13.573 -0.8759 -0.8297  0.6650
 6950TIP3    H242342   6.107   4.064  13.604 -0.0811 -1.2818 -0.6352
 6951TIP3   OH242343   5.668   0.542  11.128 -0.6884  0.5845  0.0378
 6951TIP3    H142344   5.699   0.611  11.186  0.0377  0.6207 -0.3832
 6951TIP3    H242345   5.746   0.514  11.080 -0.7136 -1.3042  0.9928
 6952TIP3   OH242346   2.897   5.131  13.957 -0.8811  0.1269  0.7973
 6952TIP3    H142347   2.812   5.171  13.977 -0.9056 -0.2920  1.5700
 6952TIP3    H242348   2.941   5.195  13.900 -1.4230  0.6773  0.9862
 6953TIP3   OH242349   6.671   4.355   1.513  0.4317  0.1942 -0.1699
 6953TIP3    H142350   6.658   4.272   1.466  0.1352 -0.1242  0.4583
 6953TIP3    H242351   6.715   4.329   1.594  2.6628  0.9457 -1.0701
 6954TIP3   OH242352   4.050   1.353  13.588  0.2667 -0.0553  0.0272
 6954TIP3    H142353   4.088   1.303  13.660  0.4287  1.5809  1.1318
 6954TIP3    H242354   4.125   1.396  13.546 -0.0220  0.5407  0.1155
 6955TIP3   OH242355   5.203   2.966  15.070 -0.3482  0.0776 -0.1071
 6955TIP3    H142356   5.249   2.890  15.105  1.2832  1.3905  0.7529
 6955TIP3    H242357   5.239   3.041  15.119 -1.5947  1.4616 -1.1876
 6956TIP3   OH242358   0.157   5.902  14.228 -0.4388  0.5695  0.1870
 6956TIP3    H142359   0.245   5.936  14.243  0.3005  0.2303 -2.7428
 6956TIP3    H242360   0.115   5.967  14.171 -0.9462 -0.7248 -0.9794
 6957TIP3   OH242361   2.588   5.184   0.411 -0.2994  0.4162 -0.7242
 6957TIP3    H142362   2.569   5.142   0.327 -0.9443 -1.1117  0.1513
 6957TIP3    H242363   2.613   5.274   0.388 -2.0393  0.5147 -2.4340
 6958TIP3   OH242364   6.951   3.156  10.709 -0.1035  0.3155 -0.4819
 6958TIP3    H142365   6.889   3.121  10.772  0.6815  2.3469  1.5523
 6958TIP3    H242366   7.030   3.104  10.721  0.4710  1.5114  1.2239
 6959TIP3   OH242367   0.814   4.869   2.406  0.1196 -0.0016 -1.2097
 6959TIP3    H142368   0.839   4.782   2.439 -1.5533  0.4270  1.5044
 6959TIP3    H242369   0.718   4.865   2.399  0.0563  1.4843 -1.4629
 6960TIP3   OH242370   5.054   3.448   2.103 -0.1591 -0.4572  0.1804
 6960TIP3    H142371   4.967   3.487   2.097 -0.3488 -0.7564  0.9153
 6960TIP3    H242372   5.049   3.372   2.044 -0.8957 -1.3622  1.3665
 6961TIP3   OH242373   6.665   2.542   1.364 -0.1024 -0.1703 -0.3157
 6961TIP3    H142374   6.694   2.618   1.414 -0.4123  0.7488 -1.4698
 6961TIP3    H242375   6.724   2.540   1.288 -1.1751 -0.0282 -1.1806
 6962TIP3   OH242376   5.154   2.072  15.343  0.1443 -0.5077  0.1875
 6962TIP3    H142377   5.240   2.080  15.385  0.0734 -0.8591  0.4033
 6962TIP3    H242378   5.174   2.034  15.257  0.3629  0.8483 -0.3948
 6963TIP3   OH242379   3.493   6.361  14.607 -0.4259 -0.1392 -0.0360
 6963TIP3    H142380   3.564   6.382  14.546  0.2725  0.1598  0.8420
 6963TIP3    H242381   3.462   6.275  14.579  0.3801 -0.3358 -0.3609
 6964TIP3   OH242382   1.523   3.762  10.750 -0.3833  0.3365  0.0715
 6964TIP3    H142383   1.542   3.713  10.670 -0.1682  1.5875 -0.6855
 6964TIP3    H242384   1.605   3.759  10.800 -0.9118 -1.5644  0.9080
 6965TIP3   OH242385   0.477   4.474   2.230 -0.0297  0.1113 -0.3074
 6965TIP3    H142386   0.485   4.529   2.152 -1.1807  2.2011  0.9436
 6965TIP3    H242387   0.408   4.411   2.208 -1.2206  1.4569 -0.6097
 6966TIP3   OH242388   2.641   1.524   4.684 -0.1313 -0.5387 -0.1652
 6966TIP3    H142389   2.653   1.518   4.779 -0.2015  0.2288 -0.1020
 6966TIP3    H242390   2.558   1.569   4.673 -0.1797 -0.7272 -0.5930
 6967TIP3   OH242391   6.815   2.613   3.065  0.1673 -0.1944 -0.3864
 6967TIP3    H142392   6.784   2.628   3.154 -0.3188 -0.5977 -0.4823
 6967TIP3    H242393   6.880   2.681   3.050 -1.2104  1.1515 -0.4404
 6968TIP3   OH242394   0.156   1.952  13.136 -0.1594 -0.4118  0.2761
 6968TIP3    H142395   0.204   1.875  13.105 -0.0800 -2.0015  3.8431
 6968TIP3    H242396   0.217   2.025  13.123  1.7279 -1.7539  1.1777
 6969TIP3   OH242397   4.297   1.882  10.130  0.4695  0.0842  0.1438
 6969TIP3    H142398   4.212   1.842  10.144  0.2310  1.2424  2.4219
 6969TIP3    H242399   4.286   1.936  10.051 -0.3729 -1.0933 -0.5692
 6970TIP3   OH242400   1.345   3.462  11.236 -0.6711 -0.6136 -0.4043
 6970TIP3    H142401   1.357   3.509  11.318  1.4722 -0.1464 -0.9341
 6970TIP3    H242402   1.427   3.415  11.223 -0.7898 -0.3367 -2.4802
 6971TIP3   OH242403   2.378   5.147   2.632  0.3735 -1.2271 -0.4361
 6971TIP3    H142404   2.446   5.108   2.577 -0.2541 -1.6900 -0.9054
 6971TIP3    H242405   2.421   5.166   2.715  0.9296 -2.0528 -0.5314
 6972TIP3   OH242406   2.954   6.315  12.351  0.7426  0.1745 -0.0066
 6972TIP3    H142407   2.906   6.288  12.273  0.4705  1.8186 -0.4292
 6972TIP3    H242408   2.915   6.262  12.422 -1.1246  0.8461 -0.4779
 6973TIP3   OH242409   6.853   2.144   4.295 -0.1630  0.6622 -0.3769
 6973TIP3    H142410   6.864   2.107   4.208  0.8659  1.7447 -0.7463
 6973TIP3    H242411   6.850   2.239   4.280 -0.3577  0.8427  0.7243
 6974TIP3   OH242412   1.066   3.273   0.220  0.3918 -0.3899 -0.2574
 6974TIP3    H142413   1.098   3.310   0.138 -1.8499 -2.3066 -2.1397
 6974TIP3    H242414   1.046   3.182   0.199 -1.2069 -0.6956  2.1645
 6975TIP3   OH242415   0.756   5.929   0.564  0.4393 -0.3525  0.2245
 6975TIP3    H142416   0.705   5.988   0.508  0.6874  1.6817  2.0221
 6975TIP3    H242417   0.694   5.903   0.633  1.2593  0.6130  1.3598
 6976TIP3   OH242418   3.162   1.711   2.083 -0.6772  0.3062  0.0430
 6976TIP3    H142419   3.073   1.678   2.098 -0.7006  0.8008  1.0027
 6976TIP3    H242420   3.201   1.717   2.170 -0.4569  2.2228 -0.1523
 6977TIP3   OH242421   0.532   3.950   0.456  0.0391  0.1316 -0.2772
 6977TIP3    H142422   0.584   3.896   0.516  0.3002  1.1075  0.4001
 6977TIP3    H242423   0.591   3.970   0.383  0.5605  1.0425  0.3770
 6978TIP3   OH242424   1.196   2.634  13.822 -0.2971 -0.2385  0.2977
 6978TIP3    H142425   1.173   2.616  13.731  0.4603  0.4694 -0.0384
 6978TIP3    H242426   1.176   2.727  13.834 -1.0395 -0.4791  1.0646
 6979TIP3   OH242427   3.879   2.779  14.820  0.4143  0.1701  0.2547
 6979TIP3    H142428   3.829   2.859  14.802 -1.2826 -0.7514  0.6914
 6979TIP3    H242429   3.816   2.720  14.862  1.4581 -1.6159 -0.5848
 6980TIP3   OH242430   0.207   2.564   0.978 -0.1870  0.3463  0.1169
 6980TIP3    H142431   0.196   2.647   0.932 -1.4164  0.0865 -0.1123
 6980TIP3    H242432   0.297   2.565   1.011  0.8078  0.5024 -2.3982
 6981TIP3   OH242433   3.469   2.638  10.235  0.6499 -0.1121  0.0920
 6981TIP3    H142434   3.513   2.581  10.173 -1.8176 -0.5444 -1.4149
 6981TIP3    H242435   3.448   2.581  10.309 -0.5502 -0.8946 -0.7945
 6982TIP3   OH242436   0.785   1.578   3.173 -0.3275  0.1646 -0.2533
 6982TIP3    H142437   0.816   1.659   3.212 -2.0523 -0.7978  3.5644
 6982TIP3    H242438   0.839   1.510   3.212 -0.6156 -0.7337 -1.3735
 6983TIP3   OH242439   4.738   7.064   2.400 -0.2864 -0.2691  0.5004
 6983TIP3    H142440   4.668   7.055   2.335 -0.9079  2.7260  0.6020
 6983TIP3    H242441   4.692   7.062   2.484 -0.1633  0.8848  0.6031
 6984TIP3   OH242442   2.354   4.738   0.864 -0.2336  0.3110 -0.0658
 6984TIP3    H142443   2.281   4.776   0.913 -0.4563  0.5358 -0.5711
 6984TIP3    H242444   2.405   4.813   0.833 -0.4224  0.1868 -0.6812
 6985TIP3   OH242445   4.730   4.616   2.392 -0.0272 -0.3563  0.0881
 6985TIP3    H142446   4.741   4.663   2.474 -0.4824  0.0277 -0.0652
 6985TIP3    H242447   4.787   4.661   2.330  1.4788 -1.5573  0.5289
 6986TIP3   OH242448   2.620   2.506   3.858 -0.5584  0.4215  0.0581
 6986TIP3    H142449   2.685   2.542   3.798 -0.9729  2.6118  0.8250
 6986TIP3    H242450   2.671   2.461   3.925 -0.0737 -1.6273 -1.5805
 6987TIP3   OH242451   6.183   5.878   5.186  0.2418 -0.0735 -0.1243
 6987TIP3    H142452   6.201   5.787   5.162  2.1183  1.0648 -3.7243
 6987TIP3    H242453   6.266   5.910   5.221 -0.0691  0.5491  0.0532
 6988TIP3   OH242454   6.115   0.959   9.462  0.2117 -0.0433  0.2780
 6988TIP3    H142455   6.073   0.875   9.448  1.1665 -0.8417  1.8996
 6988TIP3    H242456   6.127   0.965   9.557 -1.4034  2.7170  0.4305
 6989TIP3   OH242457   6.119   3.588   1.579  0.3792 -0.3446 -0.1969
 6989TIP3    H142458   6.072   3.652   1.632 -0.5189 -0.9671 -0.2128
 6989TIP3    H242459   6.171   3.640   1.518  3.2219  0.4884  2.6582
 6990TIP3   OH242460   3.714   5.004  10.293  0.2899 -0.3804 -0.3397
 6990TIP3    H142461   3.799   4.999  10.249  0.4287  1.3415 -0.3250
 6990TIP3    H242462   3.718   5.084  10.346 -1.2505 -0.3831 -0.1596
 6991TIP3   OH242463   1.674   0.400   5.595 -0.0176  0.5048  0.2082
 6991TIP3    H142464   1.615   0.398   5.670 -0.2861 -0.0620 -0.0104
 6991TIP3    H242465   1.642   0.472   5.541  0.1826  0.9207  0.6358
 6992TIP3   OH242466   0.982   3.592  14.693 -0.1484 -0.0807 -0.0751
 6992TIP3    H142467   1.002   3.592  14.787 -1.1386  1.3585  0.1640
 6992TIP3    H242468   1.058   3.634  14.653  0.1585 -0.4565  0.1027
 6993TIP3   OH242469   0.740   5.034  14.618  0.1626 -0.2055 -0.3671
 6993TIP3    H142470   0.781   4.948  14.625  0.0348 -0.3131 -0.9042
 6993TIP3    H242471   0.808   5.090  14.579 -0.1110 -0.3276 -1.0374
 6994TIP3   OH242472   0.175   4.309   9.405  0.1781 -0.2378 -0.2980
 6994TIP3    H142473   0.146   4.386   9.453 -1.0470  0.0563 -1.4543
 6994TIP3    H242474   0.099   4.282   9.353  1.8912  0.5537 -3.5135
 6995TIP3   OH242475   5.163   2.893  13.128 -0.2974  0.0314 -0.1007
 6995TIP3    H142476   5.137   2.968  13.182  1.0104  0.8701 -0.5581
 6995TIP3    H242477   5.255   2.878  13.151 -0.2880 -0.8625 -0.6699
 6996TIP3   OH242478   0.660   6.849   1.864 -0.3427 -0.2712 -0.0715
 6996TIP3    H142479   0.742   6.832   1.819  1.3977  0.3917  2.6365
 6996TIP3    H242480   0.621   6.762   1.876  0.7329 -0.7661 -0.0457
 6997TIP3   OH242481   4.497   0.117   4.082 -0.5079 -0.4075 -0.5548
 6997TIP3    H142482   4.510   0.039   4.028 -0.3365 -0.1987 -0.8165
 6997TIP3    H242483   4.548   0.186   4.038  0.3694 -0.4498  0.3500
 6998TIP3   OH242484   5.551   4.413  10.038  0.2493 -0.2477 -0.0963
 6998TIP3    H142485   5.466   4.448  10.066  0.6648 -0.3314  1.3286
 6998TIP3    H242486   5.548   4.418   9.942 -0.2203  2.4816 -0.0125
 6999TIP3   OH242487   0.539   1.946  14.328 -0.0327 -0.0328 -0.4095
 6999TIP3    H142488   0.490   1.898  14.395 -2.4650  1.5019 -0.9673
 6999TIP3    H242489   0.603   1.998  14.377  1.0083 -1.9232  0.3498
 7000TIP3   OH242490   4.135   3.443   3.137 -0.6533 -0.0987 -0.0249
 7000TIP3    H142491   4.190   3.516   3.106 -0.0435  0.3138  1.9097
 7000TIP3    H242492   4.082   3.420   3.061  1.0563  0.5616 -1.5072
 7001TIP3   OH242493   2.421   0.769   3.116  0.2813 -0.5434  0.6428
 7001TIP3    H142494   2.341   0.738   3.074  0.6858 -0.3163 -0.3228
 7001TIP3    H242495   2.391   0.815   3.195 -0.6021  0.2348 -0.1251
 7002TIP3   OH242496   0.307   1.222  13.901 -0.3633  0.1385 -0.4912
 7002TIP3    H142497   0.360   1.166  13.844 -1.2012 -1.0401 -0.1661
 7002TIP3    H242498   0.330   1.311  13.876 -0.1017 -0.3500 -2.1029
 7003TIP3   OH242499   6.812   4.621  12.316 -0.0886  0.4661  0.0849
 7003TIP3    H142500   6.801   4.544  12.260 -0.3205  2.7545 -3.3627
 7003TIP3    H242501   6.906   4.636  12.318 -0.1745  1.4551 -1.4587
 7004TIP3   OH242502   5.054   1.640  14.224 -0.5651  0.1660  0.0952
 7004TIP3    H142503   5.049   1.625  14.130 -0.1762 -0.7941  0.2153
 7004TIP3    H242504   5.146   1.623  14.246 -0.7373 -0.0156  0.7080
 7005TIP3   OH242505   3.882   6.236  10.806  0.2011 -0.1043 -1.0780
 7005TIP3    H142506   3.800   6.284  10.791 -0.4476 -1.0357 -0.6531
 7005TIP3    H242507   3.951   6.301  10.796 -0.6116  0.7463 -1.2401
 7006TIP3   OH242508   3.163   0.950   0.482 -0.3331 -0.0150  0.4050
 7006TIP3    H142509   3.073   0.923   0.466 -1.1214  2.7280 -0.2158
 7006TIP3    H242510   3.216   0.882   0.440 -2.0641 -1.4623  0.4258
 7007TIP3   OH242511   5.513   3.477   3.838 -0.1695  0.0244  0.3118
 7007TIP3    H142512   5.487   3.565   3.812  0.7059  0.6934  1.6295
 7007TIP3    H242513   5.586   3.456   3.780 -0.9237 -0.1955 -0.5812
 7008TIP3   OH242514   3.022   0.976   0.094 -0.5953 -0.1859 -0.6785
 7008TIP3    H142515   2.999   0.919   0.021 -2.1372 -0.1229 -0.2705
 7008TIP3    H242516   3.033   0.917   0.168  0.0110 -0.1534 -0.7374
 7009TIP3   OH242517   4.629   5.623  12.622 -0.2733  0.0088 -0.3623
 7009TIP3    H142518   4.570   5.557  12.657 -2.1083 -0.1174 -3.3587
 7009TIP3    H242519   4.706   5.619  12.679 -1.8613 -1.9804  1.8461
 7010TIP3   OH242520   5.140   4.420  14.839  0.2772  0.2912  0.5046
 7010TIP3    H142521   5.078   4.457  14.903  1.8639  0.7061  1.8690
 7010TIP3    H242522   5.127   4.472  14.760  1.7836  3.3204  2.0822
 7011TIP3   OH242523   1.680   2.066  12.970  0.0890 -0.3974  0.3849
 7011TIP3    H142524   1.640   2.153  12.962  0.3598 -0.3772 -1.2658
 7011TIP3    H242525   1.641   2.016  12.898  3.0145 -0.3300 -1.4280
 7012TIP3   OH242526   4.424   2.864   1.052 -0.8789 -0.4964  0.0761
 7012TIP3    H142527   4.459   2.946   1.015 -3.5633  1.0523  0.6892
 7012TIP3    H242528   4.425   2.803   0.978  1.0101  0.0771 -0.4515
 7013TIP3   OH242529   4.161   0.241  11.271  0.5584 -0.0269 -0.2128
 7013TIP3    H142530   4.228   0.288  11.221 -0.4020  1.5062 -0.1230
 7013TIP3    H242531   4.165   0.281  11.358  1.3822 -1.8324  0.6480
 7014TIP3   OH242532   0.805   1.232  13.866 -0.0828  0.0846 -0.0503
 7014TIP3    H142533   0.859   1.287  13.809 -0.4514 -0.8372 -1.3460
 7014TIP3    H242534   0.869   1.184  13.919  0.2964  0.4976 -0.1228
 7015TIP3   OH242535   6.597   1.192  10.257  0.3686 -0.1286 -0.0401
 7015TIP3    H142536   6.685   1.226  10.276 -0.0242  1.0490 -0.2466
 7015TIP3    H242537   6.593   1.190  10.161 -0.8592  2.7653 -0.1484
 7016TIP3   OH242538   0.208   1.578  12.987  0.2831 -0.3766  0.2856
 7016TIP3    H142539   0.192   1.670  12.967  0.3036 -0.3671  0.3140
 7016TIP3    H242540   0.268   1.579  13.061  0.0528 -0.4135  0.4736
 7017TIP3   OH242541   5.673   4.484  14.547  0.5229 -0.1796 -0.4114
 7017TIP3    H142542   5.758   4.451  14.576 -0.1155  0.3846  2.4015
 7017TIP3    H242543   5.613   4.411  14.559 -0.0424  0.5189  1.4302
 7018TIP3   OH242544   2.769   6.551  12.961 -0.6897 -0.2028  0.1459
 7018TIP3    H142545   2.830   6.617  12.929  0.9811 -1.0806  1.3337
 7018TIP3    H242546   2.749   6.497  12.885  1.4370 -0.9215  0.0436
 7019TIP3   OH242547   0.669   0.642   0.246  0.2658 -0.2512  0.0776
 7019TIP3    H142548   0.581   0.648   0.282 -0.6308  2.8478 -2.1772
 7019TIP3    H242549   0.724   0.618   0.321 -2.3509 -1.6982  1.6827
 7020TIP3   OH242550   4.478   0.246  13.114  0.2297 -0.1295  0.1426
 7020TIP3    H142551   4.447   0.159  13.137 -1.2999 -0.1640 -1.7719
 7020TIP3    H242552   4.549   0.231  13.052  0.8622 -0.0202  0.8393
 7021TIP3   OH242553   1.018   1.446   2.610 -0.0056 -0.4146 -0.0212
 7021TIP3    H142554   0.977   1.398   2.538  1.6531 -2.4317  0.2801
 7021TIP3    H242555   1.112   1.430   2.599  0.3777  0.2871  1.8513
 7022TIP3   OH242556   6.884   5.758  11.548 -0.1733 -0.5557 -0.7923
 7022TIP3    H142557   6.901   5.799  11.633  1.1358  0.5635 -1.5494
 7022TIP3    H242558   6.803   5.709  11.561  1.2835 -2.5261  1.8086
 7023TIP3   OH242559   5.492   6.553  10.910  0.3333  0.6685 -0.1424
 7023TIP3    H142560   5.528   6.614  10.975 -0.5755  0.5259  0.5103
 7023TIP3    H242561   5.480   6.471  10.958  0.3577  0.3442 -0.6868
 7024TIP3   OH242562   0.250   4.002   5.614  0.0109  0.3401  0.0803
 7024TIP3    H142563   0.325   3.955   5.650 -0.0085 -0.2953 -0.6773
 7024TIP3    H242564   0.208   4.042   5.690  1.2917  0.9845  0.4841
 7025TIP3   OH242565   4.099   0.533   1.653  0.0956  0.4985 -0.2139
 7025TIP3    H142566   4.061   0.607   1.605 -2.0835 -1.4989 -1.8049
 7025TIP3    H242567   4.027   0.501   1.709  1.6071  0.7563  2.0278
 7026TIP3   OH242568   3.994   0.320  15.047 -0.5237  0.1189 -0.3487
 7026TIP3    H142569   4.047   0.355  14.975 -0.9245  0.0960 -0.6555
 7026TIP3    H242570   3.982   0.228  15.026 -0.5236  0.0796 -0.1796
 7027TIP3   OH242571   6.254   2.260   9.670  0.1681 -0.2297  0.0466
 7027TIP3    H142572   6.237   2.227   9.582  0.8211  0.2302 -0.2634
 7027TIP3    H242573   6.315   2.333   9.657 -1.7284  1.5501  0.6525
 7028TIP3   OH242574   1.855   0.781  11.860 -0.0775  0.0765  0.1614
 7028TIP3    H142575   1.944   0.745  11.853 -0.7980 -1.8476  0.5698
 7028TIP3    H242576   1.867   0.862  11.910  1.5047  0.1375 -0.2468
 7029TIP3   OH242577   6.231   0.892   1.976 -0.4184  0.3743 -0.2858
 7029TIP3    H142578   6.212   0.864   1.887  0.9252 -0.5921 -0.2863
 7029TIP3    H242579   6.312   0.943   1.969  0.2580 -0.5585  0.5028
 7030TIP3   OH242580   4.719   4.976   2.422 -0.2881 -0.3434  0.0270
 7030TIP3    H142581   4.759   4.911   2.480  0.4616 -0.3940 -0.5342
 7030TIP3    H242582   4.640   4.933   2.390 -0.1956 -0.6833  0.2481
 7031TIP3   OH242583   2.670   4.262  10.040 -0.4718  0.6504  0.1844
 7031TIP3    H142584   2.700   4.327  10.103  1.2376 -0.1714  0.2757
 7031TIP3    H242585   2.689   4.300   9.954  0.9263  0.1185  0.2433
 7032TIP3   OH242586   4.346   0.936   4.973 -0.1198  0.2921  0.3351
 7032TIP3    H142587   4.434   0.969   4.995  0.6602 -0.0365 -2.0270
 7032TIP3    H242588   4.319   0.887   5.051  1.5676  0.8095  1.3045
 7033TIP3   OH242589   3.515   4.172  10.999  0.1802  0.2526 -0.5872
 7033TIP3    H142590   3.558   4.088  10.983  0.4115  0.4450 -0.9826
 7033TIP3    H242591   3.578   4.223  11.050 -1.0860 -0.8636  2.2714
 7034TIP3   OH242592   5.165   6.441   3.445  0.0438  0.5332  0.0788
 7034TIP3    H142593   5.150   6.403   3.358  0.7743 -0.8723  0.5438
 7034TIP3    H242594   5.080   6.435   3.489  0.1630 -0.6917  0.1742
 7035TIP3   OH242595   5.011   4.068  11.770  0.0018  0.6655  0.2251
 7035TIP3    H142596   4.970   3.986  11.744 -0.4712  1.2798 -1.0434
 7035TIP3    H242597   4.940   4.120  11.808  0.1634  0.7504  0.4156
 7036TIP3   OH242598   0.297   4.381  12.037  0.0793 -0.7706 -0.0347
 7036TIP3    H142599   0.260   4.466  12.059 -0.0317 -0.6228 -0.7796
 7036TIP3    H242600   0.224   4.331  12.000  0.1292 -1.2101  0.4486
 7037TIP3   OH242601   5.302   0.691   1.509  0.5008  0.1954  0.3178
 7037TIP3    H142602   5.385   0.645   1.519  0.9097  0.9589  0.5294
 7037TIP3    H242603   5.244   0.628   1.466  0.2867 -1.3991  2.7614
 7038TIP3   OH242604   5.844   5.239   4.544  0.3893 -0.1985  0.6513
 7038TIP3    H142605   5.749   5.226   4.546  0.0587  1.8555  0.6115
 7038TIP3    H242606   5.881   5.154   4.566 -1.4814 -0.8447  1.4471
 7039TIP3   OH242607   6.789   1.991   4.767  0.0700  0.3250  0.0658
 7039TIP3    H142608   6.757   1.905   4.794  1.3080 -0.0124  0.5023
 7039TIP3    H242609   6.710   2.037   4.738 -0.6185 -0.9449 -0.1743
 7040TIP3   OH242610   7.032   5.677  10.738  0.1011  0.1577 -0.1115
 7040TIP3    H142611   7.061   5.670  10.648 -1.2947  0.6380 -0.6190
 7040TIP3    H242612   7.063   5.763  10.767  1.2536 -0.3311  0.1484
 7041TIP3   OH242613   0.604   1.478   3.934 -0.4070 -0.1377 -0.1073
 7041TIP3    H142614   0.551   1.461   4.012  1.4862 -2.1045  0.8443
 7041TIP3    H242615   0.688   1.508   3.968 -0.3254  1.4285 -1.5318
 7042TIP3   OH242616   5.689   7.027  11.365 -0.3434 -0.2855 -0.7834
 7042TIP3    H142617   5.682   7.111  11.320  0.2646 -0.4669 -1.2222
 7042TIP3    H242618   5.774   6.993  11.340 -0.7895 -1.2742 -0.9997
 7043TIP3   OH242619   5.684   3.521  15.067  1.0349 -0.4838 -0.2040
 7043TIP3    H142620   5.622   3.451  15.047  1.0628  0.0295 -2.2104
 7043TIP3    H242621   5.640   3.573  15.135 -0.9740  0.1172 -1.8708
 7044TIP3   OH242622   0.883   0.561  10.339 -0.5851  0.3072 -0.1402
 7044TIP3    H142623   0.884   0.609  10.256  0.3706 -0.8369 -0.8180
 7044TIP3    H242624   0.965   0.513  10.340 -1.0107 -0.4439  1.0514
 7045TIP3   OH242625   6.322   2.497   4.384  0.0144  0.7106  0.4442
 7045TIP3    H142626   6.346   2.533   4.468  0.5316  1.7665 -0.1434
 7045TIP3    H242627   6.404   2.487   4.336 -0.1020 -1.1730  0.5242
 7046TIP3   OH242628   5.156   4.683  12.954 -0.0834 -0.0963 -0.4693
 7046TIP3    H142629   5.077   4.660  12.904  0.8918 -0.8904 -1.6868
 7046TIP3    H242630   5.173   4.774  12.931 -0.5497  0.0428 -0.2961
 7047TIP3   OH242631   5.298   3.218   0.764 -0.7314  0.5898 -0.2800
 7047TIP3    H142632   5.252   3.300   0.747  0.7291  1.3861 -0.5163
 7047TIP3    H242633   5.264   3.158   0.698 -1.4567  1.1447 -0.4258
 7048TIP3   OH242634   3.310   3.698  12.353  0.3128  0.4148 -0.0716
 7048TIP3    H142635   3.283   3.648  12.276  1.2818  0.6996 -0.6109
 7048TIP3    H242636   3.302   3.636  12.426 -1.1889  0.3235 -0.2908
 7049TIP3   OH242637   4.233   3.065   0.067 -0.0879  0.0794  0.2798
 7049TIP3    H142638   4.272   3.013   0.138  0.8681  2.0309  1.2825
 7049TIP3    H242639   4.209   3.148   0.109 -1.3019  0.5816 -1.2988
 7050TIP3   OH242640   1.631   5.427  15.534  0.5072 -0.0349  0.0919
 7050TIP3    H142641   1.713   5.461  15.570  0.5960 -1.1425  0.9945
 7050TIP3    H242642   1.644   5.332  15.531 -0.7413 -0.2234  0.2456
 7051TIP3   OH242643   4.892   1.403  13.534 -0.1266 -0.4198  0.0787
 7051TIP3    H142644   4.808   1.358  13.537 -0.4821  0.2548  0.4833
 7051TIP3    H242645   4.879   1.482  13.587  0.9789 -0.6761  0.7727
 7052TIP3   OH242646   6.977   2.013  10.548  0.6779 -0.0419 -0.4530
 7052TIP3    H142647   6.900   1.962  10.572 -0.7849  2.4175  0.4760
 7052TIP3    H242648   6.977   2.012  10.453 -0.0756 -0.7009 -0.4614
 7053TIP3   OH242649   5.634   3.087   4.222  0.1668  0.2251  0.5578
 7053TIP3    H142650   5.640   3.175   4.183  0.6161 -0.0378  0.0285
 7053TIP3    H242651   5.723   3.066   4.248  1.0411 -1.8755 -3.3629
 7054TIP3   OH242652   3.683   4.252  12.952 -0.3673 -0.2311 -0.0065
 7054TIP3    H142653   3.754   4.310  12.924  0.2983 -1.5729 -1.2101
 7054TIP3    H242654   3.688   4.253  13.048  0.4822  0.6512 -0.0450
 7055TIP3   OH242655   1.651   0.565   2.934 -0.3245 -0.5431 -0.7187
 7055TIP3    H142656   1.674   0.608   3.016 -1.9813 -2.4333  0.8640
 7055TIP3    H242657   1.557   0.584   2.923 -0.4388 -1.4347 -1.4138
 7056TIP3   OH242658   2.468   0.540  13.693  0.0958  0.0980 -0.2636
 7056TIP3    H142659   2.557   0.559  13.722  0.0295 -0.3934  0.2713
 7056TIP3    H242660   2.470   0.552  13.598  0.5571  0.7723 -0.1722
 7057TIP3   OH242661   3.359   2.301   4.889 -0.3473  0.1121 -0.5730
 7057TIP3    H142662   3.363   2.270   4.798 -1.4071  0.8747 -0.8951
 7057TIP3    H242663   3.449   2.327   4.909 -0.1821  0.3552 -1.5572
 7058TIP3   OH242664   4.567   0.696   9.927  0.6258  0.5030  0.0164
 7058TIP3    H142665   4.493   0.701   9.986  0.6068 -0.2893  0.0635
 7058TIP3    H242666   4.529   0.692   9.839  0.6294  0.6739  0.0072
 7059TIP3   OH242667   4.309   0.689  12.387  0.2948  0.0352  0.0899
 7059TIP3    H142668   4.215   0.693  12.408  0.0532 -1.1886 -0.6597
 7059TIP3    H242669   4.345   0.629  12.451  1.0375  2.2087  1.8220
 7060TIP3   OH242670   6.592   6.440  14.147 -0.1556 -0.1164 -0.0617
 7060TIP3    H142671   6.660   6.395  14.098 -1.7351 -0.9554 -1.5978
 7060TIP3    H242672   6.542   6.370  14.189 -0.4833  0.4366  0.4906
 7061TIP3   OH242673   2.477   1.578  12.827 -0.1270 -0.9903 -0.3824
 7061TIP3    H142674   2.496   1.585  12.921 -0.3948  0.3475 -0.4070
 7061TIP3    H242675   2.391   1.620  12.817  0.3581 -0.1766 -1.3615
 7062TIP3   OH242676   4.169   5.344   0.687  0.0830 -0.0907  0.3863
 7062TIP3    H142677   4.230   5.350   0.613 -1.3075  0.5034 -0.7529
 7062TIP3    H242678   4.200   5.409   0.749 -0.0694  1.0622 -0.7161
 7063TIP3   OH242679   0.578   3.151  10.253  0.1381  0.0303 -0.0422
 7063TIP3    H142680   0.645   3.091  10.221 -0.8010 -0.3651 -1.3191
 7063TIP3    H242681   0.621   3.237  10.254  0.5414 -0.1411 -1.2629
 7064TIP3   OH242682   0.739   2.514  12.437  0.0376 -0.0719  0.1532
 7064TIP3    H142683   0.675   2.571  12.395 -0.5076 -0.6604  0.1830
 7064TIP3    H242684   0.823   2.554  12.417 -0.2865  0.2502 -0.5856
 7065TIP3   OH242685   1.864   6.538   9.635 -0.2587  0.2628  0.3222
 7065TIP3    H142686   1.805   6.463   9.642  1.3153 -1.2391 -1.4678
 7065TIP3    H242687   1.944   6.502   9.597  1.0406  2.6289  0.6525
 7066TIP3   OH242688   0.779   1.783  14.921 -0.0296 -0.5969  0.3840
 7066TIP3    H142689   0.778   1.801  15.015  0.6168  0.9791  0.1238
 7066TIP3    H242690   0.872   1.783  14.898 -0.1360 -1.8433 -0.1206
 7067TIP3   OH242691   3.978   0.161   1.156 -0.3366  0.0964 -0.1152
 7067TIP3    H142692   3.982   0.212   1.237 -0.3127  0.1601 -0.1557
 7067TIP3    H242693   3.966   0.227   1.087 -1.8010 -0.0614 -0.0405
 7068TIP3   OH242694   3.280   2.989  10.654  0.3017  0.0574 -0.4641
 7068TIP3    H142695   3.350   3.039  10.614  0.1951 -1.0700 -2.1524
 7068TIP3    H242696   3.286   2.902  10.614 -2.2699  0.0285 -0.9674
 7069TIP3   OH242697   4.630   4.360  11.766 -0.3293 -0.5072 -0.2248
 7069TIP3    H142698   4.576   4.398  11.835 -0.5266  0.3717 -0.8579
 7069TIP3    H242699   4.648   4.432  11.706  1.1361 -0.8888 -0.2902
 7070TIP3   OH242700   0.257   0.298  10.919  0.4295  0.2967  0.5897
 7070TIP3    H142701   0.275   0.219  10.971  1.2200  0.4123  0.5120
 7070TIP3    H242702   0.191   0.270  10.856 -1.2326  0.3888  2.2055
 7071TIP3   OH242703   6.762   1.220   4.003 -0.0938  0.2246 -0.5430
 7071TIP3    H142704   6.779   1.135   4.044  1.9393  0.1953 -1.3143
 7071TIP3    H242705   6.773   1.203   3.909 -0.6200  1.1457 -0.7758
 7072TIP3   OH242706   7.066   4.487   4.436  0.2587 -0.5626  0.0963
 7072TIP3    H142707   7.101   4.553   4.496  0.0734  1.9295 -2.3861
 7072TIP3    H242708   6.971   4.490   4.448  0.2265 -0.1172 -0.2755
 7073TIP3   OH242709   4.703   0.841  13.620  0.1944 -0.0260 -0.3721
 7073TIP3    H142710   4.744   0.797  13.695  1.1437 -1.0750 -1.4683
 7073TIP3    H242711   4.615   0.804  13.616 -0.3457  0.9912  0.9677
 7074TIP3   OH242712   0.455   6.230   5.439 -0.2811  0.3507 -0.2498
 7074TIP3    H142713   0.437   6.301   5.377 -0.9745  0.0198 -0.4327
 7074TIP3    H242714   0.447   6.271   5.525  3.3052  1.4945 -0.2898
 7075TIP3   OH242715   5.882   6.658  11.496  0.8080 -0.0611 -0.1398
 7075TIP3    H142716   5.799   6.613  11.477  0.5386  0.0045  0.8651
 7075TIP3    H242717   5.880   6.675  11.590  0.7868  2.3168 -0.5189
 7076TIP3   OH242718   4.871   5.452  10.331  0.6055  0.3330  0.0281
 7076TIP3    H142719   4.874   5.357  10.342  0.5957  0.3942  0.5424
 7076TIP3    H242720   4.872   5.488  10.419  3.6799  0.9348 -0.1533
 7077TIP3   OH242721   5.623   1.107  14.102 -0.1563 -0.2252  0.0785
 7077TIP3    H142722   5.628   1.035  14.165  0.4809 -1.3320 -1.1974
 7077TIP3    H242723   5.547   1.158  14.130 -0.4033 -1.1768  1.2185
 7078TIP3   OH242724   5.125   6.279   1.442  0.0437 -0.3016  0.5708
 7078TIP3    H142725   5.105   6.320   1.358  2.1424  1.3058  0.7701
 7078TIP3    H242726   5.099   6.344   1.507  1.4357 -0.1403  0.9903
 7079TIP3   OH242727   5.603   5.299   0.867 -0.1160  0.1569 -0.6474
 7079TIP3    H142728   5.535   5.331   0.808  0.3699  0.8686 -0.8393
 7079TIP3    H242729   5.653   5.377   0.890 -1.9033  0.4400  2.8724
 7080TIP3   OH242730   1.690   0.321  13.631  0.3298  0.2103 -0.8023
 7080TIP3    H142731   1.666   0.235  13.665 -2.4671  1.2803  0.2487
 7080TIP3    H242732   1.667   0.317  13.538  1.2895 -0.5001 -1.0230
 7081TIP3   OH242733   2.451   4.544   1.118 -0.3606  0.0286 -0.2183
 7081TIP3    H142734   2.483   4.487   1.188  2.8556  1.2328 -0.5585
 7081TIP3    H242735   2.492   4.508   1.039 -0.1921  1.3988 -0.7665
 7082TIP3   OH242736   2.343   3.644   5.448  0.0359  0.1031 -0.0653
 7082TIP3    H142737   2.291   3.605   5.378  0.2539  1.0382 -0.7738
 7082TIP3    H242738   2.357   3.573   5.511 -2.4839 -0.0490  0.4057
 7083TIP3   OH242739   0.859   4.351  12.257  0.0442  0.0613  0.5207
 7083TIP3    H142740   0.772   4.391  12.257 -0.0219 -0.0393 -0.6663
 7083TIP3    H242741   0.869   4.316  12.168  0.5120 -1.6404  1.1957
 7084TIP3   OH242742   0.266   2.385  14.172  0.3732 -0.3491  0.1253
 7084TIP3    H142743   0.265   2.306  14.119  0.8188 -1.6199  1.9477
 7084TIP3    H242744   0.176   2.395  14.203  0.4079 -0.3728  0.2333
 7085TIP3   OH242745   1.685   6.813  11.138 -0.2411  0.7916  0.2083
 7085TIP3    H142746   1.605   6.865  11.134  0.3844  1.8061  0.4698
 7085TIP3    H242747   1.718   6.827  11.227 -0.7189 -1.0989  0.7292
 7086TIP3   OH242748   7.140   4.614   5.817 -0.0328 -0.4797 -1.0938
 7086TIP3    H142749   7.215   4.652   5.863  0.2868  0.3457 -2.2416
 7086TIP3    H242750   7.174   4.534   5.777 -0.2502 -1.0712 -0.1137
 7087TIP3   OH242751   2.894   0.349   0.967 -0.4617 -0.4547  0.0202
 7087TIP3    H142752   2.927   0.433   0.999 -0.9274 -0.7502  1.3694
 7087TIP3    H242753   2.969   0.289   0.976  0.1771 -0.0149 -1.8676
 7088TIP3   OH242754   5.223   4.779   0.069 -0.6460 -0.4275  0.6424
 7088TIP3    H142755   5.131   4.783   0.094 -0.3593 -1.5801  2.0024
 7088TIP3    H242756   5.269   4.827   0.138 -0.0984 -1.2086  0.8390
 7089TIP3   OH242757   2.224   1.346   0.784 -0.1015  0.0427 -0.1883
 7089TIP3    H142758   2.189   1.373   0.869 -0.2701  3.0090 -1.0699
 7089TIP3    H242759   2.319   1.338   0.799 -0.1946  0.0160  0.3992
 7090TIP3   OH242760   4.464   5.189  15.127  0.3020  0.3591  0.0624
 7090TIP3    H142761   4.474   5.269  15.178 -3.0155  0.2609  1.0838
 7090TIP3    H242762   4.477   5.216  15.036 -0.6651  2.0889  0.3955
 7091TIP3   OH242763   0.330   4.144  10.263  0.0063  0.0333  0.1339
 7091TIP3    H142764   0.318   4.085  10.189  1.6588 -0.3839  0.1770
 7091TIP3    H242765   0.241   4.170  10.287 -0.6086 -0.5962 -1.3615
 7092TIP3   OH242766   5.131   2.132  10.434 -0.2122  0.0184  0.8636
 7092TIP3    H142767   5.142   2.215  10.480 -0.0354  1.0708 -0.9956
 7092TIP3    H242768   5.137   2.066  10.503  1.0381  1.4526  2.2031
 7093TIP3   OH242769   2.330   5.668  11.226 -0.0303 -0.3004 -0.1802
 7093TIP3    H142770   2.331   5.734  11.296  1.5440  0.2466 -0.6710
 7093TIP3    H242771   2.313   5.585  11.271 -2.1462  0.4165  0.4336
 7094TIP3   OH242772   5.943   2.273  10.037  0.3687  0.1197  0.0993
 7094TIP3    H142773   5.922   2.345   9.977 -0.3783 -1.0400 -1.0879
 7094TIP3    H242774   6.008   2.310  10.096 -1.0808  2.2559  0.5079
 7095TIP3   OH242775   1.808   1.985  15.629  0.2525  0.2509 -0.0924
 7095TIP3    H142776   1.734   1.958  15.683  0.9711 -0.1587  0.6973
 7095TIP3    H242777   1.862   1.907  15.621  1.7029  1.0803  1.1622
 7096TIP3   OH242778   1.797   0.856   0.309  0.4855 -0.1946 -0.2192
 7096TIP3    H142779   1.796   0.940   0.261  0.7465  0.3953  0.7782
 7096TIP3    H242780   1.890   0.837   0.323  0.4078 -0.2643  0.2119
 7097TIP3   OH242781   1.486   0.883  11.296 -0.3042 -0.8165  0.5018
 7097TIP3    H142782   1.413   0.900  11.356 -0.5931  0.2863 -0.1231
 7097TIP3    H242783   1.449   0.895  11.209  1.0361  1.8903  0.1843
 7098TIP3   OH242784   2.051   0.124  13.584 -0.1797  0.4563  0.5341
 7098TIP3    H142785   2.094   0.133  13.499 -0.6133  0.6460  0.3310
 7098TIP3    H242786   1.986   0.055  13.571 -0.6285  0.8689  0.5516
 7099TIP3   OH242787   3.505   0.075   1.300  0.5752  0.4085  0.6301
 7099TIP3    H142788   3.582   0.111   1.345  0.6996 -1.9858  2.5265
 7099TIP3    H242789   3.432   0.098   1.356  0.6686 -2.1759  1.9478
 7100TIP3   OH242790   5.997   2.615  10.899 -0.0330 -0.4337 -0.7218
 7100TIP3    H142791   6.066   2.552  10.920  0.3210 -0.2008 -1.1660
 7100TIP3    H242792   5.980   2.602  10.805 -0.2111 -0.1149 -0.7359
 7101TIP3   OH242793   2.681   4.987  11.827  0.1687 -0.0823 -0.8433
 7101TIP3    H142794   2.772   5.016  11.832  0.1987 -0.4418  1.6144
 7101TIP3    H242795   2.686   4.892  11.835 -0.4846  0.0007  0.7743
 7102TIP3   OH242796   2.690   1.241  10.939 -0.2118  0.4057  0.2178
 7102TIP3    H142797   2.700   1.297  11.017 -2.1051  2.1091 -0.6712
 7102TIP3    H242798   2.699   1.302  10.866  1.6138 -1.1894 -0.9539
 7103TIP3   OH242799   1.878   5.475  15.634  0.0361  0.3191  0.0928
 7103TIP3    H142800   1.936   5.399  15.645 -0.8364 -0.3308  0.3243
 7103TIP3    H242801   1.936   5.550  15.644  0.8414 -0.3087  0.3373
 7104TIP3   OH242802   1.898   1.246   1.289  0.6473 -0.2204 -0.1140
 7104TIP3    H142803   1.993   1.245   1.279  1.1079 -1.4855  3.2916
 7104TIP3    H242804   1.879   1.330   1.331  0.3078 -0.2439 -0.2125
 7105TIP3   OH242805   6.731   2.852  14.565 -0.3461  0.0006 -0.3006
 7105TIP3    H142806   6.705   2.803  14.487  0.4963  0.1625 -0.7003
 7105TIP3    H242807   6.787   2.792  14.614 -1.1204 -0.2084  0.3475
 7106TIP3   OH242808   6.974   2.887   1.345 -0.5146 -0.1786 -0.6610
 7106TIP3    H142809   6.881   2.897   1.330 -0.8775 -0.3954  1.1639
 7106TIP3    H242810   6.980   2.824   1.418  1.0560 -0.3662 -0.9112
 7107TIP3   OH242811   4.698   2.049   0.058 -0.6401 -0.2053 -0.1734
 7107TIP3    H142812   4.624   1.988   0.056 -0.9329  0.0815  1.2301
 7107TIP3    H242813   4.676   2.111   0.128  1.8246 -1.2791  1.6697
 7108TIP3   OH242814   5.905   4.703   4.423  0.1027 -0.2391 -0.0710
 7108TIP3    H142815   5.890   4.662   4.338 -0.0160  1.3147 -0.8372
 7108TIP3    H242816   5.999   4.723   4.423 -0.2628  1.8261 -0.8789
 7109TIP3   OH242817   4.570   1.374  13.493 -0.1867 -0.2941 -0.0160
 7109TIP3    H142818   4.623   1.392  13.415  0.0531 -2.4774 -0.4105
 7109TIP3    H242819   4.529   1.290  13.475  0.1662 -1.0352  2.3849
 7110TIP3   OH242820   2.634   2.866  15.236  0.5939 -0.0140 -0.1327
 7110TIP3    H142821   2.663   2.892  15.149  0.7702  1.2057  0.2667
 7110TIP3    H242822   2.597   2.779  15.224 -0.5571  0.6354 -1.6766
 7111TIP3   OH242823   0.198   1.631   5.064 -0.2128 -0.4200 -0.3622
 7111TIP3    H142824   0.255   1.608   5.137  0.2559  1.5415 -0.0448
 7111TIP3    H242825   0.219   1.567   4.996 -1.3777 -2.9134  1.4882
 7112TIP3   OH242826   3.186   1.687  13.229  0.0680  0.5225 -0.3432
 7112TIP3    H142827   3.246   1.759  13.210  1.3485 -0.4706 -0.1722
 7112TIP3    H242828   3.201   1.624  13.159 -0.4135  0.0472 -0.0252
 7113TIP3   OH242829   2.666   6.266   0.193  0.8313 -0.3635 -0.4703
 7113TIP3    H142830   2.612   6.194   0.161  3.6751 -2.8300 -0.2034
 7113TIP3    H242831   2.658   6.263   0.288  0.3239  0.2599 -0.4840
 7114TIP3   OH242832   6.422   0.487   1.947  0.0295  0.3343  0.0428
 7114TIP3    H142833   6.449   0.577   1.932  1.0216 -0.1110 -0.9961
 7114TIP3    H242834   6.337   0.480   1.902 -0.0083  0.7259  0.0520
 7115TIP3   OH242835   5.741   2.328  11.587  0.3717  0.5354 -0.0790
 7115TIP3    H142836   5.694   2.280  11.656  0.3031  0.7364  0.0139
 7115TIP3    H242837   5.677   2.391  11.553  0.3870  0.3955 -0.3687
 7116TIP3   OH242838   0.349   6.314  11.847  0.1685 -0.5538 -0.2338
 7116TIP3    H142839   0.364   6.234  11.797 -1.4164  0.2831 -2.1791
 7116TIP3    H242840   0.269   6.296  11.897 -1.7021  0.5450 -2.6061
 7117TIP3   OH242841   0.021   4.546   1.129  0.2661  0.0222  0.2619
 7117TIP3    H142842   0.115   4.527   1.126  0.0773 -0.9807  0.6072
 7117TIP3    H242843  -0.017   4.487   1.064 -0.2260 -0.1628  0.7189
 7118TIP3   OH242844   6.514   3.214  14.877  0.0302  0.5155  0.4499
 7118TIP3    H142845   6.539   3.180  14.791  0.8747  1.8949  0.1314
 7118TIP3    H242846   6.541   3.145  14.938  0.7619  0.1558 -0.2595
 7119TIP3   OH242847   4.171   0.804  11.357 -0.2290 -0.4488  0.3927
 7119TIP3    H142848   4.207   0.837  11.275  0.3331  3.7128  2.0723
 7119TIP3    H242849   4.100   0.746  11.330 -0.7851  1.5478 -3.0738
 7120TIP3   OH242850   1.483   2.972   3.900 -0.2706 -0.0714 -0.0958
 7120TIP3    H142851   1.576   2.985   3.881 -0.5035  0.8101 -0.6755
 7120TIP3    H242852   1.472   3.005   3.989 -0.2984  1.1868 -0.5440
 7121TIP3   OH242853   6.625   3.188  14.589 -0.4829  0.4414  0.0047
 7121TIP3    H142854   6.695   3.157  14.532 -0.1608  0.2994  0.4740
 7121TIP3    H242855   6.616   3.281  14.567 -1.2753  0.1019 -1.2268
 7122TIP3   OH242856   5.612   0.171   4.208 -0.3465 -0.5554  0.0669
 7122TIP3    H142857   5.542   0.106   4.194  0.0996 -1.0764  0.2148
 7122TIP3    H242858   5.688   0.134   4.164 -0.4251  0.5140 -1.0028
 7123TIP3   OH242859   5.677   2.079  14.132 -0.2997 -0.3388 -0.2021
 7123TIP3    H142860   5.759   2.033  14.150  0.0747  0.5639  0.4646
 7123TIP3    H242861   5.653   2.052  14.043  2.1581  1.4638 -1.5472
 7124TIP3   OH242862   2.230   0.873   1.224  0.5689 -0.2122 -0.0503
 7124TIP3    H142863   2.289   0.845   1.294  1.1281  1.4740  0.1936
 7124TIP3    H242864   2.288   0.903   1.154  0.0045 -0.8569 -0.8096
 7125TIP3   OH242865   0.013   6.849  14.449 -0.1066  0.7869  0.2394
 7125TIP3    H142866   0.036   6.914  14.383  0.0862  0.8911  0.4138
 7125TIP3    H242867  -0.003   6.769  14.398  0.6763  0.6999  0.1250
 7126TIP3   OH242868   3.861   0.442  11.571 -0.1284 -0.6247  0.4926
 7126TIP3    H142869   3.879   0.348  11.577  0.8175 -0.8879 -3.4234
 7126TIP3    H242870   3.770   0.447  11.542  0.5213 -0.5758 -1.7271
 7127TIP3   OH242871   1.027   0.294   1.592  0.0750 -0.1448 -0.6665
 7127TIP3    H142872   1.115   0.312   1.557 -0.4537  1.5318 -1.2566
 7127TIP3    H242873   0.970   0.299   1.515 -0.9140  2.0023  0.1246
 7128TIP3   OH242874   6.621   6.505  11.091 -0.3333  0.2089 -0.0292
 7128TIP3    H142875   6.645   6.580  11.144 -0.2337  1.2285 -1.4411
 7128TIP3    H242876   6.698   6.448  11.091 -1.0827 -0.9739  2.7047
 7129TIP3   OH242877   1.493   0.695  13.020 -0.4490  0.1437  0.0821
 7129TIP3    H142878   1.501   0.636  12.945  2.2510 -0.4444  0.7206
 7129TIP3    H242879   1.547   0.770  12.996  0.9250 -0.3087  1.6289
 7130TIP3   OH242880   1.413   0.688   2.870 -0.4681  0.0729 -0.2853
 7130TIP3    H142881   1.331   0.646   2.844 -0.4310  0.7423 -1.5312
 7130TIP3    H242882   1.386   0.770   2.912 -0.4860 -0.5059  0.8640
 7131TIP3   OH242883   3.037   6.826   0.779 -0.4119  0.2244  0.3696
 7131TIP3    H142884   3.106   6.888   0.802 -0.1315 -0.5811  1.8219
 7131TIP3    H242885   3.000   6.860   0.698  0.3054  1.8099  0.6705
 7132TIP3   OH242886   6.897   1.293  12.474  0.1048 -0.4383 -0.6542
 7132TIP3    H142887   6.855   1.378  12.488  1.4495  0.5388 -2.1540
 7132TIP3    H242888   6.827   1.229  12.490 -0.9816  0.9455  0.3556
 7133TIP3   OH242889   6.531   2.983   3.742  0.7417  0.4009 -0.5487
 7133TIP3    H142890   6.454   2.969   3.796  0.7319  1.0949 -0.3756
 7133TIP3    H242891   6.498   2.988   3.653  0.8902 -2.0070 -0.7937
 7134TIP3   OH242892   3.614   1.715  15.327 -0.1950 -0.6617  0.5498
 7134TIP3    H142893   3.540   1.692  15.271 -0.7735  2.1592  0.0043
 7134TIP3    H242894   3.576   1.769  15.397  1.4320  2.6775 -0.9091
 7135TIP3   OH242895   2.145   5.461  12.280 -0.3494  0.2038 -0.6780
 7135TIP3    H142896   2.073   5.455  12.217 -0.0164  2.0695 -1.2889
 7135TIP3    H242897   2.190   5.543  12.258 -0.1099  0.8454  1.8767
 7136TIP3   OH242898   3.154   5.421   4.367  0.3025 -0.0103 -0.6526
 7136TIP3    H142899   3.070   5.466   4.383  0.1848  0.3659 -2.2268
 7136TIP3    H242900   3.134   5.328   4.381 -0.5358  0.0170 -1.5391
 7137TIP3   OH242901   2.814   2.882   2.836 -0.6722  0.5906  0.2080
 7137TIP3    H142902   2.768   2.842   2.910 -2.0878  1.5736 -0.1183
 7137TIP3    H242903   2.747   2.930   2.788  0.4466  0.9537 -1.0589
 7138TIP3   OH242904   3.082   3.605  13.876 -0.3515  0.3010  0.3902
 7138TIP3    H142905   3.028   3.601  13.797 -1.3005 -1.2335  1.0720
 7138TIP3    H242906   3.126   3.690  13.871  0.7021 -0.3053 -2.4866
 7139TIP3   OH242907   4.199   3.574  14.241  0.7430 -0.1717 -0.3519
 7139TIP3    H142908   4.226   3.612  14.157  0.3589 -3.0610 -1.9217
 7139TIP3    H242909   4.166   3.487  14.219 -1.1607 -0.3654  2.6175
 7140TIP3   OH242910   1.772   2.149  13.200 -0.2090  0.0979 -0.7336
 7140TIP3    H142911   1.763   2.095  13.121 -0.6805  0.8434 -1.2046
 7140TIP3    H242912   1.683   2.177  13.220 -0.5808 -2.3049  1.7145
 7141TIP3   OH242913   5.525   6.313   3.174  0.0226  0.0675  0.1104
 7141TIP3    H142914   5.518   6.269   3.259  0.1009 -1.0948 -0.4741
 7141TIP3    H242915   5.615   6.344   3.171 -0.3621  1.4077  1.0459
 7142TIP3   OH242916   6.714   5.725  15.394 -0.1466 -0.5582 -0.7093
 7142TIP3    H142917   6.739   5.815  15.374 -0.0349 -0.3497  0.3067
 7142TIP3    H242918   6.625   5.716  15.360 -0.4203  0.1652 -0.2098
 7143TIP3   OH242919   5.000   4.445   0.726  0.3796  0.5116 -0.6223
 7143TIP3    H142920   4.958   4.489   0.800  0.8781  1.7197 -1.0180
 7143TIP3    H242921   4.928   4.411   0.673 -0.0454  1.1645 -0.4732
 7144TIP3   OH242922   3.430   4.849  12.332 -0.7094 -0.4215  0.2716
 7144TIP3    H142923   3.461   4.885  12.415 -0.6531 -1.0834  0.5375
 7144TIP3    H242924   3.353   4.901  12.311 -0.4476  0.0664  0.4936
 7145TIP3   OH242925   3.523   5.968   2.147 -0.0529  0.1881 -0.6371
 7145TIP3    H142926   3.588   6.038   2.136  0.8449 -0.5675 -0.3457
 7145TIP3    H242927   3.481   5.960   2.062  1.2193 -0.2344 -1.2461
 7146TIP3   OH242928   4.726   5.147  13.332 -0.2727 -0.2871  0.7424
 7146TIP3    H142929   4.764   5.198  13.403  0.2566  0.1494  0.1499
 7146TIP3    H242930   4.713   5.060  13.370  0.2521 -0.1333  1.2945
 7147TIP3   OH242931   5.918   0.174   2.635 -0.2063 -0.3651  0.3299
 7147TIP3    H142932   5.921   0.090   2.588 -0.0645  0.6068 -1.5077
 7147TIP3    H242933   6.007   0.186   2.669 -0.2959 -1.0647  0.8314
 7148TIP3   OH242934   1.750   4.708   5.131 -0.0233 -0.0774  0.0475
 7148TIP3    H142935   1.804   4.673   5.202  0.9434 -0.5071 -0.8581
 7148TIP3    H242936   1.808   4.705   5.054 -1.1212  0.1132 -0.8141
 7149TIP3   OH242937   6.810   1.265   0.873 -0.2306  0.0063 -0.0315
 7149TIP3    H142938   6.876   1.334   0.865 -2.3222  1.8980 -2.7894
 7149TIP3    H242939   6.796   1.255   0.967  4.4403 -1.1266  0.7999
 7150TIP3   OH242940   0.797   1.462  10.853  0.0233 -0.2126 -0.2503
 7150TIP3    H142941   0.763   1.480  10.765  0.9381  1.5290 -0.2944
 7150TIP3    H242942   0.892   1.465  10.844  0.2175 -2.3889  0.3801
 7151TIP3   OH242943   4.100   1.782   3.985  0.8444 -0.1864  0.1459
 7151TIP3    H142944   4.156   1.833   4.043  1.8150 -2.1434  1.0288
 7151TIP3    H242945   4.105   1.826   3.900  0.8655  1.6823  1.0689
 7152TIP3   OH242946   1.408   3.799   1.250  0.4563  0.0608  0.3365
 7152TIP3    H142947   1.457   3.834   1.176 -0.7729 -0.8731 -0.9775
 7152TIP3    H242948   1.435   3.852   1.325  0.8783  1.7960 -0.9983
 7153TIP3   OH242949   2.136   3.536   0.600  0.3159  0.0633 -0.5297
 7153TIP3    H142950   2.224   3.530   0.638  0.5798 -0.4117 -1.1880
 7153TIP3    H242951   2.086   3.587   0.664  1.4454  1.6500 -0.8502
 7154TIP3   OH242952   2.343   6.665  10.205  0.2131 -0.1015 -0.1405
 7154TIP3    H142953   2.290   6.654  10.284 -0.7097  0.9225 -0.5950
 7154TIP3    H242954   2.339   6.759  10.186 -0.4831 -0.4681 -2.0159
 7155TIP3   OH242955   0.929   2.906  14.936  0.6732 -0.3355  0.5038
 7155TIP3    H142956   0.889   2.919  14.850 -0.5430  0.4473  1.1588
 7155TIP3    H242957   0.949   2.812  14.940 -1.3609 -0.8103  0.2301
 7156TIP3   OH242958   3.434   3.644   0.188  0.4181  0.3374  0.7027
 7156TIP3    H142959   3.514   3.661   0.137  0.3970 -0.2003  0.4808
 7156TIP3    H242960   3.424   3.549   0.185 -0.0338  0.3727  1.0362
 7157TIP3   OH242961   1.559   6.444  13.988  0.6326  0.4405 -0.2160
 7157TIP3    H142962   1.645   6.430  13.950  1.2097 -0.1460  1.2239
 7157TIP3    H242963   1.567   6.527  14.036 -0.2745  1.5078 -1.8386
 7158TIP3   OH242964   2.248   0.481  11.253 -0.4402 -0.2281 -0.1516
 7158TIP3    H142965   2.160   0.483  11.215  0.0620  0.9262 -1.3221
 7158TIP3    H242966   2.299   0.427  11.194  0.0978  0.7132 -0.5574
 7159TIP3   OH242967   5.766   4.871  13.887 -0.6397 -0.3301 -0.3547
 7159TIP3    H142968   5.831   4.941  13.883 -1.0913  0.0982 -0.2088
 7159TIP3    H242969   5.817   4.792  13.906 -0.3769  0.3318  1.9004
 7160TIP3   OH242970   1.327   3.291  10.752 -0.3683  0.3007  0.4348
 7160TIP3    H142971   1.359   3.359  10.692  0.1445 -0.1029  0.2477
 7160TIP3    H242972   1.336   3.329  10.839 -0.6805  0.7153  0.2895
 7161TIP3   OH242973   2.530   1.120   2.818  0.7638 -0.3029  0.7216
 7161TIP3    H142974   2.492   1.136   2.904 -0.1478  1.3671  0.0454
 7161TIP3    H242975   2.468   1.062   2.774  0.8669 -0.5719  0.9299
 7162TIP3   OH242976   1.652   4.542   0.690  0.0082  0.5041 -0.0099
 7162TIP3    H142977   1.743   4.564   0.710 -0.7341  3.4564  0.6622
 7162TIP3    H242978   1.630   4.598   0.615 -1.3896  0.2033  0.1451
 7163TIP3   OH242979   3.551   5.593   5.974  0.2483 -0.4134 -0.0230
 7163TIP3    H142980   3.465   5.553   5.962 -0.0810 -0.1447  1.2366
 7163TIP3    H242981   3.589   5.546   6.048 -0.2768  1.7143  1.6999
 7164TIP3   OH242982   2.552   3.255  14.881  0.6228  0.2356  0.3992
 7164TIP3    H142983   2.541   3.162  14.861  0.4053  0.4273 -0.4215
 7164TIP3    H242984   2.556   3.297  14.795  6.2855  0.4685  0.4352
 7165TIP3   OH242985   1.394   4.107  14.733 -0.0445 -0.7422  0.0931
 7165TIP3    H142986   1.397   4.014  14.713  2.3908 -0.6030 -0.4668
 7165TIP3    H242987   1.300   4.128  14.737 -0.6488 -2.7694 -1.7691
 7166TIP3   OH242988   2.988   3.347   1.945  0.3851  0.1005  0.6881
 7166TIP3    H142989   2.951   3.373   1.860 -0.9008  0.8083  1.4345
 7166TIP3    H242990   3.077   3.382   1.944 -0.1132  1.4165  0.2174
 7167TIP3   OH242991   6.061   6.235  13.681 -0.0223  0.3040  0.2960
 7167TIP3    H142992   6.031   6.241  13.772  1.0888  1.0926  0.6311
 7167TIP3    H242993   5.982   6.243  13.628 -0.4789  1.6385  1.1533
 7168TIP3   OH242994   0.023   1.516   1.732  0.5455 -0.0530  0.7835
 7168TIP3    H142995   0.052   1.446   1.791 -0.4943 -0.3729  0.9319
 7168TIP3    H242996   0.035   1.596   1.783  1.9484 -0.0908  0.5359
 7169TIP3   OH242997   6.850   3.748  14.957  0.8203  0.5893  0.1680
 7169TIP3    H142998   6.845   3.798  14.875 -0.1036 -0.6136 -0.5390
 7169TIP3    H242999   6.925   3.690  14.946  0.0006 -0.4009 -0.3319
 7170TIP3   OH243000   5.131   6.070  10.246  0.6085  0.0713 -0.5548
 7170TIP3    H143001   5.206   6.128  10.260 -0.2314  1.2130 -0.6658
 7170TIP3    H243002   5.086   6.107  10.170  1.0189 -1.7548 -1.7458
 7171TIP3   OH243003   1.832   1.148  12.341 -0.2540 -0.5788 -0.4290
 7171TIP3    H143004   1.782   1.225  12.313 -0.3663 -0.4833  0.0219
 7171TIP3    H243005   1.868   1.173  12.426  2.0788  0.0364 -1.5298
 7172TIP3   OH243006   2.304   1.213  10.263 -0.2003 -0.1592  0.2796
 7172TIP3    H143007   2.257   1.271  10.323 -3.1043 -2.7670  0.7487
 7172TIP3    H243008   2.366   1.166  10.319  1.0771  1.2927  0.1557
 7173TIP3   OH243009   2.560   0.963   3.961 -0.3633  0.3585 -0.0706
 7173TIP3    H143010   2.536   0.943   4.052 -1.0620  0.8760 -0.1336
 7173TIP3    H243011   2.481   0.945   3.911 -0.3052  1.0706 -0.4302
 7174TIP3   OH243012   4.545   6.194  10.101 -0.4288 -0.2460 -0.0908
 7174TIP3    H143013   4.634   6.217  10.076 -0.4436 -1.1336 -1.0278
 7174TIP3    H243014   4.495   6.200  10.020 -0.8882 -1.3108  0.0965
 7175TIP3   OH243015   3.101   2.122   5.280  0.2161 -0.0083  0.5985
 7175TIP3    H143016   3.057   2.165   5.207 -2.1722  1.7186  2.8622
 7175TIP3    H243017   3.192   2.151   5.274  0.7157 -1.8088 -2.9013
 7176TIP3   OH243018   3.445   4.193   0.457  0.1680 -0.0983 -0.1494
 7176TIP3    H143019   3.481   4.208   0.370  1.5955 -0.0513  0.4216
 7176TIP3    H243020   3.466   4.101   0.476 -0.3626 -0.1837  0.0554
 7177TIP3   OH243021   5.517   1.308  13.718  0.1461 -0.6535  0.0920
 7177TIP3    H143022   5.573   1.348  13.652  0.6121  0.3677  1.0839
 7177TIP3    H243023   5.452   1.259  13.668 -0.6015  1.5418 -1.1831
 7178TIP3   OH243024   7.047   6.482  12.560 -0.0567  0.2288 -0.2751
 7178TIP3    H143025   6.962   6.524  12.562  0.8583  2.2332 -0.8706
 7178TIP3    H243026   7.063   6.454  12.650 -0.3018  2.0589  0.3630
 7179TIP3   OH243027   5.466   5.624  13.360 -0.1889  0.3708 -0.0232
 7179TIP3    H143028   5.403   5.691  13.332  0.1578  0.3004 -1.0044
 7179TIP3    H243029   5.419   5.573  13.426 -2.4834 -1.8521 -3.0880
 7180TIP3   OH243030   6.188   6.062  14.488 -0.3691 -0.0555  0.1886
 7180TIP3    H143031   6.122   6.039  14.423  0.8342  0.6510 -1.3396
 7180TIP3    H243032   6.138   6.103  14.559 -1.9082 -2.3470  0.5356
 7181TIP3   OH243033   4.977   2.485   0.202 -0.1336 -0.8619  0.6477
 7181TIP3    H143034   4.912   2.520   0.263  0.7945  1.3973  0.4415
 7181TIP3    H243035   5.033   2.428   0.255 -0.1912 -0.0473  1.6068
 7182TIP3   OH243036   1.075   0.454   0.056  0.4305  0.3142 -0.7515
 7182TIP3    H143037   1.151   0.480   0.109 -0.9504  0.9014  1.0554
 7182TIP3    H243038   1.051   0.533   0.009 -0.3047  0.7578  0.3231
 7183TIP3   OH243039   5.278   6.220   4.743  0.0439  0.4120  0.3861
 7183TIP3    H143040   5.212   6.255   4.683  0.4381  2.0977  0.8754
 7183TIP3    H243041   5.247   6.245   4.830 -0.0123 -1.1428  0.8426
 7184TIP3   OH243042   6.514   3.104   2.725 -0.0350 -0.1538  0.0388
 7184TIP3    H143043   6.430   3.083   2.766 -0.7941  2.7614  0.1827
 7184TIP3    H243044   6.512   3.058   2.641 -0.3464 -2.6639  1.3282
 7185TIP3   OH243045   2.071   2.065  12.137  0.0032 -0.2301  0.6492
 7185TIP3    H143046   2.026   2.129  12.192 -0.0281 -1.1913  1.7777
 7185TIP3    H243047   2.035   1.981  12.164 -0.2724 -0.7225 -1.1012
 7186TIP3   OH243048   0.903   5.073  12.714  0.5747  0.2969 -0.1915
 7186TIP3    H143049   0.967   5.140  12.737  0.7951 -0.1292  0.4516
 7186TIP3    H243050   0.949   4.990  12.725 -1.0411 -0.2877  3.8320
 7187TIP3   OH243051   6.085   5.592   2.438  0.1471 -0.1962  0.1900
 7187TIP3    H143052   6.088   5.688   2.435 -1.9453 -0.0666  0.4065
 7187TIP3    H243053   6.084   5.572   2.532  0.0684 -0.3919  0.1470
 7188TIP3   OH243054   1.836   5.747  15.023  0.3885 -0.4956  0.2698
 7188TIP3    H143055   1.849   5.827  15.073 -0.1025 -1.4646  2.0355
 7188TIP3    H243056   1.916   5.737  14.971  2.5460 -1.1990  3.4535
 7189TIP3   OH243057   4.316   5.004   2.121 -0.2428 -0.5498 -0.1392
 7189TIP3    H143058   4.313   5.015   2.026 -1.1967 -0.8735 -0.1612
 7189TIP3    H243059   4.226   4.985   2.146 -0.0491 -0.2349  0.8689
 7190TIP3   OH243060   1.701   5.152   0.383 -0.2459 -0.3139 -0.2274
 7190TIP3    H143061   1.664   5.186   0.465 -0.4253  0.9976 -0.8186
 7190TIP3    H243062   1.727   5.062   0.404  0.9103  0.3820  1.6446
 7191TIP3   OH243063   1.877   3.149  11.741  0.4140  0.7427 -0.2537
 7191TIP3    H143064   1.882   3.212  11.813  0.0569 -0.4977  0.8962
 7191TIP3    H243065   1.793   3.168  11.699 -0.9195 -0.5344  1.6522
 7192TIP3   OH243066   2.870   3.873  15.678 -0.3102  0.2626  0.8457
 7192TIP3    H143067   2.942   3.935  15.672 -0.9095  1.0302  1.3469
 7192TIP3    H243068   2.892   3.817  15.752  0.3226 -0.2558  0.2777
 7193TIP3   OH243069   1.914   0.885  14.747  0.0683  0.0575 -0.0978
 7193TIP3    H143070   1.979   0.918  14.810  2.1796 -3.9511  0.1081
 7193TIP3    H243071   1.878   0.806  14.788 -1.0323 -0.7986 -2.5115
 7194TIP3   OH243072   6.667   2.282  15.305  0.4082 -0.4940  0.3307
 7194TIP3    H143073   6.650   2.330  15.387 -0.5416 -3.5898  2.1165
 7194TIP3    H243074   6.585   2.286  15.257 -0.1462 -1.5068  1.1663
 7195TIP3   OH243075   6.852   0.967  13.797 -0.5862 -0.3315 -0.0743
 7195TIP3    H143076   6.872   0.977  13.890 -2.5298 -0.5476  0.3991
 7195TIP3    H243077   6.759   0.988  13.790 -1.0688 -2.6449 -1.5567
 7196TIP3   OH243078   0.528   1.869  15.629 -0.5101  0.5845 -0.2973
 7196TIP3    H143079   0.518   1.958  15.595  1.0000  0.7931 -0.2683
 7196TIP3    H243080   0.464   1.863  15.700 -0.8484  1.5343 -0.5052
 7197TIP3   OH243081   6.430   6.980  14.239 -0.1718 -0.4274 -0.2282
 7197TIP3    H143082   6.358   7.002  14.180  1.0152 -1.8472 -2.3354
 7197TIP3    H243083   6.402   6.900  14.283 -0.5229 -0.0908  0.1674
 7198TIP3   OH243084   3.977   6.739   3.063 -0.0606  0.1507  0.1495
 7198TIP3    H143085   4.012   6.690   2.988 -0.4578  0.5218 -0.2827
 7198TIP3    H243086   3.955   6.671   3.127 -0.6669 -0.2566 -0.4690
 7199TIP3   OH243087   3.125   2.635   3.994  0.2699  0.1974  0.6547
 7199TIP3    H143088   3.109   2.542   3.981 -0.1164  0.4524 -0.9300
 7199TIP3    H243089   3.221   2.643   3.997  0.3749 -0.0577 -1.0951
 7200TIP3   OH243090   1.613   2.664   1.891 -0.5258  0.1027 -0.3485
 7200TIP3    H143091   1.574   2.725   1.953  0.4519 -1.3703  1.8570
 7200TIP3    H243092   1.580   2.578   1.919 -0.5710 -0.5743 -2.3158
 7201TIP3   OH243093   6.612   1.074   9.988  0.2111  0.3986 -0.2436
 7201TIP3    H143094   6.660   1.015   9.929  0.3307 -0.6517  0.8563
 7201TIP3    H243095   6.535   1.024  10.014  0.8116  0.2916  1.4789
 7202TIP3   OH243096   1.189   2.722  10.717  0.7576  0.2341 -0.7362
 7202TIP3    H143097   1.125   2.658  10.748 -0.4388  1.4321 -0.6674
 7202TIP3    H243098   1.253   2.729  10.788  0.5569 -0.4141 -0.4852
 7203TIP3   OH243099   0.853   2.073  11.972  0.3068  0.6140  0.2324
 7203TIP3    H143100   0.866   1.981  11.996  1.3279  0.6676 -0.0665
 7203TIP3    H243101   0.888   2.080  11.883  3.8775  2.0654  1.5613
 7204TIP3   OH243102   4.586   4.699  14.037  0.4017 -0.5765 -0.3995
 7204TIP3    H143103   4.506   4.671  14.081  1.2216 -2.0020  0.2391
 7204TIP3    H243104   4.593   4.642  13.960  2.3342 -2.6204  1.1663
 7205TIP3   OH243105   4.460   1.199   9.299 -0.4742 -0.2065  0.4647
 7205TIP3    H143106   4.551   1.208   9.328 -0.6901  0.3142  0.9940
 7205TIP3    H243107   4.441   1.105   9.309 -0.3180 -0.1546  1.3447
 7206TIP3   OH243108   4.936   5.859  13.844 -0.1887  0.2681  0.3383
 7206TIP3    H143109   4.970   5.839  13.932 -0.7432  1.1772  0.7770
 7206TIP3    H243110   4.992   5.930  13.813 -0.2788  0.2515  0.1383
 7207TIP3   OH243111   2.846   5.936  13.515  0.5843 -0.3107  0.3154
 7207TIP3    H143112   2.928   5.889  13.498 -0.1814 -1.5800  0.0860
 7207TIP3    H243113   2.866   6.027  13.490  1.1174 -1.0862 -2.3898
 7208TIP3   OH243114   4.239   3.038  13.329  0.9013  0.5195  0.3012
 7208TIP3    H143115   4.313   3.084  13.368  1.0594 -0.7232  1.5313
 7208TIP3    H243116   4.169   3.045  13.393  0.8900 -0.8113  0.4712
 7209TIP3   OH243117   0.710   3.396  10.220 -0.1982 -0.0927 -0.5796
 7209TIP3    H143118   0.644   3.436  10.164  0.1528  1.5696  0.1283
 7209TIP3    H243119   0.790   3.398  10.169 -0.0772  0.5685 -0.3670
 7210TIP3   OH243120   2.631   3.581  15.505 -0.6280  0.0784  0.1023
 7210TIP3    H143121   2.663   3.667  15.481 -0.2305 -0.3837 -1.0964
 7210TIP3    H243122   2.635   3.530  15.424 -0.2974 -1.2319  0.9051
 7211TIP3   OH243123   1.393   7.023   3.415  0.7144  0.9213 -0.3685
 7211TIP3    H143124   1.429   6.949   3.367  0.3581 -0.6277  1.5878
 7211TIP3    H243125   1.301   7.002   3.427  0.3720  2.1772 -0.6042
 7212TIP3   OH243126   0.994   2.458   4.972 -0.2194  0.3025  0.0570
 7212TIP3    H143127   0.912   2.416   4.998  0.3349 -1.0230 -0.2384
 7212TIP3    H243128   1.061   2.394   4.995  0.8822  1.9168  1.5358
 7213TIP3   OH243129   4.437   4.357   5.660 -0.1099 -0.2849  0.5202
 7213TIP3    H143130   4.430   4.270   5.620  0.2450  0.0736 -0.3375
 7213TIP3    H243131   4.510   4.350   5.721  0.5510 -0.3300 -0.2588
 7214TIP3   OH243132   3.442   3.069   0.280  0.6403  0.0056 -0.0983
 7214TIP3    H143133   3.506   3.065   0.209  0.2750  0.7171 -0.4777
 7214TIP3    H243134   3.492   3.099   0.356  1.0101 -0.6542 -0.0810
 7215TIP3   OH243135   1.976   2.199  13.696  0.4992  0.1839 -0.4075
 7215TIP3    H143136   1.898   2.253  13.708  0.2493 -0.1262 -0.6060
 7215TIP3    H243137   1.979   2.143  13.774  0.7197  0.4392 -0.2338
 7216TIP3   OH243138   4.545   2.925   4.254  0.0590  0.0619  0.2022
 7216TIP3    H143139   4.464   2.881   4.279 -0.7182 -0.3790 -2.7347
 7216TIP3    H243140   4.515   3.001   4.203  1.4939  1.5079  1.3996
 7217TIP3   OH243141   3.467   5.374   5.828 -0.1123 -0.0393  0.0951
 7217TIP3    H143142   3.381   5.369   5.786 -0.7944 -0.4666  1.4790
 7217TIP3    H243143   3.468   5.299   5.887  2.1346 -1.3948 -1.5153
 7218TIP3   OH243144   5.039   1.225  15.617  0.2503  0.1740  0.1347
 7218TIP3    H143145   5.107   1.188  15.561  0.0912  0.5759 -0.3369
 7218TIP3    H243146   5.072   1.214  15.706 -0.2920 -2.1268  0.1143
 7219TIP3   OH243147   3.489   0.178  15.079 -0.3999  0.1631  0.2036
 7219TIP3    H143148   3.533   0.120  15.016 -0.6780 -0.9597  1.0267
 7219TIP3    H243149   3.560   0.230  15.118 -0.3058  1.5580 -1.6601
 7220TIP3   OH243150   4.830   3.954  10.186 -0.3415 -0.3061  0.2610
 7220TIP3    H143151   4.788   4.040  10.185 -1.3179 -0.7479 -1.4843
 7220TIP3    H243152   4.773   3.899  10.132  0.3674 -2.0125  1.1622
 7221TIP3   OH243153   0.013   6.708   9.452 -0.3044 -0.2362  0.4617
 7221TIP3    H143154  -0.066   6.709   9.506 -1.6107  1.4639 -1.3001
 7221TIP3    H243155  -0.000   6.635   9.392 -0.4048 -0.1344  0.3594
 7222TIP3   OH243156   0.982   1.554  14.655  0.6530 -0.2075 -0.6246
 7222TIP3    H143157   0.911   1.503  14.695  0.8562  1.8351  2.7091
 7222TIP3    H243158   0.964   1.551  14.561 -1.0039 -3.7792 -0.3728
 7223TIP3   OH243159   7.125   4.664  15.268  0.6835  0.6064 -0.2906
 7223TIP3    H143160   7.198   4.606  15.289  0.7931  0.9240  0.2400
 7223TIP3    H243161   7.065   4.654  15.342 -0.7761 -1.1344 -1.6155
 7224TIP3   OH243162   1.182   2.088  11.795  0.3221  0.4712 -0.1136
 7224TIP3    H143163   1.240   2.143  11.848  0.3574 -0.2411  0.6090
 7224TIP3    H243164   1.210   1.999  11.814  0.4847  0.1999 -1.5347
 7225TIP3   OH243165   1.537   5.641  10.979  0.2478 -0.0881  0.1313
 7225TIP3    H143166   1.607   5.586  10.943  0.9133  1.3153 -0.8362
 7225TIP3    H243167   1.553   5.728  10.940 -1.9590  0.3134 -0.0088
 7226TIP3   OH243168   4.522   2.350  15.326  0.7527  0.1562 -0.1484
 7226TIP3    H143169   4.541   2.260  15.299  1.1316  0.5533 -1.2529
 7226TIP3    H243170   4.455   2.341  15.394  0.0303 -0.9104 -0.9740
 7227TIP3   OH243171   1.352   6.006  11.027 -0.1320 -0.3439 -0.0445
 7227TIP3    H143172   1.288   6.073  11.004  0.7989  0.7098  0.3395
 7227TIP3    H243173   1.306   5.947  11.087 -0.9732 -0.0779 -0.4261
 7228TIP3   OH243174   6.220   2.712   0.826 -0.0198 -0.2390 -0.4490
 7228TIP3    H143175   6.283   2.780   0.849  0.3599 -0.6197 -0.3523
 7228TIP3    H243176   6.141   2.735   0.875  0.6651 -0.8442  1.0207
 7229TIP3   OH243177   1.975   2.377  10.714 -0.1717  0.1153  0.2214
 7229TIP3    H143178   1.904   2.313  10.722  0.5761 -0.7930 -0.3019
 7229TIP3    H243179   1.944   2.453  10.765 -0.7357 -0.9392  1.5172
 7230TIP3   OH243180   1.945   7.051  11.426  0.5916 -0.2563  0.2307
 7230TIP3    H143181   1.980   7.139  11.441  2.9432 -1.2530  1.0678
 7230TIP3    H243182   1.861   7.049  11.473  0.4244  1.5499  0.0599
 7231TIP3   OH243183   2.049   5.549  15.291  0.4544  0.2604  0.4272
 7231TIP3    H143184   1.985   5.618  15.303 -1.1348 -0.9251 -0.8173
 7231TIP3    H243185   1.999   5.467  15.298  1.2382 -0.6882 -2.9790
 7232TIP3   OH243186   3.105   5.703   1.697  0.8046 -0.2534 -0.2187
 7232TIP3    H143187   3.154   5.688   1.616  0.9467  0.1946 -0.2165
 7232TIP3    H243188   3.167   5.747   1.755  0.7446 -0.6999  0.1868
 7233TIP3   OH243189   5.875   1.381  10.319 -0.5127  0.6133 -0.0318
 7233TIP3    H143190   5.826   1.414  10.244  0.1216  0.3293 -0.5726
 7233TIP3    H243191   5.966   1.391  10.295 -0.2315  2.5235  1.5440
 7234TIP3   OH243192   5.128   1.388   1.275 -0.2729  0.1739  0.7143
 7234TIP3    H143193   5.123   1.381   1.370 -0.2404  3.5472  1.0587
 7234TIP3    H243194   5.096   1.476   1.255  2.8219  0.8431 -2.0941
 7235TIP3   OH243195   6.539   5.247  15.318 -0.5115  0.0840 -0.3917
 7235TIP3    H143196   6.578   5.164  15.345 -0.6297 -0.4333 -1.7245
 7235TIP3    H243197   6.584   5.314  15.371  0.9782 -0.6475 -0.6878
 7236TIP3   OH243198   6.821   6.253  11.614 -0.3474  0.2918  0.0355
 7236TIP3    H143199   6.737   6.259  11.660 -0.4578 -1.3366  0.1044
 7236TIP3    H243200   6.835   6.340  11.579 -0.1792  1.6886  3.2624
 7237TIP3   OH243201   5.571   2.575  15.103  0.6342  0.0165  0.4651
 7237TIP3    H143202   5.640   2.637  15.080 -0.1285  0.4241 -0.7639
 7237TIP3    H243203   5.542   2.539  15.020 -1.2343  0.4837  0.8778
 7238TIP3   OH243204   0.684   5.954  11.729 -0.3468  0.1352 -0.7628
 7238TIP3    H143205   0.741   5.895  11.778 -2.3482 -0.7264  0.6650
 7238TIP3    H243206   0.715   6.042  11.752  0.3761 -0.3009  0.0016
 7239TIP3   OH243207   4.950   4.422   1.966  0.2601  0.0376 -0.9168
 7239TIP3    H143208   4.994   4.344   2.001  0.5668  0.2865 -0.7425
 7239TIP3    H243209   4.869   4.428   2.017  1.4488  1.3317  0.9490
 7240TIP3   OH243210   6.046   3.324  10.666 -0.6684 -0.6026 -0.1974
 7240TIP3    H143211   5.966   3.296  10.711 -2.3780  1.1250 -1.9534
 7240TIP3    H243212   6.033   3.295  10.576  1.4330 -1.5978 -0.2236
 7241TIP3   OH243213   0.017   3.425   2.419  0.0308  0.2131  0.5799
 7241TIP3    H143214  -0.008   3.407   2.329 -0.6424  0.5898  0.6818
 7241TIP3    H243215  -0.066   3.441   2.464  0.1697 -1.7974  1.6904
 7242TIP3   OH243216   1.837   0.063   5.056  0.3555 -0.5424  0.3427
 7242TIP3    H143217   1.753   0.036   5.094  0.8011 -0.2293  1.6014
 7242TIP3    H243218   1.855  -0.003   4.988 -0.9023 -0.6047  0.0393
 7243TIP3   OH243219   0.990   4.139  13.052  0.6084  0.2308 -0.1680
 7243TIP3    H143220   0.939   4.130  12.971  0.2557  0.5819  0.0143
 7243TIP3    H243221   0.927   4.120  13.122  0.7214  0.6860  0.0584
 7244TIP3   OH243222   3.075   0.564  14.333 -0.0124  0.2528  0.3114
 7244TIP3    H143223   3.008   0.548  14.267  1.1369  1.6492 -1.2655
 7244TIP3    H243224   3.154   0.582  14.283  1.5955 -1.3464  2.1093
 7245TIP3   OH243225   1.691   0.235  14.361  0.1225  0.0498 -0.2924
 7245TIP3    H143226   1.728   0.173  14.424  1.5003 -0.5744 -1.6615
 7245TIP3    H243227   1.660   0.181  14.289  0.5154  0.8777 -1.1017
 7246TIP3   OH243228   3.211   5.981   0.450  0.5102 -0.2533  0.1402
 7246TIP3    H143229   3.230   6.053   0.390  2.1443 -0.7411  0.0234
 7246TIP3    H243230   3.131   5.941   0.415  0.7524  0.2244 -1.0094
 7247TIP3   OH243231   4.431   7.160   3.719  0.3054  1.0515 -0.0895
 7247TIP3    H143232   4.460   7.091   3.779 -0.6702  0.1610 -0.6114
 7247TIP3    H243233   4.355   7.199   3.761  1.1955  2.2287  0.4757
 7248TIP3   OH243234   6.848   3.465   1.130 -0.2916  0.3874 -0.3623
 7248TIP3    H143235   6.806   3.472   1.044 -1.1584  0.0895  0.0208
 7248TIP3    H243236   6.845   3.371   1.150 -1.4211  0.6035  0.6169
 7249TIP3   OH243237   3.755   5.068  14.263  0.9985 -0.1007 -0.1476
 7249TIP3    H143238   3.788   5.138  14.319 -1.6409  0.9875  0.2168
 7249TIP3    H243239   3.783   5.092  14.175  1.3830  0.6265  0.1654
 7250TIP3   OH243240   4.892   6.435  12.587  0.2687  0.9744 -0.2970
 7250TIP3    H143241   4.819   6.399  12.536  0.6018  0.5097 -0.4452
 7250TIP3    H243242   4.849   6.487  12.655 -0.1665  2.0123 -1.3370
 7251TIP3   OH243243   6.093   0.613   1.235 -0.0947  0.3921 -0.0638
 7251TIP3    H143244   6.026   0.580   1.174 -0.8253 -1.0489  1.4371
 7251TIP3    H243245   6.173   0.565   1.210 -0.9746 -2.1274  1.6101
 7252TIP3   OH243246   0.505   5.918  13.902  0.3256 -0.3403  0.6811
 7252TIP3    H143247   0.594   5.882  13.909  0.2590 -0.3409  1.6259
 7252TIP3    H243248   0.495   5.972  13.980 -0.3137  0.1023  0.2986
 7253TIP3   OH243249   6.003   5.443   0.941  0.1443  0.1304  0.1909
 7253TIP3    H143250   5.909   5.445   0.959  0.1686 -2.7069  1.1772
 7253TIP3    H243251   6.011   5.391   0.861  0.8243  1.9222 -0.9694
 7254TIP3   OH243252   2.553   1.420   2.182 -0.4733 -0.3788 -0.1851
 7254TIP3    H143253   2.510   1.336   2.165  0.1102 -0.7792  0.2535
 7254TIP3    H243254   2.482   1.484   2.184 -0.7369 -0.5229 -2.5558
 7255TIP3   OH243255   1.654   0.406   2.594  0.4102  0.9791 -0.1607
 7255TIP3    H143256   1.690   0.446   2.672  3.2237 -0.8289 -0.4118
 7255TIP3    H243257   1.610   0.327   2.625 -1.4079  1.9541 -0.1227
 7256TIP3   OH243258   1.138   0.397  15.523 -0.0077 -0.2241  0.3026
 7256TIP3    H143259   1.044   0.383  15.509 -0.0229 -1.2112  1.2395
 7256TIP3    H243260   1.145   0.414  15.617  0.9330 -2.0541  0.6056
 7257TIP3   OH243261   0.220   4.130   4.844  0.7034 -0.2925 -0.6716
 7257TIP3    H143262   0.288   4.064   4.832  1.6835  0.3297  1.0841
 7257TIP3    H243263   0.256   4.210   4.806  0.6155 -0.1493 -0.4537
 7258TIP3   OH243264   6.949   0.389   3.126 -0.0956  0.2308  0.0994
 7258TIP3    H143265   6.893   0.439   3.067 -0.5775 -0.0914  0.2725
 7258TIP3    H243266   6.896   0.379   3.205 -1.0622 -2.7401 -0.8035
 7259TIP3   OH243267   1.005   7.005  12.703 -0.4959  0.7704 -0.2680
 7259TIP3    H143268   1.099   6.994  12.693 -0.7544 -1.3041 -0.8111
 7259TIP3    H243269   0.979   6.940  12.768 -1.7034  0.6208 -0.8691
 7260TIP3   OH243270   6.505   5.449   1.549  0.0313 -0.1263  0.3217
 7260TIP3    H143271   6.434   5.499   1.591 -0.1313 -0.2501  0.1945
 7260TIP3    H243272   6.583   5.475   1.597  0.1262  1.0835 -0.4443
 7261TIP3   OH243273   5.777   1.410  13.859  0.0771  0.1967  0.0810
 7261TIP3    H143274   5.770   1.418  13.954  0.3108 -2.0209  0.3307
 7261TIP3    H243275   5.753   1.320  13.841 -0.7761  0.8048 -2.0791
 7262TIP3   OH243276   5.255   3.941   0.704 -0.6546 -0.4198  0.3483
 7262TIP3    H143277   5.300   3.860   0.731  0.8731  0.3986  0.3413
 7262TIP3    H243278   5.320   4.010   0.715 -1.5864  0.6750 -0.7182
 7263TIP3   OH243279   0.447   0.485  10.930 -0.0783  0.6509 -0.1145
 7263TIP3    H143280   0.469   0.429  11.005  2.0944 -0.6872 -1.6228
 7263TIP3    H243281   0.359   0.458  10.905 -0.0701 -0.2570  0.7779
 7264TIP3   OH243282   1.950   4.907  11.253 -0.0230  0.7953 -0.0445
 7264TIP3    H143283   1.934   4.881  11.162  3.0319 -0.0645 -0.4556
 7264TIP3    H243284   1.888   4.856  11.304  0.7341 -1.6449 -1.4181
 7265TIP3   OH243285   0.056   5.147  14.774 -0.0424  0.3561  0.4875
 7265TIP3    H143286   0.113   5.104  14.709 -0.7453  0.3278 -0.1228
 7265TIP3    H243287  -0.021   5.091  14.779 -0.8017  1.3282 -0.0250
 7266TIP3   OH243288   0.407   2.434  13.197  0.0858  0.1770 -0.1315
 7266TIP3    H143289   0.393   2.523  13.165 -1.3100 -0.3657 -1.1243
 7266TIP3    H243290   0.320   2.404  13.224  0.4545 -1.0437 -0.2182
 7267TIP3   OH243291   3.414   3.015  15.732 -0.2956  0.3372  0.0662
 7267TIP3    H143292   3.343   3.077  15.716 -1.1059 -0.4499  0.4787
 7267TIP3    H243293   3.478   3.063  15.783 -1.3814  0.5547  1.2668
 7268TIP3   OH243294   3.089   6.097   2.499 -0.4636 -0.5372 -0.1261
 7268TIP3    H143295   3.162   6.145   2.538  0.4527  0.0283 -2.3344
 7268TIP3    H243296   3.062   6.035   2.566 -1.2749  2.5470  2.6930
 7269TIP3   OH243297   6.772   3.142  14.206  0.0757  0.2063 -0.2585
 7269TIP3    H143298   6.844   3.159  14.268 -0.8749  3.8707  0.0780
 7269TIP3    H243299   6.815   3.135  14.121  1.0171 -0.3731  0.2445
 7270TIP3   OH243300   0.371   0.417   5.201  0.8005  0.0328 -0.5396
 7270TIP3    H143301   0.451   0.364   5.202  1.7578  1.3058 -2.6266
 7270TIP3    H243302   0.391   0.490   5.143 -1.4112  1.2148  0.0507
 7271TIP3   OH243303   4.746   5.038  12.434  0.0392  0.3113 -0.0362
 7271TIP3    H143304   4.824   4.994  12.469  0.2160  0.7827  0.1725
 7271TIP3    H243305   4.772   5.130  12.427 -0.2427  0.3391 -0.7159
 7272TIP3   OH243306   5.796   6.098   1.579  0.5656  0.3012  0.0821
 7272TIP3    H143307   5.710   6.094   1.620  0.6495  0.4650  0.2761
 7272TIP3    H243308   5.794   6.178   1.527  0.2791 -0.1713 -0.6476
 7273TIP3   OH243309   7.143   6.492   4.050  0.4514 -0.2647 -0.1382
 7273TIP3    H143310   7.201   6.545   3.996  2.1578 -0.6555  1.2081
 7273TIP3    H243311   7.085   6.555   4.092 -0.5743  0.0784 -1.9845
 7274TIP3   OH243312   0.514   0.057  13.784 -0.0569  0.5524 -0.6001
 7274TIP3    H143313   0.517   0.149  13.759 -2.5953  0.9208  0.2026
 7274TIP3    H243314   0.548   0.055  13.873 -0.2311  0.7675 -0.5282
 7275TIP3   OH243315   1.175   5.767  13.093 -1.1736  0.1864 -0.7825
 7275TIP3    H143316   1.190   5.862  13.093 -1.2044  0.1950 -1.4839
 7275TIP3    H243317   1.251   5.731  13.047 -0.9505 -0.1654 -0.1440
 7276TIP3   OH243318   0.731   1.223  11.034  0.3480 -0.3593 -0.1030
 7276TIP3    H143319   0.781   1.235  10.953  2.5235  1.3302  1.3685
 7276TIP3    H243320   0.641   1.211  11.005  1.3955 -2.7041 -2.8867
 7277TIP3   OH243321   4.013   6.056  12.701  0.0449 -0.5172  0.0158
 7277TIP3    H143322   4.027   6.008  12.619 -0.2228 -0.4622 -0.0641
 7277TIP3    H243323   4.100   6.082  12.730  0.0703  0.3532 -0.7923
 7278TIP3   OH243324   1.531   4.629   9.880 -0.7700  0.3547  0.2369
 7278TIP3    H143325   1.495   4.551   9.921  0.3621 -0.5577 -0.4431
 7278TIP3    H243326   1.619   4.603   9.852 -0.5762  1.7089 -0.4997
 7279TIP3   OH243327   4.574   1.874   3.212 -0.3532  0.2317 -0.3914
 7279TIP3    H143328   4.638   1.928   3.166 -0.9330 -0.4215 -2.0090
 7279TIP3    H243329   4.499   1.933   3.227 -0.2003  0.4161 -0.3426
 7280TIP3   OH243330   2.341   3.369   4.199  0.0349 -0.1003  0.0348
 7280TIP3    H143331   2.290   3.446   4.224  0.6031  0.7640 -1.3239
 7280TIP3    H243332   2.407   3.360   4.267  0.4506  1.0967 -0.1925
 7281TIP3   OH243333   4.860   1.367   0.447  0.2737 -0.1691 -0.2033
 7281TIP3    H143334   4.929   1.359   0.513 -0.1826  1.0419  0.4534
 7281TIP3    H243335   4.885   1.444   0.395  0.5806 -1.0512 -1.4229
 7282TIP3   OH243336   5.432   4.615  14.752  0.3743  0.1584 -0.0376
 7282TIP3    H143337   5.362   4.672  14.782  0.5342 -0.2771  1.2144
 7282TIP3    H243338   5.512   4.664  14.770  0.5124 -0.4354  1.0491
 7283TIP3   OH243339   0.742   0.058   0.979 -0.3386  0.4040  0.2379
 7283TIP3    H143340   0.653   0.042   0.947 -0.5837  0.5936  0.8085
 7283TIP3    H243341   0.764   0.145   0.946  0.3504 -0.3651 -1.4468
 7284TIP3   OH243342   5.116   3.104   2.675  0.3154 -0.4122 -0.1834
 7284TIP3    H143343   5.067   3.173   2.720  1.3918  1.1325 -1.2660
 7284TIP3    H243344   5.100   3.120   2.582  1.1470 -1.2059 -0.4751
 7285TIP3   OH243345   0.910   2.244   1.855 -0.3774  0.2994 -0.7130
 7285TIP3    H143346   0.949   2.245   1.942 -1.6501  0.1377 -0.1199
 7285TIP3    H243347   0.979   2.276   1.797  0.3792  0.7230  0.3946
 7286TIP3   OH243348   3.306   4.510  15.755  0.3496  0.2952 -0.0138
 7286TIP3    H143349   3.337   4.487  15.667  1.3700  0.1308  0.3753
 7286TIP3    H243350   3.220   4.549  15.740  0.2108 -0.3605 -1.0244
 7287TIP3   OH243351   2.574   4.323   0.953 -0.1369  0.0402 -0.1051
 7287TIP3    H143352   2.531   4.370   0.881  0.6449 -0.0872 -0.6694
 7287TIP3    H243353   2.644   4.273   0.911  1.8966  1.8015  0.9687
 7288TIP3   OH243354   5.024   0.923  14.317  0.3352  0.4761 -0.2810
 7288TIP3    H143355   4.940   0.940  14.359 -0.0262  1.1025 -1.2126
 7288TIP3    H243356   5.072   1.006  14.324  0.4830  0.4216 -0.6071
 7289TIP3   OH243357   4.098   2.681   0.035 -0.3004 -0.2799 -0.3331
 7289TIP3    H143358   4.167   2.692   0.100 -0.3086  0.6409 -0.4661
 7289TIP3    H243359   4.125   2.735  -0.039 -1.1721  0.1334 -0.3685
 7290TIP3   OH243360   6.502   6.766  11.947 -0.0949  0.4918 -0.0533
 7290TIP3    H143361   6.524   6.732  12.034  1.3588 -0.8834 -0.9070
 7290TIP3    H243362   6.416   6.806  11.958 -0.4627 -0.6972  1.7500
 7291TIP3   OH243363   0.263   4.993  12.640  0.7483 -0.4608  0.2472
 7291TIP3    H143364   0.272   5.060  12.572 -0.6517 -0.1666  0.3307
 7291TIP3    H243365   0.202   5.031  12.703  2.1196 -0.6584  1.7777
 7292TIP3   OH243366   3.597   3.696  12.577 -0.4680  0.2560  0.0418
 7292TIP3    H143367   3.521   3.691  12.519 -0.6648  1.1941  0.1995
 7292TIP3    H243368   3.607   3.608  12.611 -1.7475  0.2016  0.3398
 7293TIP3   OH243369   6.216   3.770  10.600  0.2370 -0.1776 -0.3595
 7293TIP3    H143370   6.159   3.714  10.653  2.1964 -0.1301  1.9986
 7293TIP3    H243371   6.211   3.856  10.641  2.7790 -0.4362  0.7116
 7294TIP3   OH243372   2.707   0.372  11.572 -0.6440 -0.9379  0.6019
 7294TIP3    H143373   2.697   0.279  11.556 -2.3523 -0.4173 -2.0537
 7294TIP3    H243374   2.641   0.413  11.516  0.1445  1.8790  1.5558
 7295TIP3   OH243375   6.544   3.928  13.048 -0.0068 -0.1920  0.3046
 7295TIP3    H143376   6.467   3.908  13.102 -0.8393  0.5890 -0.5636
 7295TIP3    H243377   6.577   4.010  13.084 -0.5761  0.3412 -0.3712
 7296TIP3   OH243378   6.102   2.945  11.906  0.1908 -0.0367  0.2989
 7296TIP3    H143379   6.037   2.876  11.919 -0.6275  0.7272  0.3014
 7296TIP3    H243380   6.186   2.900  11.915 -0.3066 -1.2985 -1.0821
 7297TIP3   OH243381   4.995   1.704  11.623 -0.7499 -0.3766 -0.1513
 7297TIP3    H143382   5.033   1.677  11.540 -0.1064 -0.2249  0.0894
 7297TIP3    H243383   5.006   1.799  11.625  1.8715 -0.5954  1.3365
 7298TIP3   OH243384   1.446   2.396  12.693  0.5248  0.2564 -0.2187
 7298TIP3    H143385   1.520   2.336  12.703  1.5452  1.7496  2.0935
 7298TIP3    H243386   1.484   2.483  12.708 -1.4569  1.2057 -0.4335
 7299TIP3   OH243387   2.724   5.602   4.301  0.4596 -0.4196  0.6232
 7299TIP3    H143388   2.770   5.524   4.330  2.5275  0.9406  1.2685
 7299TIP3    H243389   2.778   5.636   4.229 -0.0146  0.7536  0.8004
 7300TIP3   OH243390   0.055   2.943  14.891 -0.2531 -0.1632  0.5099
 7300TIP3    H143391  -0.018   2.990  14.931 -0.8720  1.3992 -2.2182
 7300TIP3    H243392   0.018   2.902  14.813  1.9032  1.6516 -1.6089
 7301TIP3   OH243393   3.855   2.259   3.718  0.1533 -0.2867  0.4198
 7301TIP3    H143394   3.835   2.193   3.784 -1.7512  2.0418  2.3464
 7301TIP3    H243395   3.905   2.326   3.764 -0.2037  0.8453 -0.7680
 7302TIP3   OH243396   4.456   3.810   5.629 -0.3822  0.4582 -0.7672
 7302TIP3    H143397   4.548   3.829   5.651  0.2009 -1.1687 -1.6543
 7302TIP3    H243398   4.412   3.807   5.714  0.7205 -0.3146 -0.2000
 7303TIP3   OH243399   2.783   6.426  11.441  0.4150  0.3684  0.4809
 7303TIP3    H143400   2.804   6.442  11.349 -1.3011  0.6762  0.0987
 7303TIP3    H243401   2.792   6.331  11.452  1.5710  0.4474  0.2637
 7304TIP3   OH243402   2.361   3.207  12.289 -0.5277 -0.0411 -0.4761
 7304TIP3    H143403   2.410   3.285  12.314  1.0929 -1.1554  0.0475
 7304TIP3    H243404   2.299   3.193  12.360  0.5679 -0.3248  0.4634
 7305TIP3   OH243405   4.374   6.149   4.982  0.1358 -0.3000 -0.2887
 7305TIP3    H143406   4.445   6.206   4.952  0.3182 -0.9314 -1.0714
 7305TIP3    H243407   4.295   6.200   4.966  0.3873  0.3885  0.5413
 7306TIP3   OH243408   5.904   0.399   0.754 -0.1846  0.0795 -0.1129
 7306TIP3    H143409   5.905   0.350   0.672  0.5313 -0.8065  0.3965
 7306TIP3    H243410   5.831   0.460   0.745 -0.2295 -0.1277 -1.3271
 7307TIP3   OH243411   2.422   0.535   0.562  0.1069 -0.3405  0.3648
 7307TIP3    H143412   2.332   0.525   0.592 -0.4748 -0.1641 -1.2306
 7307TIP3    H243413   2.415   0.580   0.478  1.7199  0.0773  0.4223
 7308TIP3   OH243414   2.782   5.399   4.762  0.1509  0.1155 -0.3705
 7308TIP3    H143415   2.826   5.343   4.825 -0.2962  0.8344  0.6098
 7308TIP3    H243416   2.834   5.480   4.760 -0.2805  0.3968 -0.3304
 7309TIP3   OH243417   5.468   0.329  11.368 -0.1809 -0.0338  0.3400
 7309TIP3    H143418   5.440   0.414  11.336 -0.6018  0.3201  1.5818
 7309TIP3    H243419   5.425   0.320  11.453  1.5521 -0.5233  1.2211
 7310TIP3   OH243420   4.172   6.596   1.924 -0.2775 -0.2503  0.3250
 7310TIP3    H143421   4.223   6.671   1.893 -1.4115 -0.4804 -2.3728
 7310TIP3    H243422   4.105   6.635   1.981  0.6421  0.4743  0.9366
 7311TIP3   OH243423   0.059   6.399  15.278 -0.4560  0.1885 -0.8284
 7311TIP3    H143424   0.010   6.318  15.263 -1.3564 -0.0862  2.7175
 7311TIP3    H243425  -0.005   6.459  15.317  0.9260  1.4963 -0.4802
 7312TIP3   OH243426   0.886   6.549   1.199 -0.0434  0.5528  0.6628
 7312TIP3    H143427   0.934   6.585   1.125  1.6330 -1.8233  0.4966
 7312TIP3    H243428   0.910   6.457   1.202 -0.4663  0.4185  3.8498
 7313TIP3   OH243429   0.807   3.613  13.963 -0.4634 -0.1956  0.4283
 7313TIP3    H143430   0.749   3.620  13.887 -1.3777 -0.3221  1.0976
 7313TIP3    H243431   0.781   3.531  14.005 -0.5981  0.3380  1.3972
 7314TIP3   OH243432   0.580   3.628  12.974 -0.4168 -0.0737  0.1141
 7314TIP3    H143433   0.604   3.655  13.063 -0.8688 -1.8074  0.7967
 7314TIP3    H243434   0.493   3.667  12.960 -0.9412 -0.8996  0.9783
 7315TIP3   OH243435   0.593   4.117  15.600 -0.0771 -0.1763  0.4118
 7315TIP3    H143436   0.541   4.057  15.547  1.6057 -0.2229 -1.2871
 7315TIP3    H243437   0.683   4.091  15.584  0.7143  2.6165 -0.2009
 7316TIP3   OH243438   0.615   2.681  14.692  0.7300 -0.6066 -0.2958
 7316TIP3    H143439   0.588   2.744  14.759  0.1697 -1.4949  0.3367
 7316TIP3    H243440   0.578   2.715  14.611  1.5650  0.5804 -0.2071
 7317TIP3   OH243441   5.667   7.086  14.823 -0.6973  0.1136 -0.3749
 7317TIP3    H143442   5.697   7.110  14.910 -2.0629  2.4887 -0.4712
 7317TIP3    H243443   5.634   6.997  14.832  2.1686 -0.9277  0.7120
 7318TIP3   OH243444   1.232   3.937  14.065  0.9992 -0.2910 -0.0028
 7318TIP3    H143445   1.168   4.007  14.051  1.0884 -0.1759  0.1532
 7318TIP3    H243446   1.308   3.982  14.103  1.4802 -0.3019 -0.9333
 7319TIP3   OH243447   1.047   7.074   2.080 -0.2621  0.1293  0.4648
 7319TIP3    H143448   1.094   6.993   2.059  0.6286  0.4379  1.2125
 7319TIP3    H243449   1.099   7.142   2.038 -1.6598  0.2437 -1.1891
 7320TIP3   OH243450   4.199   2.464  12.902  0.2201 -0.7019 -0.6221
 7320TIP3    H143451   4.107   2.441  12.900  0.1610 -0.7190  0.9338
 7320TIP3    H243452   4.208   2.534  12.837 -0.7987 -0.9538 -1.0475
 7321TIP3   OH243453   4.529   2.358  14.725 -0.3344  0.3203 -0.1033
 7321TIP3    H143454   4.491   2.432  14.678  0.4288  0.0640 -1.1554
 7321TIP3    H243455   4.474   2.284  14.702 -1.2491  0.5800  1.1486
 7322TIP3   OH243456   0.912   4.113  10.806 -0.6364  0.1938 -0.1262
 7322TIP3    H143457   0.964   4.033  10.796 -2.3345 -1.0914  0.7661
 7322TIP3    H243458   0.959   4.179  10.754 -1.1986 -2.3109 -4.3170
 7323TIP3   OH243459   3.217   2.634  13.082 -0.0828 -0.0058 -0.3417
 7323TIP3    H143460   3.164   2.567  13.124  0.4305  0.2860  0.7916
 7323TIP3    H243461   3.288   2.585  13.040  0.8387 -0.1278  1.2951
 7324TIP3   OH243462   3.621   3.734  11.273 -0.2178  0.1099  0.5279
 7324TIP3    H143463   3.548   3.678  11.246 -0.3718 -0.9768  2.9196
 7324TIP3    H243464   3.586   3.787  11.344  0.9514  0.5864  0.7717
 7325TIP3   OH243465   5.257   5.053  10.861 -0.1894  0.0311  0.3688
 7325TIP3    H143466   5.165   5.029  10.857  0.1101 -1.0575 -1.2082
 7325TIP3    H243467   5.258   5.148  10.847 -1.0461 -0.0130 -0.0383
 7326TIP3   OH243468   5.410   0.965   2.099 -0.5606 -0.0903 -0.0539
 7326TIP3    H143469   5.320   0.991   2.115 -0.3698  0.9645 -0.5908
 7326TIP3    H243470   5.439   1.020   2.026  0.4673 -0.5129  0.0074
 7327TIP3   OH243471   2.364   1.513  12.472 -0.9525  0.3585  0.1890
 7327TIP3    H143472   2.339   1.435  12.423  0.7579 -1.1526  1.5541
 7327TIP3    H243473   2.425   1.560  12.415  1.7615 -1.8590  0.9965
 7328TIP3   OH243474   6.195   5.864  11.577 -0.2893 -0.1925  0.1839
 7328TIP3    H143475   6.151   5.802  11.635 -2.4774 -0.5378 -1.6988
 7328TIP3    H243476   6.126   5.922  11.546  0.8585  0.2475 -1.7213
 7329TIP3   OH243477   6.424   5.222   5.192  0.4248 -0.1386  0.0718
 7329TIP3    H143478   6.417   5.272   5.111 -1.9227 -1.3528 -0.5784
 7329TIP3    H243479   6.437   5.132   5.164  0.3359 -0.4724  1.0620
 7330TIP3   OH243480   3.316   3.322   2.563  0.0808  0.0603  0.2410
 7330TIP3    H143481   3.275   3.403   2.592 -1.2021 -0.4665 -0.0525
 7330TIP3    H243482   3.322   3.269   2.642 -2.6298 -1.0378 -0.1910
 7331TIP3   OH243483   5.405   0.460  12.544  0.1425  1.1699 -0.1224
 7331TIP3    H143484   5.370   0.518  12.477 -1.9244  0.7555  0.5226
 7331TIP3    H243485   5.449   0.519  12.606  0.2585  1.7670 -0.7602
 7332TIP3   OH243486   3.437   0.567   5.301  0.0425  0.4625  0.3906
 7332TIP3    H143487   3.371   0.629   5.334  1.1573  1.3373  1.0263
 7332TIP3    H243488   3.521   0.603   5.330  0.9805  0.4263 -2.0794
 7333TIP3   OH243489   0.682   0.557   4.139  0.1107  0.3753  0.6761
 7333TIP3    H143490   0.753   0.524   4.193  0.5857  0.4582  0.1144
 7333TIP3    H243491   0.726   0.606   4.069 -0.5336  1.2826  0.8908
 7334TIP3   OH243492   6.247   6.772  11.773  0.3311 -0.1713  0.2079
 7334TIP3    H143493   6.173   6.802  11.720 -0.5015 -1.0646  0.8313
 7334TIP3    H243494   6.227   6.804  11.861  0.2151 -1.1912  0.5603
 7335TIP3   OH243495   1.339   5.506  10.772 -0.3135 -0.2678  0.0638
 7335TIP3    H143496   1.345   5.436  10.837  2.3314 -0.7243 -0.5464
 7335TIP3    H243497   1.302   5.464  10.694  0.4787 -0.7856 -0.0366
 7336TIP3   OH243498   1.959   0.965  11.566  0.4113 -0.1287 -0.7843
 7336TIP3    H143499   1.913   0.982  11.648  1.2177 -0.8986 -0.1415
 7336TIP3    H243500   1.891   0.934  11.506 -0.1615  0.2914 -0.3653
 7337TIP3   OH243501   5.871   2.222   5.132 -0.5323  0.2253  0.0731
 7337TIP3    H143502   5.913   2.249   5.214 -0.4018 -1.0212  0.4516
 7337TIP3    H243503   5.944   2.206   5.072 -0.5554 -0.0586  0.1172
 7338TIP3   OH243504   6.751   1.417  12.063 -0.3448  0.2350 -0.1463
 7338TIP3    H143505   6.690   1.489  12.079 -0.5640  0.5832 -2.2572
 7338TIP3    H243506   6.717   1.345  12.115 -1.9426  0.7485 -0.4353
 7339TIP3   OH243507   2.544   2.120   0.308 -0.4153 -0.0471  0.1546
 7339TIP3    H143508   2.484   2.133   0.382 -0.1195 -0.9652  0.5710
 7339TIP3    H243509   2.626   2.091   0.348  0.4042  1.3976 -0.3956
 7340TIP3   OH243510   6.518   5.418  12.994  0.0204  0.1141  0.2654
 7340TIP3    H143511   6.483   5.431  12.906  0.0577  2.6310  0.5627
 7340TIP3    H243512   6.594   5.360  12.981 -1.1201 -1.1745 -1.0505
 7341TIP3   OH243513   5.936   1.997  11.081  0.4058 -0.1902 -0.4206
 7341TIP3    H143514   5.987   2.076  11.099  0.5241 -0.6259  1.3171
 7341TIP3    H243515   5.999   1.926  11.083 -0.2294 -0.8153  2.3694
 7342TIP3   OH243516   3.682   2.098   9.721  0.0033 -0.4317 -0.0492
 7342TIP3    H143517   3.675   2.159   9.795  1.1555 -0.1847 -0.1295
 7342TIP3    H243518   3.682   2.154   9.644 -2.8345 -0.7573 -0.4111
 7343TIP3   OH243519   3.781   4.257  11.132  0.8363  0.4491  0.3534
 7343TIP3    H143520   3.796   4.191  11.064  1.6072  0.3482  0.6127
 7343TIP3    H243521   3.775   4.207  11.213 -1.0335  0.4684  0.2899
 7344TIP3   OH243522   5.789   5.705  13.705  0.0282 -0.0275 -0.5230
 7344TIP3    H143523   5.697   5.715  13.728  0.4660 -0.0567  1.4017
 7344TIP3    H243524   5.809   5.782  13.651 -1.7116 -1.3115 -3.1933
 7345TIP3   OH243525   6.901   0.167  12.009 -0.1648 -0.4758  0.4566
 7345TIP3    H143526   6.944   0.130  12.087  1.3069  0.8303  0.3236
 7345TIP3    H243527   6.908   0.262  12.022 -2.0602 -0.2271 -0.1449
 7346TIP3   OH243528   2.638   3.778   1.331  0.2227  0.5425  0.4577
 7346TIP3    H143529   2.658   3.846   1.395 -0.5929  3.1258 -1.8384
 7346TIP3    H243530   2.544   3.763   1.339  0.0771  1.0321 -0.2328
 7347TIP3   OH243531   6.667   3.835   1.389 -0.0176 -0.1185  0.1418
 7347TIP3    H143532   6.654   3.766   1.324  2.4298 -1.2626  0.7615
 7347TIP3    H243533   6.697   3.789   1.467  0.1387  1.5175  1.0890
 7348TIP3   OH243534   6.833   1.188   9.656 -0.0734  0.1570  0.1100
 7348TIP3    H143535   6.879   1.104   9.668  1.3550  1.0925  1.4601
 7348TIP3    H243536   6.745   1.172   9.689  0.0050 -0.9757 -0.1879
 7349TIP3   OH243537   4.957   6.273   0.018 -0.3486 -0.1784 -0.0984
 7349TIP3    H143538   5.020   6.324  -0.033  1.1164 -1.3126  0.5388
 7349TIP3    H243539   4.918   6.337   0.078  1.9770  0.1388  1.1808
 7350TIP3   OH243540   5.972   1.067  15.628  0.5115  0.7137  0.5901
 7350TIP3    H143541   6.005   1.085  15.540  0.2810  0.2134  0.3931
 7350TIP3    H243542   6.047   1.078  15.685  1.0715 -0.5636  0.1368
 7351TIP3   OH243543   5.094   6.785  12.843  0.0761 -0.0718 -0.1098
 7351TIP3    H143544   5.102   6.709  12.785  1.0421 -0.2261  0.1940
 7351TIP3    H243545   5.146   6.853  12.800 -0.6898  0.3826 -0.3210
 7352TIP3   OH243546   6.496   4.736   3.510 -0.1596 -0.2688  0.2755
 7352TIP3    H143547   6.414   4.781   3.531 -0.3475 -0.6380  0.3505
 7352TIP3    H243548   6.561   4.776   3.568 -0.0672  0.7219 -0.4833
 7353TIP3   OH243549   3.772   6.494  11.594  0.4883 -0.1650  0.5533
 7353TIP3    H143550   3.751   6.584  11.568  0.6523 -0.0196  0.9232
 7353TIP3    H243551   3.693   6.444  11.573 -0.4614  0.4681  2.4219
 7354TIP3   OH243552   4.341   4.364  12.571  0.2554  0.0456  0.2345
 7354TIP3    H143553   4.435   4.353  12.591  0.0380 -0.4455  1.0589
 7354TIP3    H243554   4.298   4.349  12.655 -0.4748  1.8541  0.2291
 7355TIP3   OH243555   6.695   6.584  11.741 -1.0464 -0.6450  0.0010
 7355TIP3    H143556   6.703   6.541  11.826  0.6661  2.0860  1.3205
 7355TIP3    H243557   6.624   6.648  11.753 -0.9744 -0.4200 -0.7240
 7356TIP3   OH243558   6.435   5.590  10.543 -0.2572  0.4806 -0.3127
 7356TIP3    H143559   6.515   5.547  10.573  0.3563  0.8273 -1.4065
 7356TIP3    H243560   6.377   5.589  10.620  0.0717 -1.4570 -0.0370
 7357TIP3   OH243561   2.771   5.101  15.692  0.6940 -0.2394  0.1532
 7357TIP3    H143562   2.843   5.152  15.655 -0.6523  1.2090 -0.5927
 7357TIP3    H243563   2.733   5.055  15.618  0.4608 -0.5042  0.4325
 7358TIP3   OH243564   6.140   3.029   4.472  0.4161  0.5583 -0.1247
 7358TIP3    H143565   6.150   3.052   4.565  0.8998  0.3179 -0.1156
 7358TIP3    H243566   6.125   2.935   4.472  1.5715  0.3596 -0.3563
 7359TIP3   OH243567   1.618   2.122  12.640 -0.0064  0.1527  0.2639
 7359TIP3    H143568   1.567   2.041  12.638 -1.7780  1.2545 -0.6292
 7359TIP3    H243569   1.582   2.175  12.569  1.5682  1.4818  0.4101
 7360TIP3   OH243570   0.886   5.501   2.976 -0.0810 -0.5089 -0.3306
 7360TIP3    H143571   0.838   5.504   3.058  1.7161  1.3177  0.7401
 7360TIP3    H243572   0.969   5.458   2.998  0.6049  0.3872 -1.0556
 7361TIP3   OH243573   6.978   2.348   9.956 -0.1185  0.1764  0.4532
 7361TIP3    H143574   6.991   2.253   9.956 -0.8200  0.0675  1.4000
 7361TIP3    H243575   6.901   2.362   9.901  0.9122  0.3702 -1.0148
 7362TIP3   OH243576   2.202   2.623   0.755 -0.4922 -0.0140 -0.1530
 7362TIP3    H143577   2.198   2.665   0.670 -0.5492  1.4575  0.5472
 7362TIP3    H243578   2.114   2.634   0.792 -0.9307 -1.9672 -0.4653
 7363TIP3   OH243579   3.326   1.918  12.047 -0.3291  0.8286  0.0759
 7363TIP3    H143580   3.403   1.963  12.083  0.7936 -0.9335  0.0073
 7363TIP3    H243581   3.325   1.833  12.092 -1.8983  0.5844 -0.3723
 7364TIP3   OH243582   3.941   1.002  14.199 -0.4324 -0.5182 -0.1756
 7364TIP3    H143583   3.968   0.926  14.147  1.9801 -0.5794  1.0459
 7364TIP3    H243584   3.986   1.076  14.159  0.6192 -0.4108  1.1338
 7365TIP3   OH243585   2.255   4.968   2.842  0.8164  0.0945  0.1688
 7365TIP3    H143586   2.322   4.938   2.903  1.2693 -1.0935 -0.8768
 7365TIP3    H243587   2.303   5.013   2.772  0.5144 -0.4413 -0.4019
 7366TIP3   OH243588   2.375   4.634  10.085  0.1143 -0.2486 -0.1391
 7366TIP3    H143589   2.346   4.643   9.995 -0.9998  0.0941  0.2411
 7366TIP3    H243590   2.362   4.541  10.106  0.2882 -0.3093 -0.2986
 7367TIP3   OH243591   0.983   6.771   5.352 -0.4879 -0.0951 -0.2678
 7367TIP3    H143592   0.915   6.741   5.291  0.2422 -1.2038 -0.5514
 7367TIP3    H243593   1.060   6.783   5.297  0.0090 -0.4851  0.3421
 7368TIP3   OH243594   1.193   6.213  11.693 -0.0725  0.3984 -0.3463
 7368TIP3    H143595   1.128   6.206  11.622 -2.0962  0.2860  1.3973
 7368TIP3    H243596   1.206   6.123  11.722  0.1425  0.5246 -0.0538
 7369TIP3   OH243597   2.479   1.068   0.870 -1.0582  0.0113  0.1521
 7369TIP3    H143598   2.541   1.062   0.942 -2.1544 -0.8172  1.0632
 7369TIP3    H243599   2.518   1.015   0.800 -0.1633  0.5208  0.2502
 7370TIP3   OH243600   3.667   6.497   1.637 -0.1699  0.4561 -0.2494
 7370TIP3    H143601   3.647   6.495   1.544 -1.7692  0.7062  0.0622
 7370TIP3    H243602   3.699   6.408   1.656 -1.0942 -0.0066 -0.7854
 7371TIP3   OH243603   7.078   4.985  13.354  0.1753  0.1207 -0.0327
 7371TIP3    H143604   7.060   5.038  13.431 -0.2755  0.8808 -0.6396
 7371TIP3    H243605   6.992   4.951  13.328  0.1392  0.7440 -0.7987
 7372TIP3   OH243606   5.001   4.926   2.327 -0.3503  0.0179 -0.1990
 7372TIP3    H143607   4.906   4.938   2.332 -0.5224  0.0678 -2.3829
 7372TIP3    H243608   5.025   4.889   2.411 -2.1136  1.1702  0.8935
 7373TIP3   OH243609   3.993   5.579  14.966  0.6193 -0.1449 -0.2478
 7373TIP3    H143610   4.014   5.671  14.979  0.4371  0.0207 -1.0322
 7373TIP3    H243611   4.016   5.536  15.048 -0.2724  0.7690  0.4927
 7374TIP3   OH243612   2.656   5.345   5.407 -0.0758  0.2113 -0.4176
 7374TIP3    H143613   2.568   5.340   5.369 -1.0646  3.1980  1.1686
 7374TIP3    H243614   2.648   5.298   5.490 -0.6258  1.5791  0.3401
 7375TIP3   OH243615   6.916   1.887   3.098  0.2770  0.3127 -0.5564
 7375TIP3    H143616   6.884   1.882   3.188 -0.8759 -0.1570 -0.9710
 7375TIP3    H243617   7.004   1.925   3.106 -0.1905  1.2159  0.6746
 7376TIP3   OH243618   2.254   1.412  15.197  0.3705 -0.7143 -0.1006
 7376TIP3    H143619   2.341   1.447  15.218 -0.4051  1.2436  0.0344
 7376TIP3    H243620   2.227   1.459  15.119 -0.9037 -0.6936  0.3320
 7377TIP3   OH243621   6.331   0.800  10.923 -0.2930  0.7042  0.8678
 7377TIP3    H143622   6.324   0.721  10.977 -2.1637  0.1336 -0.1359
 7377TIP3    H243623   6.293   0.869  10.977  0.2082  0.6842  1.2592
 7378TIP3   OH243624   0.353   3.865   9.970  0.0548  0.1998 -0.2140
 7378TIP3    H143625   0.275   3.905   9.930  0.6902  0.5919 -1.0903
 7378TIP3    H243626   0.321   3.828  10.052 -1.1067  0.1558 -0.6642
 7379TIP3   OH243627   6.860   1.545  11.806 -0.1183  0.0830 -0.4148
 7379TIP3    H143628   6.857   1.484  11.879 -0.4027  0.2428 -0.2935
 7379TIP3    H243629   6.793   1.611  11.826  1.3719  1.4485  0.3523
 7380TIP3   OH243630   4.619   5.271  15.701  0.1387  0.1236  0.1529
 7380TIP3    H143631   4.612   5.330  15.776 -0.5026 -1.3275  1.2846
 7380TIP3    H243632   4.565   5.311  15.633  0.7130  1.4471  0.4460
 7381TIP3   OH243633   4.307   6.711   2.875 -0.0127  1.0677 -0.8456
 7381TIP3    H143634   4.388   6.669   2.902 -0.3232 -0.2242 -1.8328
 7381TIP3    H243635   4.331   6.802   2.857  1.2026  0.7108 -1.0813
 7382TIP3   OH243636   4.741   1.752  11.800 -0.5340 -0.3673  0.2153
 7382TIP3    H143637   4.656   1.734  11.840 -0.4142 -1.1461  0.1354
 7382TIP3    H243638   4.766   1.669  11.759 -0.2109  0.1454 -0.6486
 7383TIP3   OH243639   0.978   2.461  15.738 -0.1168 -0.3829  0.7527
 7383TIP3    H143640   1.064   2.424  15.722 -1.2786 -2.8571 -0.3085
 7383TIP3    H243641   0.938   2.467  15.651 -0.9907  0.8675  1.2054
 7384TIP3   OH243642   5.246   1.426  12.660  0.4874  0.2200 -0.1143
 7384TIP3    H143643   5.316   1.484  12.631  0.2756 -0.0793 -1.2832
 7384TIP3    H243644   5.167   1.461  12.618  0.3424 -0.8354 -0.7554
 7385TIP3   OH243645   5.090   6.855   0.947 -0.0495 -0.1077  0.0051
 7385TIP3    H143646   5.013   6.913   0.951 -0.8017 -1.1664  1.4274
 7385TIP3    H243647   5.161   6.908   0.983 -0.6821  0.0458  1.0810
 7386TIP3   OH243648   5.662   1.443   4.050  0.2340  0.1117  0.1519
 7386TIP3    H143649   5.642   1.359   4.089 -0.1977  0.2312  0.1927
 7386TIP3    H243650   5.757   1.442   4.036  0.0180 -1.1115 -1.5148
 7387TIP3   OH243651   4.751   3.080  14.150  0.1136  0.1445 -0.3843
 7387TIP3    H143652   4.794   3.152  14.104  1.7767 -1.3242 -1.2486
 7387TIP3    H243653   4.812   3.006  14.142 -1.7301 -1.5176  0.0431
 7388TIP3   OH243654   2.349   5.880  13.017  0.3092 -0.2200  0.0370
 7388TIP3    H143655   2.291   5.864  13.092 -1.8025  0.3620 -1.3785
 7388TIP3    H243656   2.294   5.863  12.941  2.1017  0.1728 -1.4033
 7389TIP3   OH243657   1.922   2.498   1.250  0.4198 -0.2385  0.2998
 7389TIP3    H143658   1.947   2.580   1.292 -1.4577  1.1790 -1.1497
 7389TIP3    H243659   1.828   2.506   1.234  0.6827 -1.3719 -2.5508
 7390TIP3   OH243660   1.243   2.470   1.970 -0.7457  0.2414 -0.1723
 7390TIP3    H143661   1.264   2.543   2.029 -0.1349  0.1191 -0.2272
 7390TIP3    H243662   1.183   2.415   2.021 -0.4898  0.3123  0.2148
 7391TIP3   OH243663   0.834   4.615   1.399  0.2580  0.1061 -0.1305
 7391TIP3    H143664   0.833   4.625   1.495 -2.4858 -0.7409  0.0247
 7391TIP3    H243665   0.763   4.672   1.369 -0.2609 -1.1853 -1.4307
 7392TIP3   OH243666   1.649   4.383   5.121  0.5969  1.1662  0.1603
 7392TIP3    H143667   1.670   4.349   5.208 -0.5220  1.8187  0.6949
 7392TIP3    H243668   1.716   4.449   5.105  2.2458 -0.5604 -0.5069
 7393TIP3   OH243669   4.079   2.358  11.481 -0.2611  0.9558  0.0882
 7393TIP3    H143670   4.151   2.311  11.438 -1.4433 -0.5461 -0.3310
 7393TIP3    H243671   4.121   2.402  11.555  1.1833  0.5805 -0.4623
 7394TIP3   OH243672   4.407   4.971   1.252  0.0633  0.1122 -0.0773
 7394TIP3    H143673   4.436   4.890   1.212  0.4121  1.2362 -2.2784
 7394TIP3    H243674   4.452   5.040   1.203 -0.3843  1.6536  1.5573
 7395TIP3   OH243675   5.294   1.652  12.906  0.0088  0.3682 -0.6947
 7395TIP3    H143676   5.282   1.560  12.928 -0.7551  0.4025 -0.9583
 7395TIP3    H243677   5.223   1.698  12.951  1.3098  1.0593  0.8058
 7396TIP3   OH243678   1.208   2.211  10.558  0.0161 -0.0036 -0.2534
 7396TIP3    H143679   1.297   2.246  10.562  1.6643 -3.4682 -2.0317
 7396TIP3    H243680   1.192   2.174  10.644  1.0481 -0.9250 -0.4475
 7397TIP3   OH243681   3.189   0.882  13.082 -0.6147 -0.4850 -0.2814
 7397TIP3    H143682   3.233   0.822  13.022 -0.6602 -1.2930  0.4731
 7397TIP3    H243683   3.100   0.889  13.048 -0.4932 -0.5083 -0.6103
 7398TIP3   OH243684   1.954   3.419  12.700 -0.5302  0.3461 -0.3269
 7398TIP3    H143685   1.971   3.509  12.728  0.6220  0.0349  0.0015
 7398TIP3    H243686   1.931   3.373  12.781 -2.5242  0.6228 -0.6704
 7399TIP3   OH243687   4.911   5.435   1.832 -0.2793  0.2369  0.6293
 7399TIP3    H143688   4.903   5.493   1.756 -0.6549  1.5012  1.5982
 7399TIP3    H243689   4.922   5.348   1.795  1.3507  1.0319 -0.8969
 7400TIP3   OH243690   6.433   0.875   3.738 -0.2990 -0.2726  0.1267
 7400TIP3    H143691   6.420   0.790   3.697 -0.6586  0.2205 -0.8160
 7400TIP3    H243692   6.349   0.895   3.780 -0.1619 -0.4596  0.4861
 7401TIP3   OH243693   6.839   5.386  13.655  0.1448  0.1243 -0.2778
 7401TIP3    H143694   6.826   5.340  13.572  0.6925  0.2812 -0.4584
 7401TIP3    H243695   6.849   5.316  13.720  0.6376 -0.0178 -0.4969
 7402TIP3   OH243696   3.031   3.510  10.059 -0.2177  0.4826 -0.4327
 7402TIP3    H143697   2.981   3.442  10.014 -1.9666  0.8371  0.8216
 7402TIP3    H243698   3.105   3.529  10.002 -0.6605 -1.2207 -1.6304
 7403TIP3   OH243699   0.201   5.022   4.343 -0.1341 -0.3783 -0.0745
 7403TIP3    H143700   0.258   4.970   4.286  0.8281  0.2038  0.3462
 7403TIP3    H243701   0.256   5.093   4.375 -0.8110 -0.3916  1.1740
 7404TIP3   OH243702   0.164   5.963   3.405  0.2864 -0.2879  0.0150
 7404TIP3    H143703   0.240   5.971   3.348  0.8153 -0.5700  0.6681
 7404TIP3    H243704   0.093   5.936   3.346  0.6558  0.0885 -0.6172
 7405TIP3   OH243705   6.252   2.996  11.060 -0.1040  0.7910  0.1272
 7405TIP3    H143706   6.235   2.998  10.965 -0.7788  0.0696  0.2197
 7405TIP3    H243707   6.174   2.955  11.097  0.5915  0.1248  0.8899
 7406TIP3   OH243708   3.695   0.770  14.302  0.2302  0.1585 -0.1872
 7406TIP3    H143709   3.752   0.832  14.257  1.0439 -0.6130 -0.2588
 7406TIP3    H243710   3.608   0.809  14.298  1.0178  2.2544  1.5445
 7407TIP3   OH243711   6.489   3.833   1.020 -0.6594 -0.6306  0.4388
 7407TIP3    H143712   6.490   3.786   1.103  0.1355  0.2693  0.9478
 7407TIP3    H243713   6.576   3.871   1.012 -0.1917 -2.0019 -1.5737
 7408TIP3   OH243714   0.307   4.772   5.161  0.2349 -0.6072  0.0307
 7408TIP3    H143715   0.391   4.794   5.203  0.1511 -1.9236  0.9748
 7408TIP3    H243716   0.295   4.679   5.180 -2.4204 -0.0280  1.7243
 7409TIP3   OH243717   4.283   3.289  10.780  0.1701 -0.1216 -0.2987
 7409TIP3    H143718   4.192   3.267  10.765 -0.3315  0.7672  1.1775
 7409TIP3    H243719   4.310   3.337  10.702 -0.7635 -0.0055 -0.5559
 7410TIP3   OH243720   0.643   6.075  14.596  0.5110  0.0146 -0.2759
 7410TIP3    H143721   0.656   6.110  14.507  0.5083 -0.2491 -0.3786
 7410TIP3    H243722   0.619   5.984  14.583  2.0481 -0.4512  0.0642
 7411TIP3   OH243723   4.166   4.012  13.778 -0.4086 -0.5617 -0.3232
 7411TIP3    H143724   4.091   4.066  13.755  0.0789  0.4320  0.3281
 7411TIP3    H243725   4.142   3.923  13.751 -2.9302 -0.7905  2.1582
 7412TIP3   OH243726   3.476   2.278   5.678  0.0323  0.2603 -0.1743
 7412TIP3    H143727   3.518   2.348   5.727 -0.0249  0.8924 -1.0081
 7412TIP3    H243728   3.540   2.207   5.678  0.2179  0.4191  0.4071
 7413TIP3   OH243729   2.064   3.028  12.710 -0.0250 -0.0989 -0.1232
 7413TIP3    H143730   2.085   3.112  12.669 -0.3983 -0.2474 -0.6296
 7413TIP3    H243731   2.104   2.963  12.653 -2.2391 -0.4209 -1.4201
 7414TIP3   OH243732   1.937   1.336  14.790 -0.0706  0.3077 -0.2196
 7414TIP3    H143733   1.886   1.417  14.788  0.0880  0.4296  0.4217
 7414TIP3    H243734   1.877   1.270  14.755 -1.0253  0.2662  1.3861
 7415TIP3   OH243735   1.394   3.986  11.693 -0.6557 -0.1204 -0.6158
 7415TIP3    H143736   1.385   3.964  11.600 -0.6176  2.3131 -1.2751
 7415TIP3    H243737   1.443   3.913  11.731  1.3230 -0.1609 -3.0093
 7416TIP3   OH243738   5.140   5.886  10.998  0.5240 -0.1313 -0.0243
 7416TIP3    H143739   5.085   5.963  11.011  0.5728 -0.0288 -0.4008
 7416TIP3    H243740   5.203   5.912  10.931  0.4634 -0.5346 -0.2453
 7417TIP3   OH243741   0.869   6.599  10.874 -0.2825  0.0160  0.1201
 7417TIP3    H143742   0.895   6.532  10.811  1.1109 -0.6137  1.3076
 7417TIP3    H243743   0.805   6.555  10.930 -0.7145  0.2408 -0.1948
 7418TIP3   OH243744   0.686   3.349  13.579 -0.1943  0.1715 -0.1855
 7418TIP3    H143745   0.644   3.313  13.500 -0.3078  0.4617 -0.2574
 7418TIP3    H243746   0.779   3.351  13.557 -0.3363  1.3069 -0.7410
 7419TIP3   OH243747   1.671   2.808   3.434 -0.0869  0.4660 -0.0088
 7419TIP3    H143748   1.630   2.772   3.513 -2.0750 -0.1475 -1.2299
 7419TIP3    H243749   1.757   2.836   3.462 -0.1289 -1.1944  2.0321
 7420TIP3   OH243750   1.721   1.730   0.218  0.4244 -0.1669  0.0114
 7420TIP3    H143751   1.816   1.724   0.206  0.5545 -0.2195  1.0020
 7420TIP3    H243752   1.709   1.729   0.313 -0.6496 -1.5932 -0.1124
 7421TIP3   OH243753   4.358   4.306  13.197 -0.3376 -0.4202  0.5648
 7421TIP3    H143754   4.285   4.268  13.150  0.3941 -0.7299 -0.3580
 7421TIP3    H243755   4.422   4.236  13.204  1.0667  0.6004 -1.2328
 7422TIP3   OH243756   4.301   0.402   5.147  0.6761 -0.0443  0.1318
 7422TIP3    H143757   4.262   0.335   5.203  0.4211 -0.8611 -0.9753
 7422TIP3    H243758   4.392   0.408   5.175  0.6093 -0.6041  0.4811
 7423TIP3   OH243759   4.310   0.940   0.877 -0.0763  0.2192  0.1347
 7423TIP3    H143760   4.298   0.893   0.960 -1.6055  0.4530  0.0806
 7423TIP3    H243761   4.298   1.032   0.900 -0.8610  0.2601 -0.3810
 7424TIP3   OH243762   2.293   5.330  11.703  0.2847  0.2672  0.3226
 7424TIP3    H143763   2.309   5.391  11.775 -1.5508  0.7546  0.3782
 7424TIP3    H243764   2.356   5.259  11.717  0.4715  0.7088  1.9846
 7425TIP3   OH243765   2.018   6.238   1.951 -0.4630  0.1322  0.2141
 7425TIP3    H143766   2.096   6.274   1.995  0.3271 -1.6121  0.3122
 7425TIP3    H243767   1.961   6.314   1.939  1.5787  1.6250 -0.6063
 7426TIP3   OH243768   1.495   6.254   1.501  0.1821 -0.2489  0.2887
 7426TIP3    H143769   1.487   6.317   1.430 -0.0817 -0.9975 -0.3585
 7426TIP3    H243770   1.413   6.261   1.549  1.0048  1.4532  1.5635
 7427TIP3   OH243771   0.918   4.344   4.854  0.0123 -0.3887 -0.1985
 7427TIP3    H143772   0.899   4.430   4.892 -0.5355 -0.8136  0.5224
 7427TIP3    H243773   0.856   4.285   4.897 -0.1794 -1.0050 -1.2955
 7428TIP3   OH243774   0.677   0.935  10.724 -0.5539 -0.0867  0.0659
 7428TIP3    H143775   0.739   0.995  10.683  0.3979 -1.4297 -0.5347
 7428TIP3    H243776   0.591   0.966  10.695 -0.0206  0.2792 -1.2209
 7429TIP3   OH243777   2.504   1.324   0.880 -0.2832 -0.2847 -0.0348
 7429TIP3    H143778   2.496   1.232   0.853  0.2745 -0.2990 -0.1582
 7429TIP3    H243779   2.493   1.322   0.975  0.0774 -0.5219  0.0029
 7430TIP3   OH243780   7.092   3.972  13.735 -0.2749 -0.1373 -0.2836
 7430TIP3    H143781   7.132   3.897  13.778  2.4916  0.4049 -1.6804
 7430TIP3    H243782   7.120   4.047  13.787 -1.0578  0.1422 -0.2441
 7431TIP3   OH243783   6.471   6.959   4.693 -0.1382  0.0821  0.0881
 7431TIP3    H143784   6.467   6.966   4.788  0.3118 -0.1176  0.1213
 7431TIP3    H243785   6.414   6.884   4.672 -2.3171  1.6609 -0.0155
 7432TIP3   OH243786   1.037   6.882  15.058  0.1920 -0.4659 -0.1445
 7432TIP3    H143787   1.088   6.881  14.976  0.9623 -0.9544  0.3318
 7432TIP3    H243788   1.094   6.928  15.120  0.0745 -1.0720  0.4112
 7433TIP3   OH243789   3.332   5.473  11.201  0.3264  0.7303  0.1626
 7433TIP3    H143790   3.351   5.523  11.122  0.9458 -0.5775 -0.5505
 7433TIP3    H243791   3.404   5.493  11.261  1.9473 -1.1117 -1.0378
 7434TIP3   OH243792   4.193   1.196  13.248 -0.9761  0.3170  0.5771
 7434TIP3    H143793   4.179   1.273  13.302 -1.3183 -0.8770  2.2526
 7434TIP3    H243794   4.288   1.181  13.252 -0.4767  2.1022 -1.9171
 7435TIP3   OH243795   0.881   4.551  13.353  0.4372  0.1510  0.2947
 7435TIP3    H143796   0.888   4.572  13.260  3.7654 -2.4699 -0.2375
 7435TIP3    H243797   0.853   4.459  13.355  1.1818 -0.0759  1.8210
 7436TIP3   OH243798   4.713   0.901  15.446 -0.1038 -0.0345  0.5612
 7436TIP3    H143799   4.757   0.984  15.431  3.4175 -1.8397  0.0515
 7436TIP3    H243800   4.654   0.918  15.520  0.1821  2.9465  0.2046
 7437TIP3   OH243801   6.532   2.767   1.271 -0.4126  0.6995 -0.0008
 7437TIP3    H143802   6.591   2.692   1.277  0.8315  1.5894 -0.6882
 7437TIP3    H243803   6.447   2.733   1.299  0.6105 -0.3764  2.0227
 7438TIP3   OH243804   3.838   4.510  12.919  0.4574 -0.1188 -0.2888
 7438TIP3    H143805   3.932   4.504  12.935  0.8563 -0.4092 -2.4356
 7438TIP3    H243806   3.825   4.463  12.837 -1.8210 -1.4494  0.7307
 7439TIP3   OH243807   0.777   3.446  14.227  1.0263  0.2662  0.5867
 7439TIP3    H143808   0.710   3.487  14.282  1.7932  0.9623  1.0410
 7439TIP3    H243809   0.854   3.502  14.240  1.5491 -0.2440 -0.2937
 7440TIP3   OH243810   3.856   6.656   1.136 -0.1404 -0.3553  0.0853
 7440TIP3    H143811   3.927   6.648   1.072  0.6344  1.0010  0.7226
 7440TIP3    H243812   3.825   6.567   1.149 -0.8671 -0.6274 -2.7447
 7441TIP3   OH243813   1.156   1.451   0.418 -0.4135 -0.6443  0.4624
 7441TIP3    H143814   1.233   1.508   0.408 -1.3520  0.5003 -0.5164
 7441TIP3    H243815   1.182   1.369   0.374  0.5409 -0.5835  0.8818
 7442TIP3   OH243816   3.870   6.270  14.804 -0.4346  0.0476  0.2320
 7442TIP3    H143817   3.892   6.201  14.742  1.3183  0.1969  0.6337
 7442TIP3    H243818   3.923   6.250  14.881 -0.7169  1.2514  0.7569
 7443TIP3   OH243819   2.322   4.887  14.133  0.6107  0.5087  0.3041
 7443TIP3    H143820   2.360   4.820  14.189  0.8297 -0.5675 -1.0928
 7443TIP3    H243821   2.227   4.879  14.147  0.4105 -1.9240 -1.7499
 7444TIP3   OH243822   1.863   2.275   5.021  0.1939 -1.1568  0.1820
 7444TIP3    H143823   1.861   2.337   5.093  0.0586 -0.4494 -0.4177
 7444TIP3    H243824   1.898   2.194   5.059 -1.7820 -1.4382  1.5028
 7445TIP3   OH243825   2.069   0.537  14.680 -0.1831  0.7873 -0.1868
 7445TIP3    H143826   2.015   0.557  14.756 -0.2726 -0.9644  0.2501
 7445TIP3    H243827   2.007   0.527  14.608 -0.1900  1.4418 -0.2742
 7446TIP3   OH243828   2.774   1.043  14.703 -0.2834  0.0543  0.9517
 7446TIP3    H143829   2.805   1.108  14.640 -0.9494 -0.9389 -0.4767
 7446TIP3    H243830   2.852   0.993  14.725 -0.5360 -1.9165 -2.0008
 7447TIP3   OH243831   2.971   1.737   4.877  0.1467  0.4162  0.3708
 7447TIP3    H143832   3.045   1.678   4.867 -0.3118 -0.0020 -0.6439
 7447TIP3    H243833   2.923   1.731   4.795 -1.1004  0.5798  1.0540
 7448TIP3   OH243834   0.266   4.149  10.610  0.5681 -0.0935 -0.4040
 7448TIP3    H143835   0.241   4.215  10.545 -0.2309 -0.4669 -0.4877
 7448TIP3    H243836   0.243   4.187  10.694  0.5441 -0.0776 -0.4181
 7449TIP3   OH243837   0.434   0.979   2.620 -0.3301  0.1668 -0.0524
 7449TIP3    H143838   0.351   1.028   2.610 -0.9222 -0.8023  0.0027
 7449TIP3    H243839   0.446   0.972   2.714 -0.5427 -0.2741 -0.0558
 7450TIP3   OH243840   3.739   4.727   1.307 -0.0763  0.1534 -0.0396
 7450TIP3    H143841   3.670   4.792   1.319 -1.0380 -0.5520 -1.5110
 7450TIP3    H243842   3.764   4.734   1.215  0.2481 -1.0943 -0.0692
 7451TIP3   OH243843   2.683   2.807   5.266 -0.7032  0.5773 -1.0077
 7451TIP3    H143844   2.752   2.827   5.203 -1.0644  1.9218 -0.9931
 7451TIP3    H243845   2.729   2.772   5.342 -0.1803 -0.0597 -1.6077
 7452TIP3   OH243846   2.968   5.682  11.730  0.0240 -0.7356  0.8934
 7452TIP3    H143847   2.925   5.764  11.755  2.5551  1.1995 -0.6139
 7452TIP3    H243848   2.927   5.658  11.647  0.3156 -0.1315  0.5702
 7453TIP3   OH243849   6.279   0.320  11.539 -0.0526  0.3462 -0.0489
 7453TIP3    H143850   6.326   0.263  11.477 -2.4749 -2.2360  0.2494
 7453TIP3    H243851   6.219   0.370  11.484 -0.9465 -0.6370 -0.0060
 7454TIP3   OH243852   5.722   1.539  15.749 -0.4203 -0.3883  0.1054
 7454TIP3    H143853   5.654   1.578  15.804 -0.9653 -1.7975  0.4677
 7454TIP3    H243854   5.676   1.511  15.670 -0.2592 -1.2279  0.2955
 7455TIP3   OH243855   0.841   0.870   4.151  0.3121  0.7777  0.3438
 7455TIP3    H143856   0.812   0.823   4.073  1.7284 -0.6461  0.6092
 7455TIP3    H243857   0.932   0.844   4.162  0.5960  2.1558  1.6112
 7456TIP3   OH243858   0.810   2.327  11.327 -0.4448 -0.3932  0.0124
 7456TIP3    H143859   0.764   2.246  11.348  0.2779 -0.7064  0.4159
 7456TIP3    H243860   0.873   2.302  11.259 -0.2087 -0.1745  0.1481
 7457TIP3   OH243861   0.439   5.362  12.189  0.0609 -0.2851  0.6937
 7457TIP3    H143862   0.412   5.279  12.150 -1.6633  0.0859  0.9747
 7457TIP3    H243863   0.402   5.428  12.130 -0.4762  0.2696  1.6265
 7458TIP3   OH243864   2.774   7.132  11.263 -0.1502 -0.6931  0.4223
 7458TIP3    H143865   2.864   7.139  11.230 -0.2076 -0.4954  0.3036
 7458TIP3    H243866   2.752   7.040  11.253 -0.7639 -0.3712 -1.6897
 7459TIP3   OH243867   5.648   3.057   4.753 -0.1557 -0.1650 -0.0762
 7459TIP3    H143868   5.638   2.973   4.797 -1.4844 -0.8886 -1.6361
 7459TIP3    H243869   5.639   3.036   4.660 -3.1517  1.9672 -0.4071
 7460TIP3   OH243870   0.114   5.431   4.991 -0.0362 -0.6147 -0.0438
 7460TIP3    H143871   0.100   5.342   4.957  0.1771 -0.8956  0.5874
 7460TIP3    H243872   0.206   5.449   4.970  0.1921 -0.9176  0.6493
 7461TIP3   OH243873   0.783   1.374  14.241  0.0269  0.0352 -0.5122
 7461TIP3    H143874   0.714   1.436  14.264  1.9730  2.2341 -0.0774
 7461TIP3    H243875   0.738   1.293  14.220 -2.6894  1.5537 -0.9820
 7462TIP3   OH243876   3.430   1.447   3.988  0.5585  0.9035 -0.4604
 7462TIP3    H143877   3.342   1.418   3.964  0.9944 -0.5427 -0.4362
 7462TIP3    H243878   3.441   1.418   4.079  0.7463  1.8500 -0.1749
 7463TIP3   OH243879   0.717   2.259  12.562  0.0956 -0.2994  0.1384
 7463TIP3    H143880   0.719   2.349  12.529  0.7974 -0.6347 -0.8026
 7463TIP3    H243881   0.808   2.239  12.584 -0.0062 -0.8749  0.0668
 7464TIP3   OH243882   1.141   6.881   1.647  0.7684 -0.0532 -0.4009
 7464TIP3    H143883   1.196   6.872   1.725  2.1396  1.9462 -1.0197
 7464TIP3    H243884   1.194   6.845   1.576  0.9494  1.0941 -0.8743
 7465TIP3   OH243885   3.830   0.163   2.254  0.2671  0.1605  0.0997
 7465TIP3    H143886   3.864   0.205   2.175 -0.7851  0.8047 -0.0364
 7465TIP3    H243887   3.864   0.074   2.251 -0.7258 -0.2031 -1.7373
 7466TIP3   OH243888   5.231   6.980  11.546  0.0434 -0.2617  0.1162
 7466TIP3    H143889   5.234   6.933  11.629  1.0408  0.8963  0.7589
 7466TIP3    H243890   5.315   6.960  11.505  0.4457  0.8901  0.3647
 7467TIP3   OH243891   0.916   3.345  15.693  0.5670 -0.1247  0.1525
 7467TIP3    H143892   0.844   3.282  15.692  1.3069 -1.0047 -0.8220
 7467TIP3    H243893   0.988   3.300  15.649  1.2957  1.2142 -0.1018
 7468TIP3   OH243894   2.364   6.438  14.958  0.0794  0.0522  0.2435
 7468TIP3    H143895   2.352   6.400  15.045  0.2940 -2.2341 -0.6368
 7468TIP3    H243896   2.439   6.391  14.922  0.5091  1.5415 -0.8941
 7469TIP3   OH243897   5.309   3.001   5.545 -0.2136 -0.4607  0.4503
 7469TIP3    H143898   5.284   3.072   5.604 -0.3260 -0.7966  0.8144
 7469TIP3    H243899   5.404   2.997   5.550 -0.2712 -1.0841  1.3287
 7470TIP3   OH243900   5.820   3.760  14.967  0.1591  0.0839 -0.2760
 7470TIP3    H143901   5.773   3.723  15.042 -0.5958 -0.8771 -1.2052
 7470TIP3    H243902   5.909   3.727  14.976 -0.1397 -0.7385 -0.2570
 7471TIP3   OH243903   6.190   3.826  15.347 -0.8008  0.1109 -0.4513
 7471TIP3    H143904   6.271   3.850  15.301  0.6968  1.1375  2.4420
 7471TIP3    H243905   6.203   3.734  15.371  0.4929  0.7368  1.5844
 7472TIP3   OH243906   4.531   2.328   3.837 -0.1548  0.1047  0.3594
 7472TIP3    H143907   4.545   2.403   3.778  0.2033 -0.6054 -0.4765
 7472TIP3    H243908   4.574   2.255   3.793 -0.4999 -0.5992  1.1756
 7473TIP3   OH243909   4.564   2.485  15.610 -0.8609  0.7586  0.1308
 7473TIP3    H143910   4.552   2.413  15.672 -1.3164  0.6415 -0.0869
 7473TIP3    H243911   4.645   2.464  15.563  0.0181  1.3405  1.3382
 7474TIP3   OH243912   0.920   1.582   0.632 -0.0971  0.2526 -0.1007
 7474TIP3    H143913   0.874   1.498   0.626  1.1344 -0.3550 -1.7057
 7474TIP3    H243914   0.850   1.647   0.640 -1.0575 -0.9264  1.7327
 7475TIP3   OH243915   3.881   6.141   4.097 -0.0131  0.2015  0.0358
 7475TIP3    H143916   3.822   6.103   4.163  0.2311  1.1535  0.8309
 7475TIP3    H243917   3.826   6.204   4.050 -0.4364 -1.1339 -1.3250
 7476TIP3   OH243918   4.615   3.679  12.537 -0.3966  0.0190 -0.2325
 7476TIP3    H143919   4.582   3.766  12.516  0.4427  0.1697 -1.0112
 7476TIP3    H243920   4.575   3.622  12.471 -2.7904 -0.6388  1.6369
 7477TIP3   OH243921   4.740   1.814  15.289  0.1126 -0.1038  0.4577
 7477TIP3    H143922   4.645   1.803  15.277  0.1397 -0.0134  0.1671
 7477TIP3    H243923   4.779   1.765  15.217  0.2610  1.0709 -0.2839
 7478TIP3   OH243924   6.477   4.549  13.676  0.5101 -0.1653 -1.1049
 7478TIP3    H143925   6.409   4.613  13.657  0.1081 -0.3845 -0.4340
 7478TIP3    H243926   6.436   4.488  13.737  1.7157  0.4575  0.4007
 7479TIP3   OH243927   4.083   1.473   4.172 -0.2054 -0.0861 -0.4693
 7479TIP3    H143928   4.086   1.391   4.123 -0.7876 -0.5660  0.2742
 7479TIP3    H243929   3.990   1.497   4.174 -0.0769  0.4218 -0.4024
 7480TIP3   OH243930   3.565   2.154  14.884 -0.2151  0.5072 -0.5460
 7480TIP3    H143931   3.568   2.172  14.790 -0.9831 -1.2214 -0.9470
 7480TIP3    H243932   3.507   2.221  14.920 -0.4802  0.7600 -1.4194
 7481TIP3   OH243933   3.455   3.979   1.215  0.0144  0.4110  0.3573
 7481TIP3    H143934   3.547   3.966   1.192  0.3887  1.8189  0.9822
 7481TIP3    H243935   3.450   4.069   1.245 -1.7514  0.6309 -0.4795
 7482TIP3   OH243936   4.590   0.634  10.790 -0.0738  0.0766  0.4673
 7482TIP3    H143937   4.597   0.542  10.817 -1.9273 -0.3656 -0.3950
 7482TIP3    H243938   4.594   0.631  10.695 -2.5014  0.5607  0.2854
 7483TIP3   OH243939   3.749   1.486  14.252  0.0095 -0.9291 -0.7633
 7483TIP3    H143940   3.664   1.528  14.263  0.4814 -0.2344  0.4010
 7483TIP3    H243941   3.771   1.453  14.340  1.3157 -0.3581 -0.8521
 7484TIP3   OH243942   3.266   5.784  11.264  0.3784  0.3576  0.2097
 7484TIP3    H143943   3.323   5.857  11.286  1.0888 -0.5537  1.5568
 7484TIP3    H243944   3.307   5.743  11.189 -0.5746  1.8872 -1.2201
 7485TIP3   OH243945   4.704   6.125  12.436  0.0033  0.1750 -0.7912
 7485TIP3    H143946   4.637   6.060  12.413 -0.2408  0.0283  0.3081
 7485TIP3    H243947   4.707   6.183  12.360 -3.2360  1.7426  0.0662
 7486TIP3   OH243948   6.779   1.284   0.578 -0.7421 -0.3074 -0.3673
 7486TIP3    H143949   6.756   1.317   0.664 -0.4714  0.5921 -0.6272
 7486TIP3    H243950   6.870   1.257   0.585  0.1456  2.2336 -1.0204
 7487TIP3   OH243951   5.379   4.471   0.057  0.1497 -0.3383  0.1682
 7487TIP3    H143952   5.399   4.549   0.005 -1.7794  0.8831  1.1711
 7487TIP3    H243953   5.284   4.461   0.050  0.1425 -1.4979  1.5748
 7488TIP3   OH243954   2.277   6.419   3.435 -0.0921  0.2064  0.2488
 7488TIP3    H143955   2.220   6.408   3.511  0.3153  2.4358  0.9694
 7488TIP3    H243956   2.218   6.443   3.364 -0.2470  0.6762  0.5301
 7489TIP3   OH243957   0.879   6.738  15.222 -0.6547 -0.2097  0.0879
 7489TIP3    H143958   0.884   6.783  15.306  2.2952 -0.6601  0.2413
 7489TIP3    H243959   0.930   6.792  15.162 -1.0643 -0.9182 -0.9220
 7490TIP3   OH243960   4.844   2.389  11.060 -0.1773  0.2674 -0.3153
 7490TIP3    H143961   4.795   2.317  11.099  1.7812 -0.7159  0.4364
 7490TIP3    H243962   4.880   2.353  10.979  1.5063  0.0633  0.4737
 7491TIP3   OH243963   0.686   3.341  13.864  0.0666  0.0864 -0.2606
 7491TIP3    H143964   0.603   3.381  13.889  0.8741  3.5761 -2.3878
 7491TIP3    H243965   0.688   3.349  13.768  2.3756 -0.9222 -0.3636
 7492TIP3   OH243966   2.314   5.440  12.727 -0.1504 -0.5978 -0.7756
 7492TIP3    H143967   2.292   5.399  12.644  2.1877 -0.5370 -1.5178
 7492TIP3    H243968   2.391   5.391  12.758 -0.5496 -0.1702  1.0025
 7493TIP3   OH243969   0.703   4.015  13.898 -0.2304  0.1842 -0.3386
 7493TIP3    H143970   0.629   4.055  13.943 -1.6211 -1.8150 -0.7257
 7493TIP3    H243971   0.758   3.979  13.968  0.2510  1.3866 -0.0681
 7494TIP3   OH243972   2.131   5.632  10.686  0.6139  0.2349 -0.0866
 7494TIP3    H143973   2.040   5.659  10.692  0.1862 -0.9062 -1.0027
 7494TIP3    H243974   2.154   5.646  10.594  0.5986 -1.6822 -0.4321
 7495TIP3   OH243975   0.175   4.860   0.012 -0.5632  0.2367  0.2930
 7495TIP3    H143976   0.169   4.939  -0.041 -0.3660  0.8271  1.1146
 7495TIP3    H243977   0.109   4.872   0.081  0.0877  0.1147  0.9571
 7496TIP3   OH243978   2.090   6.060  13.976  0.3601 -0.0871  0.0820
 7496TIP3    H143979   2.182   6.044  13.954  0.5070  2.1061 -1.1490
 7496TIP3    H243980   2.047   5.975  13.963  2.1560 -1.1351  0.6068
 7497TIP3   OH243981   1.174   3.827  13.733  0.0964 -0.3435  0.0574
 7497TIP3    H143982   1.105   3.892  13.749  1.4828  1.0242  0.7445
 7497TIP3    H243983   1.255   3.874  13.749  1.1931 -2.0487 -0.2550
 7498TIP3   OH243984   3.909   0.455  10.324  0.1190  0.0350  0.3793
 7498TIP3    H143985   3.948   0.417  10.246 -0.7198 -0.7495  0.3297
 7498TIP3    H243986   3.835   0.398  10.345 -1.1424  1.5791  0.3516
 7499TIP3   OH243987   1.789   0.817   2.869  0.5316  0.3805 -0.1618
 7499TIP3    H143988   1.775   0.726   2.894  1.6094  0.3300  0.2970
 7499TIP3    H243989   1.708   0.862   2.895  0.7042 -0.1076  1.2966
 7500TIP3   OH243990   5.948   1.510   4.054  0.0853 -0.2975 -0.3268
 7500TIP3    H143991   5.973   1.426   4.092  1.4167 -0.2292 -1.0048
 7500TIP3    H243992   5.996   1.575   4.104  1.0308 -0.1363 -1.3923
 7501TIP3   OH243993   3.520   6.692   0.558 -0.5270  0.1405 -0.2830
 7501TIP3    H143994   3.511   6.647   0.642 -0.5262  0.6606  0.0013
 7501TIP3    H243995   3.500   6.784   0.578 -1.1661  0.1615 -0.9822
 7502TIP3   OH243996   3.068   1.926   0.318  0.0674  0.0402  0.6119
 7502TIP3    H143997   3.144   1.983   0.303 -0.1620  0.2637  0.2968
 7502TIP3    H243998   3.084   1.888   0.405  0.3088  0.4520  0.7505
 7503TIP3   OH243999   1.156   6.664   2.583 -0.3178 -0.0887 -0.3990
 7503TIP3    H144000   1.170   6.758   2.568  0.3515 -0.1770 -0.3374
 7503TIP3    H244001   1.217   6.641   2.653 -0.9001 -0.4498 -0.0005
 7504TIP3   OH244002   2.742   2.981  15.517  0.1147  0.3821  0.4292
 7504TIP3    H144003   2.734   2.927  15.596  1.2822 -1.3026 -0.5314
 7504TIP3    H244004   2.774   3.065  15.547 -1.3941  0.4548  1.9561
 7505TIP3   OH244005   0.350   1.584   4.808 -0.1620  0.0154  0.3544
 7505TIP3    H144006   0.391   1.531   4.740  0.1028  2.2532 -1.3524
 7505TIP3    H244007   0.422   1.634   4.847  0.0197 -2.5799  3.7587
 7506TIP3   OH244008   6.562   6.957  14.742  0.5194  0.0236  0.1700
 7506TIP3    H144009   6.609   6.927  14.819  0.7247 -2.1380 -0.7222
 7506TIP3    H244010   6.500   6.887  14.722  0.7009  0.3474 -1.8035
 7507TIP3   OH244011   0.327   1.363   1.304 -0.1021 -0.4265  0.5924
 7507TIP3    H144012   0.353   1.337   1.392  0.1925  0.5654  0.8117
 7507TIP3    H244013   0.237   1.332   1.295 -0.0289 -0.8018  1.1312
 7508TIP3   OH244014   0.578   0.138  10.451 -0.2789  0.2068 -0.1993
 7508TIP3    H144015   0.536   0.141  10.537 -1.8988 -0.4065 -0.9282
 7508TIP3    H244016   0.562   0.224  10.413  2.1277  1.1832  0.8167
 7509TIP3   OH244017   4.193   1.796  14.872  0.1499  0.1381  0.2714
 7509TIP3    H144018   4.232   1.876  14.906 -1.7930  1.2008  0.1119
 7509TIP3    H244019   4.267   1.735  14.865  1.8475  2.1359 -0.3633
 7510TIP3   OH244020   1.254   5.982   3.205 -0.4816 -0.0517  0.4134
 7510TIP3    H144021   1.323   5.948   3.150 -1.0746 -0.5068 -0.0641
 7510TIP3    H244022   1.241   6.072   3.174 -1.0282 -0.4070 -0.4137
 7511TIP3   OH244023   5.374   5.611   1.462  0.2405 -0.3961 -0.1386
 7511TIP3    H144024   5.375   5.700   1.424 -1.3947 -0.5353 -0.5914
 7511TIP3    H244025   5.371   5.553   1.386  1.1663 -0.8629  0.1607
 7512TIP3   OH244026   3.272   5.037  13.287  0.6309 -0.2048  0.2300
 7512TIP3    H144027   3.179   5.041  13.263  0.3331 -1.9929  0.9424
 7512TIP3    H244028   3.278   5.087  13.368  0.1540 -0.6257  0.5300
 7513TIP3   OH244029   2.851   2.508  12.191 -0.1764  0.6107 -0.2922
 7513TIP3    H144030   2.875   2.582  12.134 -1.4545  0.9696 -0.3862
 7513TIP3    H244031   2.779   2.465  12.145  1.5182 -1.6643 -1.0193
 7514TIP3   OH244032   2.513   2.202   0.928  0.3664 -0.2084  0.2598
 7514TIP3    H144033   2.457   2.280   0.938  0.0393 -0.5150  0.8570
 7514TIP3    H244034   2.566   2.200   1.008 -0.0515 -0.9337  0.5255
 7515TIP3   OH244035   0.843   1.208   0.949 -0.2506 -0.3175 -0.6138
 7515TIP3    H144036   0.784   1.282   0.960  0.7090  0.3963 -0.1968
 7515TIP3    H244037   0.867   1.182   1.038  0.6343 -0.1238 -0.7832
 7516TIP3   OH244038   0.471   2.328   1.102 -0.0210  0.2450 -0.3496
 7516TIP3    H144039   0.490   2.310   1.009  0.8064  1.2229 -0.3875
 7516TIP3    H244040   0.391   2.379   1.101 -0.3436 -0.2582 -0.4823
 7517TIP3   OH244041   4.788   0.070   4.093 -0.0533 -0.1497 -0.1626
 7517TIP3    H144042   4.757   0.152   4.057  1.4970  0.4812 -0.1665
 7517TIP3    H244043   4.785   0.009   4.020 -0.1753  0.2073 -0.4559
 7518TIP3   OH244044   7.098   5.674  14.860 -0.1412 -0.3314  0.4619
 7518TIP3    H144045   7.162   5.671  14.789  0.4905 -0.3872  1.0227
 7518TIP3    H244046   7.129   5.744  14.917  0.0849 -1.1260  1.3467
 7519TIP3   OH244047   5.758   2.804  13.789 -0.1145 -0.7701 -0.2141
 7519TIP3    H144048   5.847   2.829  13.814 -0.2962 -0.3526  0.0213
 7519TIP3    H244049   5.712   2.887  13.780 -0.9375 -1.0337  1.3478
 7520TIP3   OH244050   1.612   2.554   3.914  0.5256 -0.3391  0.3210
 7520TIP3    H144051   1.694   2.594   3.886  0.2217 -0.2833 -0.4979
 7520TIP3    H244052   1.553   2.564   3.840  0.5873 -2.7335 -0.1324
 7521TIP3   OH244053   2.923   2.068  15.139  0.3557  0.2479 -0.7472
 7521TIP3    H144054   2.874   1.993  15.171 -0.1531  0.3533 -1.2603
 7521TIP3    H244055   3.014   2.048  15.158  0.1399 -0.0816 -0.0468
 7522TIP3   OH244056   4.175   0.714   1.046  0.2991  0.0471 -0.0491
 7522TIP3    H144057   4.092   0.675   1.074  1.1215 -0.3165  2.0866
 7522TIP3    H244058   4.167   0.724   0.951 -2.5758  0.9793  0.2047
 7523TIP3   OH244059   0.668   4.892  10.560  0.0552  0.2604 -0.3823
 7523TIP3    H144060   0.712   4.972  10.587  0.0716 -0.0778  0.6550
 7523TIP3    H244061   0.579   4.919  10.539  0.6565  0.9081 -2.2747
 7524TIP3   OH244062   0.585   2.737  10.840  0.3363 -0.1034 -0.8849
 7524TIP3    H144063   0.515   2.802  10.853  0.4822 -0.2646  1.0423
 7524TIP3    H244064   0.581   2.682  10.918  4.0950  1.2903  0.5259
 7525TIP3   OH244065   6.860   3.661  11.852 -0.0834 -0.4682 -0.4647
 7525TIP3    H144066   6.954   3.672  11.871  0.0524 -1.2299 -0.6604
 7525TIP3    H244067   6.818   3.733  11.898  0.3253 -1.6522  1.9640
 7526TIP3   OH244068   4.848   3.966  14.544 -0.2504 -0.0841  0.2116
 7526TIP3    H144069   4.820   4.057  14.556 -2.5458 -0.5127 -1.3494
 7526TIP3    H244070   4.918   3.970  14.479 -0.0699  0.5898  0.4420
 7527TIP3   OH244071   2.390   0.383   0.946 -0.4815 -0.3348  0.2163
 7527TIP3    H144072   2.313   0.354   0.897  0.0297  0.7972 -1.3671
 7527TIP3    H244073   2.356   0.418   1.028 -2.0667  2.8775 -1.6284
 7528TIP3   OH244074   2.455   0.413  11.832  0.2799  0.1340 -0.1734
 7528TIP3    H144075   2.481   0.496  11.793  0.0479 -0.1209 -0.8819
 7528TIP3    H244076   2.461   0.349  11.761 -0.5322 -0.2664  0.1058
 7529TIP3   OH244077   6.954   4.011  14.869 -0.2725  0.2834 -0.0056
 7529TIP3    H144078   7.042   3.988  14.900  0.1468  0.8200 -0.7759
 7529TIP3    H244079   6.967   4.091  14.819 -1.5277  1.6175  1.6766
 7530TIP3   OH244080   4.334   0.541   2.171 -0.5126  0.4259 -0.2266
 7530TIP3    H144081   4.396   0.489   2.223 -0.9373 -0.7628 -0.8624
 7530TIP3    H244082   4.304   0.609   2.231  0.5703  0.3472  0.4305
 7531TIP3   OH244083   4.467   6.309   3.219  0.2592  0.5892 -0.2947
 7531TIP3    H144084   4.449   6.310   3.125 -1.8066 -0.8115  0.0241
 7531TIP3    H244085   4.438   6.394   3.250  0.4618  0.8616 -0.8430
 7532TIP3   OH244086   5.888   5.929  10.691 -0.7720  0.4215 -0.3273
 7532TIP3    H144087   5.817   5.952  10.751  0.9978  2.6149  1.1087
 7532TIP3    H244088   5.968   5.952  10.739  1.0332 -2.9465 -1.4139
 7533TIP3   OH244089   0.878   4.283  13.277 -0.1361  0.4027  0.1274
 7533TIP3    H144090   0.843   4.285  13.188 -0.2956 -0.4577  0.1633
 7533TIP3    H244091   0.803   4.266  13.333  0.1545 -0.3263  0.3063
 7534TIP3   OH244092   1.902   0.526   1.375  0.5170 -0.4934 -0.1492
 7534TIP3    H144093   1.861   0.613   1.379 -1.5154 -1.4381  0.8028
 7534TIP3    H244094   1.987   0.542   1.335  0.4986  2.0527  0.6359
 7535TIP3   OH244095   4.774   6.568   3.840  0.0160 -0.6524  0.2844
 7535TIP3    H144096   4.746   6.537   3.753  0.1970  0.4850 -0.1985
 7535TIP3    H244097   4.695   6.603   3.880  0.5898  2.3736 -0.9987
 7536TIP3   OH244098   3.574   3.669   1.295 -0.0519  0.5563 -0.2152
 7536TIP3    H144099   3.615   3.641   1.213  0.9009 -0.6249  0.6328
 7536TIP3    H244100   3.625   3.744   1.324 -1.6479  2.3286 -1.6906
 7537TIP3   OH244101   5.259   1.240   3.208 -0.1381  0.1206  0.0686
 7537TIP3    H144102   5.310   1.169   3.247 -2.2218 -0.8324  1.2300
 7537TIP3    H244103   5.193   1.261   3.274 -1.8785  0.5851 -1.7227
 7538TIP3   OH244104   4.287   3.298   0.533  0.0323  0.0706  0.0071
 7538TIP3    H144105   4.309   3.274   0.443 -0.5088 -2.7029  0.5155
 7538TIP3    H244106   4.202   3.341   0.527 -0.1649 -0.4062 -0.8028
 7539TIP3   OH244107   5.969   1.729   4.685  0.1257  0.3818 -0.4053
 7539TIP3    H144108   5.884   1.728   4.729 -0.1919 -2.7642 -0.8524
 7539TIP3    H244109   6.032   1.749   4.755 -0.7991  0.8039  0.3357
 7540TIP3   OH244110   5.134   6.652  12.356 -0.2865 -0.3468  0.2710
 7540TIP3    H144111   5.047   6.614  12.347  0.0917 -1.0515 -0.5362
 7540TIP3    H244112   5.165   6.664  12.266  0.1435  0.6432  0.5319
 7541TIP3   OH244113   3.944   4.956   3.322  0.0283  0.0552 -0.5302
 7541TIP3    H144114   3.945   4.965   3.226 -1.0947  0.9927 -0.4689
 7541TIP3    H244115   3.911   4.867   3.336  1.7398 -0.7147 -1.0007
 7542TIP3   OH244116   4.738   0.449   4.338 -0.6658  0.3040  0.1222
 7542TIP3    H144117   4.779   0.363   4.346  0.2386  0.3428 -2.7829
 7542TIP3    H244118   4.660   0.434   4.285  0.0517  1.3562 -1.3010
 7543TIP3   OH244119   0.462   2.445  13.593 -0.5251  0.5032  0.6785
 7543TIP3    H144120   0.391   2.438  13.657 -0.6005 -0.5628  0.4965
 7543TIP3    H244121   0.421   2.485  13.516 -2.0295 -3.4930 -0.8805
 7544TIP3   OH244122   2.458   0.665  11.170  0.1594 -0.2610 -0.1853
 7544TIP3    H144123   2.478   0.678  11.077 -1.5409  1.7951 -0.3386
 7544TIP3    H244124   2.365   0.645  11.172  0.0619  0.2485  1.1206
 7545TIP3   OH244125   1.490   6.226   0.274 -0.2435 -0.3990  0.4131
 7545TIP3    H144126   1.431   6.158   0.241  0.4540 -1.1228  0.6174
 7545TIP3    H244127   1.432   6.291   0.314 -0.8226 -2.2168  2.7397
 7546TIP3   OH244128   6.496   6.150  11.124 -0.8426 -0.6389  0.4313
 7546TIP3    H144129   6.457   6.090  11.060  0.9188 -0.6889 -0.6613
 7546TIP3    H244130   6.437   6.225  11.126 -0.1137  0.1472 -2.6023
 7547TIP3   OH244131   0.256   0.045  14.833 -0.3279 -0.1464  0.3225
 7547TIP3    H144132   0.346   0.025  14.857 -0.1123  1.5088  1.0378
 7547TIP3    H244133   0.211  -0.039  14.831  0.9391 -0.8599  1.1955
 7548TIP3   OH244134   5.270   3.368  15.566 -0.5369 -0.0529  0.0426
 7548TIP3    H144135   5.189   3.318  15.552 -0.2556 -0.3042 -0.7543
 7548TIP3    H244136   5.336   3.301  15.586 -0.0952 -0.0569 -1.3026
 7549TIP3   OH244137   2.060   1.481  14.040  0.0782  0.3048 -0.5065
 7549TIP3    H144138   2.112   1.407  14.008 -0.3515 -1.0105  1.6166
 7549TIP3    H244139   2.118   1.525  14.103 -1.1124 -0.8740  1.5020
 7550TIP3   OH244140   6.809   3.692  10.793  0.1636  0.5728 -0.0720
 7550TIP3    H144141   6.769   3.606  10.804 -0.4420  0.9820  1.0525
 7550TIP3    H244142   6.903   3.675  10.798  0.0543 -0.0572 -0.0835
 7551TIP3   OH244143   4.345   2.619  12.123 -0.1627 -0.2011  0.4927
 7551TIP3    H144144   4.276   2.617  12.058 -0.7739  0.8028  1.0748
 7551TIP3    H244145   4.353   2.529  12.154 -1.3277 -0.3057  0.5271
 7552TIP3   OH244146   2.959   6.689  13.361 -0.7875 -0.6796 -0.1285
 7552TIP3    H144147   2.913   6.755  13.413  1.8357  0.9692  0.3037
 7552TIP3    H244148   2.997   6.629  13.426 -0.8395 -0.9974 -0.3845
 7553TIP3   OH244149   6.636   2.047   4.087  0.9463 -0.3823  0.6513
 7553TIP3    H144150   6.716   2.000   4.065  0.6733  0.3258 -2.2903
 7553TIP3    H244151   6.658   2.139   4.074 -0.4903 -0.2151 -1.0497
 7554TIP3   OH244152   0.579   3.277  11.770  0.7482 -0.4345  0.2208
 7554TIP3    H144153   0.556   3.351  11.715 -0.3115 -0.9821 -0.1152
 7554TIP3    H244154   0.601   3.207  11.709 -1.7265 -1.4559  0.3727
 7555TIP3   OH244155   0.328   5.115   3.399 -0.2645 -0.4228 -0.0170
 7555TIP3    H144156   0.375   5.181   3.348 -1.1289  0.3910  0.2076
 7555TIP3    H244157   0.393   5.080   3.460  0.1109  0.5219  0.1314
 7556TIP3   OH244158   7.026   4.747   1.001  0.2454  0.0429 -0.2580
 7556TIP3    H144159   7.090   4.810   0.970 -0.9976  1.9228  0.8111
 7556TIP3    H244160   7.074   4.691   1.061  0.8043  1.8709  1.0835
 7557TIP3   OH244161   4.905   6.336  13.831  0.7519 -0.2648  0.6368
 7557TIP3    H144162   4.906   6.427  13.801  0.2392 -1.5135 -3.8073
 7557TIP3    H244163   4.817   6.324  13.866  0.7008  0.8343  0.9313
 7558TIP3   OH244164   3.021   1.202  14.107  0.4870 -0.6451 -0.4206
 7558TIP3    H144165   2.990   1.237  14.023  0.1015 -1.5112 -0.6492
 7558TIP3    H244166   2.964   1.242  14.173  2.1439  1.7524 -0.3086
 7559TIP3   OH244167   4.710   4.487  13.610 -0.8886  0.0912  0.0833
 7559TIP3    H144168   4.644   4.420  13.591 -0.9433 -0.3196  1.5485
 7559TIP3    H244169   4.709   4.494  13.706  2.4734 -1.2973  0.3703
 7560TIP3   OH244170   2.325   3.755  14.027  0.4019  0.1344 -0.3552
 7560TIP3    H144171   2.284   3.690  14.085  0.7412  0.6374  0.4668
 7560TIP3    H244172   2.253   3.785  13.971 -0.0162 -0.1081  0.0374
 7561TIP3   OH244173   3.088   3.780   0.201  0.1534  1.0244 -0.0896
 7561TIP3    H144174   3.149   3.816   0.265 -1.5601  0.6928  1.8030
 7561TIP3    H244175   3.018   3.844   0.195 -0.3468  0.4369 -0.6896
 7562TIP3   OH244176   3.866   2.900   0.788 -0.3593 -0.0329 -0.2479
 7562TIP3    H144177   3.933   2.946   0.837 -0.0646  0.0072 -0.6832
 7562TIP3    H244178   3.903   2.813   0.772 -1.0810 -0.5997  0.9462
 7563TIP3   OH244179   2.711   2.692  14.628  0.1601  0.1358 -0.7451
 7563TIP3    H144180   2.797   2.673  14.588  1.0910  1.1629  0.6727
 7563TIP3    H244181   2.727   2.684  14.722 -0.8380  2.1128 -0.3591
 7564TIP3   OH244182   3.544   3.736  13.320 -0.1371 -0.0632 -0.2258
 7564TIP3    H144183   3.559   3.806  13.257 -1.6481  1.3268  0.8665
 7564TIP3    H244184   3.485   3.675  13.275 -1.4065  1.0405 -0.1130
 7565TIP3   OH244185   0.486   5.647   1.120  0.0521  0.4964 -0.1729
 7565TIP3    H144186   0.578   5.659   1.096  0.3091  0.0463  0.5589
 7565TIP3    H244187   0.458   5.733   1.151  0.4933  0.4087  0.4741
 7566TIP3   OH244188   3.811   1.435  12.225 -0.3687  0.1321  0.0048
 7566TIP3    H144189   3.747   1.497  12.191  1.1690  1.0703 -1.2576
 7566TIP3    H244190   3.822   1.370  12.156 -0.5415 -0.4918  0.5459
 7567TIP3   OH244191   4.505   5.904   2.234 -0.3151 -0.5451 -0.0474
 7567TIP3    H144192   4.435   5.840   2.247  0.0723 -1.0946 -0.6307
 7567TIP3    H244193   4.550   5.875   2.155  0.7460 -0.3523  0.4715
 7568TIP3   OH244194   1.203   3.540  13.694  0.1746  0.2368  0.5706
 7568TIP3    H144195   1.119   3.509  13.659  0.1824  0.5828  0.2406
 7568TIP3    H244196   1.190   3.634  13.707  0.1180  0.1018  1.6515
 7569TIP3   OH244197   2.539   1.571   0.020  0.3710 -0.5143  0.4716
 7569TIP3    H144198   2.606   1.640   0.026 -0.0941 -0.1520  2.0008
 7569TIP3    H244199   2.589   1.490   0.019  0.8750 -0.2532  1.7800
 7570TIP3   OH244200   3.188   0.645   1.498  0.0607  0.4957 -0.4058
 7570TIP3    H144201   3.275   0.641   1.537 -1.0744 -1.2506  2.2284
 7570TIP3    H244202   3.131   0.675   1.569 -1.9845 -1.8567 -0.8983
 7571TIP3   OH244203   4.863   4.268   9.754  0.0683 -0.1358 -0.1107
 7571TIP3    H144204   4.811   4.348   9.756  1.0478  0.5115 -0.2165
 7571TIP3    H244205   4.953   4.297   9.744  0.5340 -1.2187  0.6947
 7572TIP3   OH244206   6.361   0.188   9.409  0.0543 -0.5168 -0.1087
 7572TIP3    H144207   6.427   0.121   9.426  0.5802  0.4899  2.2243
 7572TIP3    H244208   6.280   0.150   9.442  0.1451 -0.4607  0.1880
 7573TIP3   OH244209   2.138   2.479  11.585  0.6082  0.9549 -0.3367
 7573TIP3    H144210   2.047   2.464  11.610  0.6710  1.1394  0.0092
 7573TIP3    H244211   2.133   2.525  11.501  0.4047 -1.0414 -1.4948
 7574TIP3   OH244212   1.448   1.406  15.004  0.0630 -0.7566 -0.1295
 7574TIP3    H144213   1.439   1.494  14.969 -2.1680 -1.5385 -1.8604
 7574TIP3    H244214   1.429   1.414  15.098 -0.3879  0.5740 -0.3229
 7575TIP3   OH244215   5.554   1.667  12.996 -0.1862 -0.0244  0.1462
 7575TIP3    H144216   5.560   1.759  13.023 -1.1229 -0.1326  0.7748
 7575TIP3    H244217   5.464   1.658  12.963 -0.5178 -1.0052  1.2492
 7576TIP3   OH244218   5.334   4.572  10.901 -0.0588  0.0832 -0.0317
 7576TIP3    H144219   5.342   4.628  10.824  0.9360  0.6622  0.4682
 7576TIP3    H244220   5.266   4.614  10.954 -0.5046 -0.1260 -0.4352
 7577TIP3   OH244221   6.724   4.145  10.916 -0.0656  0.0340  0.0118
 7577TIP3    H144222   6.765   4.070  10.872 -0.0497 -2.7076  4.1503
 7577TIP3    H244223   6.631   4.138  10.894 -0.2468 -2.0001  1.1687
 7578TIP3   OH244224   2.272   1.568  15.592 -0.3978 -0.1465  0.2958
 7578TIP3    H144225   2.307   1.492  15.638  0.6481  0.2972  0.2641
 7578TIP3    H244226   2.312   1.643  15.636 -0.1227  0.3200 -0.7217
 7579TIP3   OH244227   6.186   0.253  12.417 -0.5860  0.1444 -0.2149
 7579TIP3    H144228   6.141   0.192  12.475  0.9136 -0.7133  0.1072
 7579TIP3    H244229   6.136   0.250  12.335  0.7271 -3.4644 -1.0907
 7580TIP3   OH244230   1.303   3.549  10.868  0.3372 -0.3543  0.3686
 7580TIP3    H144231   1.294   3.560  10.773 -1.7627 -0.4101  0.5360
 7580TIP3    H244232   1.288   3.637  10.903 -2.0394 -0.8878  0.8103
 7581TIP3   OH244233   4.896   1.597   0.321  0.1612 -0.0359 -0.5517
 7581TIP3    H144234   4.936   1.658   0.259  0.1727  0.6540  0.1147
 7581TIP3    H244235   4.807   1.585   0.288  0.8938 -1.6757 -2.1107
 7582TIP3   OH244236   1.387   6.448  12.558 -0.0203  0.0903 -0.2407
 7582TIP3    H144237   1.395   6.533  12.602  0.1621 -1.5007  3.0373
 7582TIP3    H244238   1.476   6.414  12.553 -0.0166  0.2458 -2.0556
 7583TIP3   OH244239   6.645   2.876  11.504  0.3180 -0.2212 -0.5609
 7583TIP3    H144240   6.740   2.883  11.510  0.7500 -3.8136 -1.1528
 7583TIP3    H244241   6.628   2.864  11.411 -0.7387  0.2317 -0.4442
 7584TIP3   OH244242   6.101   6.917  10.155 -0.0617  0.2229 -0.1175
 7584TIP3    H144243   6.029   6.930  10.092 -1.1035 -1.8358  0.5341
 7584TIP3    H244244   6.170   6.875  10.104 -0.4608 -0.4041 -0.1532
 7585TIP3   OH244245   6.580   4.363   0.922 -0.5275  0.2175  0.2843
 7585TIP3    H144246   6.537   4.292   0.873 -0.1737 -0.8615  1.4706
 7585TIP3    H244247   6.543   4.357   1.010  0.4605  0.6781  0.7449
 7586TIP3   OH244248   3.491   1.750   1.814  0.4754 -0.3456 -0.2101
 7586TIP3    H144249   3.443   1.672   1.785  1.5127 -0.8166 -0.7380
 7586TIP3    H244250   3.535   1.722   1.894 -0.3094  0.1501  0.3932
 7587TIP3   OH244251   4.449   1.622   6.121 -0.2796  0.5177  0.0247
 7587TIP3    H144252   4.389   1.666   6.181 -1.0513 -0.1810 -0.2176
 7587TIP3    H244253   4.525   1.601   6.175 -1.2210 -0.6824  0.9562
 7588TIP3   OH244254   0.177   2.063  14.048  0.3643  0.1120  0.2027
 7588TIP3    H144255   0.086   2.059  14.017  0.1766  1.8672  0.4533
 7588TIP3    H244256   0.175   2.021  14.134  0.0443 -0.8886 -0.2658
 7589TIP3   OH244257   6.550   6.820  15.175 -0.0468 -0.1634 -0.0449
 7589TIP3    H144258   6.505   6.760  15.115  0.6902 -1.5188  0.6971
 7589TIP3    H244259   6.593   6.883  15.117 -1.2889 -0.0130 -0.8314
 7590TIP3   OH244260   1.191   6.518  11.961 -0.7811 -0.3229  0.3457
 7590TIP3    H144261   1.119   6.500  11.900 -0.3078 -0.4707 -0.1805
 7590TIP3    H244262   1.257   6.561  11.907 -0.4958 -0.1364  0.8397
 7591TIP3   OH244263   5.029   1.605  13.942 -0.5228  0.0222  0.0051
 7591TIP3    H144264   4.943   1.564  13.938 -0.8608  0.7235 -0.0155
 7591TIP3    H244265   5.062   1.602  13.853  0.1584 -1.6724  0.2869
 7592TIP3   OH244266   6.884   0.167   9.416  0.2129  0.5608 -0.6031
 7592TIP3    H144267   6.937   0.088   9.403  0.8514  1.0506 -1.0427
 7592TIP3    H244268   6.947   0.239   9.409 -0.0973  1.0586  1.2797
 7593TIP3   OH244269   2.855   0.029   1.638 -0.7402  0.8528  0.4704
 7593TIP3    H144270   2.825   0.029   1.547  0.5238 -2.7483 -0.0920
 7593TIP3    H244271   2.786  -0.017   1.686  0.4375 -1.0179  0.4744
 7594TIP3   OH244272   1.669   5.842  14.435  0.1712 -0.0029 -0.7562
 7594TIP3    H144273   1.674   5.751  14.406 -0.8500 -0.5485  0.6712
 7594TIP3    H244274   1.647   5.836  14.528  1.4412  1.7023 -0.3076
 7595TIP3   OH244275   3.983   3.216  10.799 -0.3702 -0.6722 -0.0170
 7595TIP3    H144276   3.950   3.129  10.822 -0.9859 -0.7145 -1.0058
 7595TIP3    H244277   3.949   3.232  10.711  0.0188  0.4317  0.0207
 7596TIP3   OH244278   5.706   3.468  11.871  0.2843 -0.5038 -0.2058
 7596TIP3    H144279   5.753   3.512  11.800 -0.2279 -1.1453 -0.9612
 7596TIP3    H244280   5.615   3.470  11.843  0.2823 -2.3789 -0.4703
 7597TIP3   OH244281   3.505   3.363   0.668 -0.5419  0.1513 -0.0424
 7597TIP3    H144282   3.556   3.425   0.720 -0.4065  0.2147 -0.2492
 7597TIP3    H244283   3.419   3.405   0.658 -0.4202  0.3507 -0.2637
 7598TIP3   OH244284   6.244   4.502  12.279  0.3070 -0.0301 -0.3837
 7598TIP3    H144285   6.214   4.422  12.321 -0.2631  0.7847  0.8204
 7598TIP3    H244286   6.295   4.547  12.346  0.4878  0.6959 -0.9906
 7599TIP3   OH244287   2.064   2.563   1.531  0.2372  0.1894  0.8352
 7599TIP3    H144288   1.969   2.561   1.536  0.1426  0.6508 -0.5190
 7599TIP3    H244289   2.093   2.502   1.599 -1.0606 -0.8469  0.4974
 7600TIP3   OH244290   5.103   5.803  12.061 -0.1191 -0.6614  0.5177
 7600TIP3    H144291   5.025   5.748  12.047  0.5461 -1.7748  1.0173
 7600TIP3    H244292   5.144   5.808  11.974  0.4369 -1.9676  0.6776
 7601TIP3   OH244293   3.892   6.037  11.519  0.2788 -0.6585  0.1515
 7601TIP3    H144294   3.841   6.106  11.562 -0.4182 -0.5721 -0.7890
 7601TIP3    H244295   3.858   5.956  11.556  0.1194 -0.5601  0.2240
 7602TIP3   OH244296   5.258   5.880   1.719  0.0233 -0.7085 -0.4147
 7602TIP3    H144297   5.322   5.813   1.742  0.5273  0.0347  0.3892
 7602TIP3    H244298   5.248   5.932   1.798 -1.8861 -1.0388 -0.3946
 7603TIP3   OH244299   1.919   4.297  12.906  0.2166  0.4082 -0.4570
 7603TIP3    H144300   1.866   4.364  12.862  0.7712  0.5059 -0.9943
 7603TIP3    H244301   2.008   4.311  12.873  0.8263  1.0298  1.3700
 7604TIP3   OH244302   1.818   3.901   4.912 -0.5888 -0.2235  0.2207
 7604TIP3    H144303   1.797   3.954   4.835 -0.0984  1.7783  1.3844
 7604TIP3    H244304   1.908   3.873   4.897 -0.4066  0.3714  0.1530
 7605TIP3   OH244305   5.394   2.157  12.521  0.0806  0.2245 -0.2127
 7605TIP3    H144306   5.329   2.225  12.539  0.7370  0.4650  1.4137
 7605TIP3    H244307   5.430   2.135  12.606  1.3027 -0.7542 -0.9441
 7606TIP3   OH244308   5.854   7.045   0.118 -0.2544  0.1045  0.7985
 7606TIP3    H144309   5.830   7.129   0.155  0.2484  0.8780 -0.5662
 7606TIP3    H244310   5.805   7.040   0.035  1.5650  0.1891 -0.3427
 7607TIP3   OH244311   6.719   1.526  13.096 -0.1805 -0.1978 -0.2202
 7607TIP3    H144312   6.668   1.595  13.138  1.2709  1.7157 -1.4146
 7607TIP3    H244313   6.659   1.452  13.089 -2.1973  1.3277  0.0122
 7608TIP3   OH244314   6.853   3.469   4.455 -0.4961  0.3851 -0.5142
 7608TIP3    H144315   6.803   3.455   4.375 -0.8056  2.0990 -0.6695
 7608TIP3    H244316   6.861   3.565   4.461  1.8128  0.2159  0.0852
 7609TIP3   OH244317   3.493   4.878  10.638 -0.2816 -0.0083 -0.0491
 7609TIP3    H144318   3.484   4.963  10.681 -0.2387  0.2277 -0.4998
 7609TIP3    H244319   3.417   4.828  10.668 -0.8055  0.5018 -0.4835
 7610TIP3   OH244320   1.548   5.181  11.013  0.5109 -0.2289  0.2412
 7610TIP3    H144321   1.558   5.139  11.098  1.4101  1.1063  0.8340
 7610TIP3    H244322   1.497   5.260  11.031  0.5850 -0.0048 -0.4826
 7611TIP3   OH244323   2.061   1.992   3.974 -0.1029  0.3871 -0.0487
 7611TIP3    H144324   2.091   1.943   3.898 -0.6688  1.7849 -1.2252
 7611TIP3    H244325   2.115   2.071   3.974 -1.0737  1.0680  0.1536
 7612TIP3   OH244326   1.659   6.836   1.951 -0.3463  0.3666  0.2809
 7612TIP3    H144327   1.754   6.837   1.959 -0.3599  0.9970  0.3904
 7612TIP3    H244328   1.631   6.767   2.011  0.0653 -0.1262 -0.0788
 7613TIP3   OH244329   7.029   0.662   0.716  0.0621 -0.1729  0.0791
 7613TIP3    H144330   7.120   0.660   0.689  0.0871 -0.1632  0.1619
 7613TIP3    H244331   7.010   0.755   0.731 -0.6700  0.1292 -2.3216
 7614TIP3   OH244332   5.044   3.025  13.584  0.2787 -0.9311  0.1615
 7614TIP3    H144333   5.078   3.005  13.671 -0.7606 -1.5137  0.4517
 7614TIP3    H244334   5.002   3.111  13.594 -1.0972 -1.6290  0.6228
 7615TIP3   OH244335   2.146   0.182   2.937 -0.1603 -0.0459 -0.1111
 7615TIP3    H144336   2.093   0.119   2.985  0.1286 -0.8220 -0.7923
 7615TIP3    H244337   2.235   0.169   2.969 -0.1917  0.4584  0.1979
 7616TIP3   OH244338   2.130   3.117  14.630  0.4880  0.0706  0.4684
 7616TIP3    H144339   2.175   3.081  14.705  0.1050 -1.4814 -0.0070
 7616TIP3    H244340   2.066   3.179  14.667 -0.6107 -1.6412  1.5503
 7617TIP3   OH244341   6.069   2.165  14.961 -0.2360  0.0122 -0.1617
 7617TIP3    H144342   6.094   2.220  15.035 -1.1312  0.9049 -0.5044
 7617TIP3    H244343   5.989   2.205  14.927 -0.8148 -1.3889 -0.5443
 7618TIP3   OH244344   6.063   5.868   2.470 -0.5465 -0.4347 -0.5941
 7618TIP3    H144345   5.996   5.896   2.408 -0.5358  1.0490  0.0083
 7618TIP3    H244346   6.140   5.919   2.445 -0.8526  1.0535  1.2900
 7619TIP3   OH244347   1.618   0.027  14.183  0.5291  0.0565 -0.8779
 7619TIP3    H144348   1.688  -0.013  14.132 -0.4919 -1.2317 -1.3077
 7619TIP3    H244349   1.553   0.052  14.118 -1.0408 -2.0965 -0.2363
 7620TIP3   OH244350   6.010   7.083  10.514 -0.3978  0.0787 -0.4645
 7620TIP3    H144351   6.071   7.024  10.559 -0.6280 -0.6609 -1.0944
 7620TIP3    H244352   6.057   7.166  10.507  0.4831 -0.4404 -0.8143
 7621TIP3   OH244353   1.990   6.217   5.210  0.0580 -0.1353  0.1093
 7621TIP3    H144354   2.074   6.240   5.173 -0.6418  0.6958 -1.0263
 7621TIP3    H244355   1.942   6.299   5.215 -0.6875 -0.5882  0.7609
 7622TIP3   OH244356   3.757   5.183   2.139 -0.0120  0.1812 -0.2382
 7622TIP3    H144357   3.753   5.273   2.107 -1.8629  0.7421  1.3921
 7622TIP3    H244358   3.803   5.189   2.223 -0.0269 -0.4185 -0.1834
 7623TIP3   OH244359   3.385   1.564  10.319  0.2794  0.3854 -0.4311
 7623TIP3    H144360   3.378   1.598  10.408 -0.3961  0.1445 -0.3912
 7623TIP3    H244361   3.386   1.469  10.329  0.5071  0.3614 -0.6610
 7624TIP3   OH244362   5.462   1.705  11.930 -0.5747  0.0384 -0.3963
 7624TIP3    H144363   5.379   1.660  11.915 -0.9257  0.7722 -0.6795
 7624TIP3    H244364   5.519   1.677  11.858 -1.1755  0.9559 -1.2460
 7625TIP3   OH244365   3.378   5.631  10.555 -0.7024 -0.2756  0.5274
 7625TIP3    H144366   3.431   5.585  10.620  0.4857 -0.5176 -0.5649
 7625TIP3    H244367   3.440   5.659  10.489 -1.5617  1.9570  0.5915
 7626TIP3   OH244368   1.397   1.645   0.856  0.3357  0.0411  0.0369
 7626TIP3    H144369   1.488   1.635   0.826  0.6065  0.5988  0.6463
 7626TIP3    H244370   1.344   1.632   0.777  0.8114 -2.3729  0.0301
 7627TIP3   OH244371   3.322   4.509  14.955 -0.1577 -0.0332 -0.0553
 7627TIP3    H144372   3.276   4.437  14.912 -0.2259  0.5500 -0.9953
 7627TIP3    H244373   3.309   4.583  14.896  2.0650  0.1411 -0.3811
 7628TIP3   OH244374   1.323   4.046  12.695  0.4024 -0.1428  0.8351
 7628TIP3    H144375   1.256   4.114  12.689  0.8831  0.3084  0.5002
 7628TIP3    H244376   1.380   4.075  12.766  1.1469  0.3032  0.0757
 7629TIP3   OH244377   6.556   5.509   9.548  0.2814  0.7252 -0.0566
 7629TIP3    H144378   6.613   5.438   9.518 -1.2586  0.2835 -2.0555
 7629TIP3    H244379   6.551   5.497   9.643  0.4408 -1.5546 -0.2961
 7630TIP3   OH244380   3.427   3.569  12.842 -0.1944 -0.7552  0.2018
 7630TIP3    H144381   3.369   3.610  12.906 -0.1733  0.3529 -0.4590
 7630TIP3    H244382   3.515   3.581  12.877 -0.2881 -1.6013  0.7459
 7631TIP3   OH244383   3.869   6.498  14.645  0.5563  0.0531 -0.2490
 7631TIP3    H144384   3.850   6.483  14.553  2.4909 -1.0877 -0.4993
 7631TIP3    H244385   3.823   6.427  14.691  1.0513 -0.4213 -0.4907
 7632TIP3   OH244386   3.388   4.654  12.773 -0.2402  0.3872 -0.5030
 7632TIP3    H144387   3.447   4.727  12.754  0.8282 -0.6314 -1.2290
 7632TIP3    H244388   3.406   4.631  12.864 -0.2224  0.6984 -0.4245
 7633TIP3   OH244389   2.818   7.001  12.359 -0.2685  0.0697 -0.8576
 7633TIP3    H144390   2.784   7.089  12.346 -0.3013  0.0161 -1.1411
 7633TIP3    H244391   2.850   7.001  12.449 -0.6119  0.2581 -0.7305
 7634TIP3   OH244392   4.749   4.624  13.382  0.6220 -0.1787  0.4646
 7634TIP3    H144393   4.762   4.547  13.326 -0.5870  0.0737 -0.2132
 7634TIP3    H244394   4.733   4.588  13.469  1.5117 -0.6212  0.4594
 7635TIP3   OH244395   1.206   3.668   9.530 -0.2658  0.0070 -0.0619
 7635TIP3    H144396   1.219   3.597   9.467 -1.6379  0.1158 -0.4993
 7635TIP3    H244397   1.230   3.748   9.482 -1.2421  0.0829 -0.4498
 7636TIP3   OH244398   4.663   2.454  12.199 -0.1087 -0.3989  0.4150
 7636TIP3    H144399   4.730   2.498  12.147 -0.4947 -0.3944 -0.0896
 7636TIP3    H244400   4.701   2.370  12.221  0.2904 -0.1612  0.6296
 7637TIP3   OH244401   6.217   2.087  10.842  0.0314 -0.5062 -0.5074
 7637TIP3    H144402   6.294   2.030  10.843  0.1711 -0.3077  0.7858
 7637TIP3    H244403   6.187   2.090  10.933  0.6738  2.3599 -0.3068
 7638TIP3   OH244404   0.699   0.956   9.596  0.2571 -0.3245 -0.1718
 7638TIP3    H144405   0.727   0.950   9.505  0.3442 -2.2889 -0.0636
 7638TIP3    H244406   0.780   0.969   9.645 -0.0255  4.6433 -0.4962
 7639TIP3   OH244407   1.872   4.381  14.004  0.0111 -0.2258  0.1395
 7639TIP3    H144408   1.799   4.340  14.052 -0.1791  0.7394  0.7053
 7639TIP3    H244409   1.838   4.467  13.978  0.7242 -0.0384 -0.1814
 7640TIP3   OH244410   1.201   7.080  11.208  0.0409 -0.4465  0.4765
 7640TIP3    H144411   1.157   7.123  11.134  1.8735 -0.3392 -0.6199
 7640TIP3    H244412   1.268   7.143  11.235  1.6307 -1.8520 -0.0181
 7641TIP3   OH244413   3.307   3.767  15.672 -0.0142 -0.1272  0.1786
 7641TIP3    H144414   3.290   3.697  15.608  1.0074 -0.7362  0.5500
 7641TIP3    H244415   3.278   3.730  15.756  0.3518 -0.0325  0.3458
 7642TIP3   OH244416   0.001   4.554  10.391 -0.0163 -0.4524  0.1724
 7642TIP3    H144417   0.082   4.599  10.413 -0.2129 -0.4902  1.0467
 7642TIP3    H244418  -0.031   4.598  10.313  1.2689 -0.9950 -0.6873
 7643TIP3   OH244419   1.680   4.281  12.639 -0.4200  0.5236 -0.5401
 7643TIP3    H144420   1.622   4.281  12.715  1.1533  1.9804  0.7370
 7643TIP3    H244421   1.760   4.323  12.670  0.3211  1.0718 -2.9921
 7644TIP3   OH244422   5.284   5.938  15.659 -0.1179 -0.2061 -0.3648
 7644TIP3    H144423   5.366   5.908  15.698 -0.2436 -0.5602 -0.3644
 7644TIP3    H244424   5.263   6.019  15.705  0.0669 -0.2833 -0.1472
 7645TIP3   OH244425   2.610   2.244  11.513 -0.7745  0.6547 -0.3208
 7645TIP3    H144426   2.515   2.230  11.518 -0.6070 -0.4293  0.1571
 7645TIP3    H244427   2.646   2.182  11.576  0.2907  0.7428 -0.8317
 7646TIP3   OH244428   5.603   6.334  13.942  0.0895  0.8654 -0.1511
 7646TIP3    H144429   5.672   6.367  14.000 -0.3902  1.3645  0.1496
 7646TIP3    H244430   5.580   6.410  13.888 -1.0986  1.0702  0.6167
 7647TIP3   OH244431   3.393   4.014  14.986 -0.7950  0.0070  0.2064
 7647TIP3    H144432   3.474   4.065  14.979 -1.7262  1.5859  0.3705
 7647TIP3    H244433   3.385   3.971  14.902 -0.7580  1.4065 -0.5489
 7648TIP3   OH244434   6.501   3.387  13.060 -0.5335 -0.2429  0.3576
 7648TIP3    H144435   6.510   3.342  12.976  2.8503  0.7836  0.0272
 7648TIP3    H244436   6.530   3.322  13.124 -1.0713 -0.3346  0.5115
 7649TIP3   OH244437   4.485   1.631   2.129  0.1666 -1.5241  0.5783
 7649TIP3    H144438   4.528   1.698   2.183 -3.2749  0.2722  1.3838
 7649TIP3    H244439   4.532   1.633   2.046  1.6675  0.2062  1.4001
 7650TIP3   OH244440   6.178   3.231  14.107 -0.1493 -0.0754  0.0795
 7650TIP3    H144441   6.172   3.255  14.200  0.2695 -0.6020  0.2536
 7650TIP3    H244442   6.268   3.199  14.097 -1.0326 -2.8000  0.1810
 7651TIP3   OH244443   4.014   6.830   0.446  0.2783  0.3035 -0.4579
 7651TIP3    H144444   4.062   6.843   0.528 -0.4884  2.0169 -0.2258
 7651TIP3    H244445   3.957   6.755   0.463 -0.2616  0.9691  0.7829
 7652TIP3   OH244446   0.003   2.110  10.728 -0.5934 -0.0171 -0.1920
 7652TIP3    H144447  -0.002   2.201  10.699 -0.7371  0.6478  1.7522
 7652TIP3    H244448  -0.049   2.062  10.664  3.1304  0.4284 -4.0420
 7653TIP3   OH244449   4.530   5.282   4.555 -0.2282  0.8173 -0.2724
 7653TIP3    H144450   4.440   5.265   4.583 -0.2571  0.9398 -0.2889
 7653TIP3    H244451   4.544   5.224   4.480  0.3514 -0.6501  0.9097
 7654TIP3   OH244452   0.515   6.500   5.877 -0.0205 -0.5050  0.1373
 7654TIP3    H144453   0.442   6.546   5.919 -0.3392  0.1591 -1.0962
 7654TIP3    H244454   0.593   6.530   5.924 -0.2749  0.9231 -0.3165
 7655TIP3   OH244455   0.601   3.515   3.560 -0.3279  0.2436 -0.2545
 7655TIP3    H144456   0.548   3.453   3.509 -1.2583  1.6514 -1.0670
 7655TIP3    H244457   0.537   3.563   3.612  0.3061  0.9359 -0.1054
 7656TIP3   OH244458   0.260   2.399  15.488  0.6918  0.0263 -0.4140
 7656TIP3    H144459   0.174   2.425  15.455  0.1023 -0.7976  0.4222
 7656TIP3    H244460   0.280   2.317  15.442  0.1257 -0.8207  0.8022
 7657TIP3   OH244461   2.451   0.474   3.672  0.2451 -0.1492  0.3504
 7657TIP3    H144462   2.539   0.437   3.659  0.7236  1.1882 -0.3915
 7657TIP3    H244463   2.458   0.523   3.755 -0.3278 -1.4759  1.2202
 7658TIP3   OH244464   5.986   2.508   4.744  0.0882  0.0379  0.3225
 7658TIP3    H144465   5.969   2.413   4.749  0.3144 -0.0209 -0.0486
 7658TIP3    H244466   5.956   2.541   4.829  1.7076 -0.6230  1.1945
 7659TIP3   OH244467   3.933   4.683  14.629  0.1139 -0.3022  0.0911
 7659TIP3    H144468   3.929   4.588  14.627 -0.2083 -0.2870 -0.0396
 7659TIP3    H244469   3.889   4.711  14.549 -1.2910 -0.0075  0.9317
 7660TIP3   OH244470   1.473   6.510  10.016  0.2774  0.2569  0.1812
 7660TIP3    H144471   1.472   6.597   9.977 -1.2499 -0.5810 -1.8250
 7660TIP3    H244472   1.545   6.464   9.973 -0.7098 -0.3236 -0.9008
 7661TIP3   OH244473   6.412   6.876  11.557  0.0263 -0.1224 -0.5879
 7661TIP3    H144474   6.391   6.900  11.647  1.3223 -0.3066 -0.2081
 7661TIP3    H244475   6.365   6.939  11.503  2.1013  2.3552  0.3199
 7662TIP3   OH244476   0.038   4.428   4.199 -0.1687  0.9405 -0.6494
 7662TIP3    H144477  -0.044   4.456   4.159 -0.2056  3.5204  1.0142
 7662TIP3    H244478   0.027   4.445   4.293  1.3881 -1.0347 -0.0189
 7663TIP3   OH244479   1.437   4.898  11.955 -0.3368 -0.2954  0.1327
 7663TIP3    H144480   1.448   4.835  11.884  0.2602  0.5840 -0.5749
 7663TIP3    H244481   1.344   4.923  11.951 -0.5893 -1.1404  0.4469
 7664TIP3   OH244482   3.861   0.145  10.777 -0.1075  0.0497 -0.1748
 7664TIP3    H144483   3.888   0.220  10.829 -0.6042 -0.9089  1.5338
 7664TIP3    H244484   3.929   0.137  10.710 -0.1120  2.0525 -0.4805
 7665TIP3   OH244485   2.179   1.543  14.977  0.1487 -0.0128 -0.2222
 7665TIP3    H144486   2.192   1.507  14.890  0.5389  1.9114 -1.0223
 7665TIP3    H244487   2.187   1.638  14.965 -0.1879  0.3281  1.8387
 7666TIP3   OH244488   4.003   2.295  13.242  0.0681  0.0638 -0.0759
 7666TIP3    H144489   4.086   2.332  13.271 -0.3990  0.2395  1.0884
 7666TIP3    H244490   3.981   2.344  13.163  0.8895  0.2550 -0.1918
 7667TIP3   OH244491   3.079   0.912   1.419  0.1489  0.6156  0.2055
 7667TIP3    H144492   3.087   0.817   1.426  0.3678  0.6785  0.9032
 7667TIP3    H244493   3.157   0.940   1.372 -0.3501  0.3667 -0.7840
 7668TIP3   OH244494   3.308   1.897   4.770  0.8378 -0.0723  0.6134
 7668TIP3    H144495   3.215   1.916   4.767  0.9848  0.9010  1.6251
 7668TIP3    H244496   3.315   1.817   4.823  0.5859 -0.0778  0.6360
 7669TIP3   OH244497   0.603   2.012  15.198  0.1220 -0.1045 -0.1906
 7669TIP3    H144498   0.667   1.942  15.190 -0.7254 -0.7588 -1.6518
 7669TIP3    H244499   0.630   2.076  15.133 -0.5305 -0.2495 -0.6082
 7670TIP3   OH244500   4.325   6.690  14.332 -0.0221  0.4669  0.1274
 7670TIP3    H144501   4.404   6.639  14.351 -0.6548 -0.2977  0.8049
 7670TIP3    H244502   4.296   6.659  14.246 -0.6579 -0.7088  0.7254
 7671TIP3   OH244503   2.709   0.928  13.705 -0.0656  0.1834 -0.3805
 7671TIP3    H144504   2.660   0.943  13.624 -0.9449 -1.9719 -0.3291
 7671TIP3    H244505   2.785   0.986  13.699 -0.5809  0.7224 -2.3227
 7672TIP3   OH244506   1.082   3.586  13.313 -0.7549 -1.0843  0.9259
 7672TIP3    H144507   1.082   3.550  13.402  1.3836  0.1926  1.4960
 7672TIP3    H244508   1.047   3.674  13.322 -0.0484 -0.7631  0.5920
 7673TIP3   OH244509   4.604   6.103  10.829  0.0262  0.0387  0.3820
 7673TIP3    H144510   4.627   6.101  10.736  1.3102  2.9595  0.5443
 7673TIP3    H244511   4.550   6.181  10.840 -0.1020 -0.2388  2.0967
 7674TIP3   OH244512   1.842   0.781  10.678  0.0591  0.2804 -0.2010
 7674TIP3    H144513   1.901   0.820  10.613  0.3096  0.7043  0.2647
 7674TIP3    H244514   1.789   0.855  10.709 -0.2508  0.0284 -0.1354
 7675TIP3   OH244515   5.173   0.480  15.160  0.2176 -0.8314 -0.3514
 7675TIP3    H144516   5.248   0.507  15.107  0.4026 -0.6803 -0.0124
 7675TIP3    H244517   5.096   0.508  15.109  0.3979 -0.1768 -0.2764
 7676TIP3   OH244518   0.854   0.302  12.937 -0.4005 -0.2293  0.0036
 7676TIP3    H144519   0.918   0.231  12.934 -1.7628 -1.4567 -1.6829
 7676TIP3    H244520   0.855   0.340  12.849 -1.5464  0.1004  0.1082
 7677TIP3   OH244521   4.810   2.159  13.376  0.0270 -0.1348 -0.0038
 7677TIP3    H144522   4.879   2.110  13.420 -0.8958 -2.5369 -1.0937
 7677TIP3    H244523   4.848   2.246  13.361  3.2219 -1.6446 -1.4932
 7678TIP3   OH244524   6.384   1.793  11.015  0.2247  0.2908  0.1276
 7678TIP3    H144525   6.466   1.744  11.021 -0.0716 -0.0851  1.8671
 7678TIP3    H244526   6.409   1.885  11.023  0.5752  0.2615 -0.6192
 7679TIP3   OH244527   2.908   2.068   1.117 -0.2708 -0.0781  0.1533
 7679TIP3    H144528   2.850   2.136   1.082  0.3870  0.5774  0.2901
 7679TIP3    H244529   2.899   2.077   1.212  1.2272  1.1177  0.2206
 7680TIP3   OH244530   7.086   0.279   2.304 -0.1816 -0.0351 -0.0769
 7680TIP3    H144531   7.077   0.336   2.228  1.1856 -0.3292 -0.4816
 7680TIP3    H244532   7.006   0.294   2.355  0.0050  1.9792 -0.3253
 7681TIP3   OH244533   7.075   3.596   0.115 -0.6870 -0.2222  0.0288
 7681TIP3    H144534   6.992   3.643   0.119 -0.8852 -0.5929  0.5214
 7681TIP3    H244535   7.118   3.629   0.037 -1.9644 -1.0984 -1.1087
 7682TIP3   OH244536   0.808   6.106  10.576 -0.1502 -0.4574  0.9724
 7682TIP3    H144537   0.884   6.068  10.619 -0.9126 -2.1190  0.9228
 7682TIP3    H244538   0.811   6.073  10.487 -1.1508 -0.9280  1.0899
 7683TIP3   OH244539   3.839   1.400  11.052 -0.1313 -0.0137 -0.6116
 7683TIP3    H144540   3.849   1.495  11.049  0.1711  0.0054  0.5727
 7683TIP3    H244541   3.926   1.366  11.032 -0.2427 -0.0489 -1.0497
 7684TIP3   OH244542   3.215   3.391  14.549 -0.2671 -0.5763  0.1924
 7684TIP3    H144543   3.197   3.455  14.619  0.0977 -0.3080  0.0414
 7684TIP3    H244544   3.141   3.401  14.489 -0.1437 -0.1974  0.0988
 7685TIP3   OH244545   5.173   1.467   9.392 -0.7773 -0.0047  0.2989
 7685TIP3    H144546   5.252   1.449   9.443 -0.0475  1.2100 -0.3483
 7685TIP3    H244547   5.109   1.496   9.457  0.3658  2.2522  0.5446
 7686TIP3   OH244548   1.108   4.487   2.772  0.3128 -0.4914 -0.3722
 7686TIP3    H144549   1.059   4.405   2.775  1.3697 -1.1393 -0.4057
 7686TIP3    H244550   1.127   4.507   2.864 -0.3343 -0.0349 -0.3324
 7687TIP3   OH244551   2.807   6.293   3.089 -0.0553 -0.7421 -0.2619
 7687TIP3    H144552   2.872   6.291   3.019  0.1572  1.8097 -0.2142
 7687TIP3    H244553   2.856   6.269   3.167  1.8079  3.8872  0.3250
 7688TIP3   OH244554   6.946   4.440   2.807  0.5367 -0.2269 -0.1661
 7688TIP3    H144555   6.890   4.505   2.763  0.7836 -0.7048 -1.2225
 7688TIP3    H244556   6.974   4.484   2.887  0.7471  1.0040 -0.8796
 7689TIP3   OH244557   4.068   1.275   0.703  0.6525 -0.5578  0.1060
 7689TIP3    H144558   4.162   1.292   0.710  0.8795 -0.8853 -1.8310
 7689TIP3    H244559   4.029   1.362   0.693  0.8113 -0.4755  0.1885
 7690TIP3   OH244560   0.381   4.052  12.224  0.3474 -0.0332  0.3538
 7690TIP3    H144561   0.320   4.028  12.155  0.4387 -0.2118  0.3350
 7690TIP3    H244562   0.455   3.992  12.213  0.5672  0.2425  0.3173
 7691TIP3   OH244563   1.624   3.845  12.971 -0.1857  0.0598 -1.0748
 7691TIP3    H144564   1.554   3.873  12.912 -1.2773 -0.6718 -0.1822
 7691TIP3    H244565   1.585   3.774  13.023  0.1921  1.6551  1.5872
 7692TIP3   OH244566   2.398   3.465   0.699  0.2755  0.1173  0.0927
 7692TIP3    H144567   2.431   3.509   0.777  1.1022  0.3245 -0.3673
 7692TIP3    H244568   2.368   3.380   0.730  0.4858  0.2467  0.6540
 7693TIP3   OH244569   4.015   3.197   6.175 -0.5002 -0.3563 -0.1458
 7693TIP3    H144570   3.964   3.276   6.159  1.7013  1.2648  0.2762
 7693TIP3    H244571   4.105   3.229   6.186  0.5947 -3.0103 -0.6557
 7694TIP3   OH244572   6.495   1.652  14.287 -0.1083  0.1965  0.0210
 7694TIP3    H144573   6.405   1.685  14.294 -0.0795  0.1921  0.4762
 7694TIP3    H244574   6.489   1.562  14.320  0.0180  0.1092 -0.1932
 7695TIP3   OH244575   0.503   6.550  12.296 -0.0652 -0.0574  0.1079
 7695TIP3    H144576   0.524   6.607  12.223 -3.1541  2.6168  1.0919
 7695TIP3    H244577   0.578   6.558  12.355 -0.0315  2.3487 -0.1969
 7696TIP3   OH244578   3.309   1.093   1.277 -0.5532 -0.6395 -0.3200
 7696TIP3    H144579   3.384   1.094   1.336 -0.1338  0.0082 -0.8414
 7696TIP3    H244580   3.341   1.047   1.199 -0.7286 -0.4583 -0.5005
 7697TIP3   OH244581   5.401   2.509  14.610 -0.1138 -0.1047 -0.1764
 7697TIP3    H144582   5.350   2.585  14.583  1.0569  0.7397 -0.0274
 7697TIP3    H244583   5.457   2.540  14.681 -0.8275 -1.5151  1.0843
 7698TIP3   OH244584   6.921   2.138  14.506 -0.6318 -0.1524 -0.0104
 7698TIP3    H144585   6.973   2.061  14.483 -2.4578 -1.2264 -0.7954
 7698TIP3    H244586   6.946   2.159  14.596  0.0563 -1.5416  0.1366
 7699TIP3   OH244587   1.778   4.156  13.108 -0.2912  0.1670  0.6234
 7699TIP3    H144588   1.788   4.068  13.072  0.9581  0.4933  0.1390
 7699TIP3    H244589   1.799   4.215  13.036 -0.2561  0.8593  1.1784
 7700TIP3   OH244590   5.597   4.514  12.780 -0.1078  0.1388  0.3941
 7700TIP3    H144591   5.565   4.559  12.702 -1.3433  0.1963  0.9187
 7700TIP3    H244592   5.559   4.426  12.775 -0.9174  0.4193  1.3640
 7701TIP3   OH244593   1.790   2.228  10.334  0.0441  0.1101 -0.1152
 7701TIP3    H144594   1.718   2.184  10.379 -0.6580 -0.8414 -2.0593
 7701TIP3    H244595   1.788   2.318  10.367 -1.5129 -0.1054  0.4644
 7702TIP3   OH244596   1.194   6.953  14.214  0.3165 -0.3652  0.3111
 7702TIP3    H144597   1.153   7.039  14.227  0.8498 -0.3452  2.0989
 7702TIP3    H244598   1.120   6.893  14.205 -0.0925  0.0576  0.7438
 7703TIP3   OH244599   3.429   7.105   3.245  0.0106  0.2414 -0.1550
 7703TIP3    H144600   3.502   7.061   3.201  0.0028  0.6540 -0.5820
 7703TIP3    H244601   3.468   7.143   3.323  0.4340  1.1471 -0.7872
 7704TIP3   OH244602   3.051   6.896   4.479 -0.2162  0.3813  0.0635
 7704TIP3    H144603   3.146   6.907   4.489 -0.0543 -0.8891  0.0483
 7704TIP3    H244604   3.040   6.804   4.453 -1.5250  0.2056  1.1625
 7705TIP3   OH244605   0.459   1.454  10.702  0.5741  0.5614  0.4694
 7705TIP3    H144606   0.375   1.421  10.670  1.5805 -1.8873  0.1049
 7705TIP3    H244607   0.436   1.516  10.771 -1.5173  0.4020 -0.0186
 7706TIP3   OH244608   6.488   1.842  13.453 -0.0554 -0.4080 -0.3034
 7706TIP3    H144609   6.462   1.766  13.505  1.2304 -1.1816 -0.7301
 7706TIP3    H244610   6.461   1.917  13.506 -0.8407 -1.1535  0.3983
 7707TIP3   OH244611   5.941   0.479   4.788 -0.0047 -0.3971  0.1670
 7707TIP3    H144612   6.002   0.542   4.750 -1.0635  0.3369 -0.3426
 7707TIP3    H244613   5.909   0.521   4.868 -0.4139 -0.4592  0.0376
 7708TIP3   OH244614   4.036   1.857  12.849  0.4971 -0.3744 -0.2191
 7708TIP3    H144615   4.087   1.794  12.797  0.2520  0.6057 -1.7387
 7708TIP3    H244616   4.102   1.918  12.883  0.5669 -0.4258 -0.2609
 7709TIP3   OH244617   5.445   3.809  10.722 -0.0380  0.1743 -0.5034
 7709TIP3    H144618   5.415   3.893  10.688  0.3430  0.3537 -0.3948
 7709TIP3    H244619   5.488   3.767  10.648 -1.5575 -0.5890 -1.0050
 7710TIP3   OH244620   3.002   5.197   4.015 -0.1735  0.6813 -0.4103
 7710TIP3    H144621   2.944   5.157   4.080  0.0068 -0.0603 -0.6988
 7710TIP3    H244622   2.943   5.229   3.946 -0.2730  0.3290 -0.4891
 7711TIP3   OH244623   3.758   0.277  15.221  0.3666  0.3091  0.3707
 7711TIP3    H144624   3.823   0.214  15.253 -0.8469 -1.2735 -0.1439
 7711TIP3    H244625   3.809   0.337  15.166  1.5121 -0.4243  0.5824
 7712TIP3   OH244626   4.254   3.612   3.970 -0.2138 -0.0554  0.1730
 7712TIP3    H144627   4.167   3.629   3.933 -0.5785 -1.1870  0.4703
 7712TIP3    H244628   4.292   3.546   3.913 -0.3986 -1.1089  1.2160
 7713TIP3   OH244629   3.983   6.963   4.881 -0.1842 -0.0107 -0.7010
 7713TIP3    H144630   3.956   6.923   4.963 -1.3998 -0.1602 -1.1637
 7713TIP3    H244631   4.074   6.935   4.870 -0.2926 -0.7248  0.1371
 7714TIP3   OH244632   1.158   2.549   4.035 -0.4687  0.6969 -0.6290
 7714TIP3    H144633   1.248   2.580   4.023  0.3687  0.0424  2.7653
 7714TIP3    H244634   1.112   2.623   4.074 -1.1522  0.6813 -1.3787
 7715TIP3   OH244635   3.752   3.880  13.426 -0.3233  0.5085 -0.2655
 7715TIP3    H144636   3.726   3.915  13.511  0.3833  0.4537 -0.0213
 7715TIP3    H244637   3.687   3.812  13.407 -0.5760  0.6294  0.1533
 7716TIP3   OH244638   4.542   3.396  14.290 -0.2894  0.0380 -0.2909
 7716TIP3    H144639   4.633   3.425  14.292  0.1047 -1.1462  1.5680
 7716TIP3    H244640   4.538   3.336  14.215  1.2607 -2.1062  1.2244
 7717TIP3   OH244641   0.678   6.783  13.111  0.0592  0.1885 -0.2983
 7717TIP3    H144642   0.665   6.792  13.205 -0.0095  0.4957 -0.3333
 7717TIP3    H244643   0.728   6.861  13.087  0.9766 -0.3984 -0.3537
 7718TIP3   OH244644   0.987   2.566  13.419  0.1241  0.0664 -0.0078
 7718TIP3    H144645   0.998   2.495  13.356  1.2921  0.2470 -0.0314
 7718TIP3    H244646   0.971   2.643  13.366 -3.4726 -0.4920  0.0653
 7719TIP3   OH244647   6.918   4.812   0.352 -0.1366 -0.1969  0.7557
 7719TIP3    H144648   6.886   4.901   0.369  1.8935  0.2479  2.6144
 7719TIP3    H244649   6.927   4.773   0.439  1.4100 -1.3355  0.1177
 7720TIP3   OH244650   5.862   5.587  12.653 -0.1492 -0.1935 -0.3892
 7720TIP3    H144651   5.767   5.579  12.662 -0.3540 -0.2927 -2.2972
 7720TIP3    H244652   5.881   5.550  12.567  1.4689  0.9690 -0.5650
 7721TIP3   OH244653   5.988   0.691  14.375  0.5770 -0.5504 -0.2437
 7721TIP3    H144654   6.041   0.751  14.428  0.0874 -0.7580  0.4901
 7721TIP3    H244655   6.026   0.605  14.393  1.3297 -0.4730 -1.3576
 7722TIP3   OH244656   2.228   3.934  12.859  0.3505 -0.0974  0.1299
 7722TIP3    H144657   2.228   4.027  12.834  2.2949 -0.4312 -1.4219
 7722TIP3    H244658   2.168   3.893  12.796 -0.5737  0.0926  0.8687
 7723TIP3   OH244659   1.728   3.331  14.781 -0.5783  0.5390 -0.1009
 7723TIP3    H144660   1.741   3.248  14.734  1.8044  0.6089  0.3387
 7723TIP3    H244661   1.726   3.306  14.873 -2.1404  0.7509 -0.0568
 7724TIP3   OH244662   4.370   3.384   0.218 -0.2205  0.5235  0.0144
 7724TIP3    H144663   4.347   3.363   0.128 -2.1694  0.2178  0.5160
 7724TIP3    H244664   4.389   3.299   0.258  0.4612  0.6393 -0.0603
 7725TIP3   OH244665   0.354   2.111   2.722  0.1198  0.0832 -0.1576
 7725TIP3    H144666   0.327   2.120   2.813 -0.2281 -1.2122 -0.1091
 7725TIP3    H244667   0.409   2.187   2.705 -1.4820  1.4481  0.5031
 7726TIP3   OH244668   0.398   4.034   2.414  0.3922 -0.0087 -0.1985
 7726TIP3    H144669   0.419   4.126   2.398 -0.1666  0.2569  0.5393
 7726TIP3    H244670   0.357   4.033   2.501 -0.7578 -0.7728 -0.7235
 7727TIP3   OH244671   6.496   7.103   2.783 -0.3207 -0.3100 -0.0589
 7727TIP3    H144672   6.551   7.174   2.749 -0.1999 -0.1931  0.3748
 7727TIP3    H244673   6.496   7.116   2.878  0.4801 -1.4392  0.1198
 7728TIP3   OH244674   0.225   5.296  10.938 -0.4306  0.4343  0.2608
 7728TIP3    H144675   0.224   5.215  10.990 -0.7734  1.2160  1.5192
 7728TIP3    H244676   0.253   5.268  10.851 -1.3247 -1.1660  0.4471
 7729TIP3   OH244677   6.785   0.772  14.737  0.2086 -0.0587  0.0353
 7729TIP3    H144678   6.802   0.848  14.681 -1.7669  0.3028 -0.1397
 7729TIP3    H244679   6.744   0.808  14.816  0.9564 -0.7786  0.7820
 7730TIP3   OH244680   5.425   3.753   4.241 -0.2797 -0.5707 -0.2909
 7730TIP3    H144681   5.385   3.704   4.313 -1.8029  0.6633 -0.2509
 7730TIP3    H244682   5.418   3.844   4.267 -0.2186 -0.1459 -1.6955
 7731TIP3   OH244683   5.441   5.872  15.047  0.3368  0.5568  0.5094
 7731TIP3    H144684   5.455   5.807  14.978  0.1446 -0.1726  1.1457
 7731TIP3    H244685   5.507   5.852  15.113  0.8327  1.5535  0.3291
 7732TIP3   OH244686   0.807   2.986   1.222 -0.4338 -0.3330  0.1414
 7732TIP3    H144687   0.860   2.946   1.291 -1.5247 -2.6783 -0.2835
 7732TIP3    H244688   0.730   2.930   1.215 -1.7670  1.5026 -1.0284
 7733TIP3   OH244689   1.160   4.992   2.441 -0.0563 -0.2580  0.4829
 7733TIP3    H144690   1.171   4.897   2.439 -0.1923 -0.2675  0.1995
 7733TIP3    H244691   1.240   5.027   2.404 -0.0410 -0.2635  0.5106
 7734TIP3   OH244692   3.409   2.035  11.790 -0.0326  0.3712  0.3297
 7734TIP3    H144693   3.438   1.946  11.772 -2.7124 -0.6242  0.5184
 7734TIP3    H244694   3.441   2.052  11.879  0.0685 -0.6065  0.4959
 7735TIP3   OH244695   1.014   3.066   6.176 -0.0387 -0.3966  0.4723
 7735TIP3    H144696   1.066   3.133   6.220  1.9076 -0.9744 -0.8312
 7735TIP3    H244697   0.983   3.109   6.096 -2.6664  0.3124  1.7585
 7736TIP3   OH244698   2.718   0.576   3.167 -0.1793 -0.4045  0.2508
 7736TIP3    H144699   2.703   0.668   3.147  1.3132  0.3761  2.3830
 7736TIP3    H244700   2.648   0.529   3.121 -1.4888  1.8494 -0.1687
 7737TIP3   OH244701   3.106   5.564  15.725  0.2213  0.1695  0.0780
 7737TIP3    H144702   3.075   5.628  15.788  1.6537 -0.2461  1.2482
 7737TIP3    H244703   3.105   5.611  15.641 -2.4106  0.4937  0.1946
 7738TIP3   OH244704   2.495   4.429  12.757 -0.1026 -0.4925  0.4026
 7738TIP3    H144705   2.482   4.424  12.662 -1.6665 -2.5616  0.6446
 7738TIP3    H244706   2.548   4.352  12.778 -0.3112 -0.4100  1.2625
 7739TIP3   OH244707   2.438   0.464  14.665  0.3982 -0.3849 -0.3850
 7739TIP3    H144708   2.432   0.441  14.572 -0.6100  2.3877 -1.0883
 7739TIP3    H244709   2.375   0.406  14.708  0.8973 -1.7210 -1.3980
 7740TIP3   OH244710   3.463   4.424  12.092 -0.2191 -0.3276  0.1082
 7740TIP3    H144711   3.400   4.430  12.165  0.8952 -0.1624  1.0826
 7740TIP3    H244712   3.522   4.498  12.105  0.2505 -0.5422 -0.7304
 7741TIP3   OH244713   2.261   6.272  10.196 -0.6481 -0.1617 -0.5925
 7741TIP3    H144714   2.285   6.199  10.139  0.2897  0.5662 -1.1526
 7741TIP3    H244715   2.211   6.330  10.139  0.5473  0.7133 -0.7775
 7742TIP3   OH244716   0.239   2.488  14.547  0.0707 -0.0430 -0.1296
 7742TIP3    H144717   0.274   2.577  14.548 -0.2263  0.1596  2.9759
 7742TIP3    H244718   0.146   2.499  14.567  0.3257 -1.0400  1.8980
 7743TIP3   OH244719   3.367   4.316  15.538  0.1021  0.2518  0.0440
 7743TIP3    H144720   3.391   4.328  15.446  0.8239  0.2322  0.2201
 7743TIP3    H244721   3.431   4.253  15.572  0.3478  0.8491  0.7456
 7744TIP3   OH244722   4.276   3.366   2.577  0.9177  0.1512 -0.3449
 7744TIP3    H144723   4.336   3.440   2.584  1.5803 -0.3109 -0.9621
 7744TIP3    H244724   4.204   3.398   2.522  0.0732  1.0251  1.2245
 7745TIP3   OH244725   2.543   1.846  11.096 -0.5934  0.2086  0.7410
 7745TIP3    H144726   2.482   1.875  11.028  0.1729 -0.4883 -0.2708
 7745TIP3    H244727   2.503   1.875  11.178 -2.9132 -1.2657  0.2229
 7746TIP3   OH244728   1.566   4.904  10.570  0.2508 -0.4760  0.7756
 7746TIP3    H144729   1.543   4.971  10.635  2.1296  0.6095  0.4162
 7746TIP3    H244730   1.556   4.949  10.486  0.4637 -0.9996  0.4703
 7747TIP3   OH244731   5.981   1.029  13.370 -0.2220  0.3474 -0.0442
 7747TIP3    H144732   6.056   1.055  13.317 -0.8129 -0.9555 -1.6054
 7747TIP3    H244733   6.003   0.940  13.399 -1.6635 -0.5632 -1.5951
 7748TIP3   OH244734   5.966   0.607   3.113 -0.0062 -0.2867  0.2169
 7748TIP3    H144735   6.026   0.541   3.078  0.0875 -0.4178  0.6250
 7748TIP3    H244736   5.919   0.563   3.183 -1.4365 -0.5506 -0.8589
 7749TIP3   OH244737   2.103   4.129   4.312  0.1294 -0.3356 -0.1633
 7749TIP3    H144738   2.137   4.088   4.232 -0.9103 -0.4472 -0.5732
 7749TIP3    H244739   2.022   4.080   4.330 -0.2859  0.4926  0.2482
 7750TIP3   OH244740   2.863   5.296  10.035  0.3197  0.1672  0.2650
 7750TIP3    H144741   2.918   5.364   9.995  0.6719 -0.0819  0.3210
 7750TIP3    H244742   2.914   5.216  10.026  0.2244  0.0343  0.8513
 7751TIP3   OH244743   4.019   3.886   0.482 -0.0600  0.0404 -0.0976
 7751TIP3    H144744   4.063   3.885   0.397  0.8927 -0.9181  0.3843
 7751TIP3    H244745   3.964   3.965   0.480  0.9840  0.7654 -1.0639
 7752TIP3   OH244746   4.988   4.565  11.805 -0.2248 -0.0348  0.3112
 7752TIP3    H144747   5.029   4.642  11.843 -0.0443 -0.8207  1.7782
 7752TIP3    H244748   4.894   4.580  11.817 -0.2073  0.1242  0.2538
 7753TIP3   OH244749   5.140   3.455   0.796 -1.1954  0.2903 -0.3323
 7753TIP3    H144750   5.102   3.423   0.878  0.0901 -1.6555 -0.4407
 7753TIP3    H244751   5.159   3.547   0.814  0.3224 -0.4000  2.0763
 7754TIP3   OH244752   4.516   1.983   5.498 -0.3411  0.7365  0.4109
 7754TIP3    H144753   4.469   2.008   5.418  0.0062  0.8196  0.2304
 7754TIP3    H244754   4.584   2.049   5.507  0.5593 -0.1064 -0.0540
 7755TIP3   OH244755   2.297   1.537   6.033 -0.0002 -0.1364  0.2471
 7755TIP3    H144756   2.271   1.446   6.042 -1.7471  0.3821  0.9046
 7755TIP3    H244757   2.266   1.579   6.114  3.6122  0.4578  1.4808
 7756TIP3   OH244758   0.536   1.083   9.795 -0.4855  0.1705  0.4489
 7756TIP3    H144759   0.578   1.017   9.740 -0.5043 -0.9890  1.7686
 7756TIP3    H244760   0.501   1.147   9.733  1.9397  0.4466 -0.7898
 7757TIP3   OH244761   1.563   4.021   2.560 -0.4321  0.3236 -0.5220
 7757TIP3    H144762   1.487   4.035   2.504  0.4625  0.7326 -1.6587
 7757TIP3    H244763   1.529   3.972   2.635 -1.5676 -0.6228 -1.6289
 7758TIP3   OH244764   5.886   2.134   0.999  0.2902 -0.3931 -0.1198
 7758TIP3    H144765   5.946   2.078   0.949  1.2593  0.1579  0.4095
 7758TIP3    H244766   5.920   2.132   1.088 -0.9039 -0.6397  0.3497
 7759TIP3   OH244767   6.838   0.142  11.736  0.3276 -0.0535  0.3703
 7759TIP3    H144768   6.886   0.173  11.813 -0.1569  0.6579  0.3946
 7759TIP3    H244769   6.765   0.204  11.726 -0.6493 -1.1692  0.3868
 7760TIP3   OH244770   1.902   3.535  14.851  0.2970  0.6628  0.4264
 7760TIP3    H144771   1.842   3.473  14.809  1.7147 -0.5644  0.1118
 7760TIP3    H244772   1.861   3.554  14.936  0.1017 -1.2275  0.8061
 7761TIP3   OH244773   1.605   3.377  11.211 -0.1779  0.1772  0.2346
 7761TIP3    H144774   1.682   3.424  11.244 -0.6024  0.3057  1.0653
 7761TIP3    H244775   1.632   3.285  11.211  0.6923  0.4068 -1.4984
 7762TIP3   OH244776   0.944   6.715   0.613  0.0459  0.7185  0.2355
 7762TIP3    H144777   0.958   6.794   0.665  0.6871  1.8293 -1.5407
 7762TIP3    H244778   0.942   6.746   0.522  3.6638 -1.6415 -0.8554
 7763TIP3   OH244779   1.486   3.706  12.217  0.8102  0.4500 -0.2008
 7763TIP3    H144780   1.532   3.781  12.180  0.8871 -0.5531 -2.3038
 7763TIP3    H244781   1.450   3.660  12.141 -0.2418 -0.9921  1.1064
 7764TIP3   OH244782   6.098   1.850  11.533 -0.2541  0.6029 -0.2693
 7764TIP3    H144783   6.132   1.919  11.475  0.4467  0.8480  0.4083
 7764TIP3    H244784   6.008   1.837  11.505 -0.7350  2.5243  0.2174
 7765TIP3   OH244785   5.848   6.691   1.912  0.3026 -0.1669  0.1410
 7765TIP3    H144786   5.771   6.658   1.867  1.1442 -0.6192 -1.0289
 7765TIP3    H244787   5.816   6.763   1.966 -0.5667  1.3647 -2.2774
 7766TIP3   OH244788   3.843   0.296   2.010 -0.2865  0.0611 -0.5114
 7766TIP3    H144789   3.751   0.321   2.005 -1.2611 -2.4304  1.9493
 7766TIP3    H244790   3.857   0.240   1.934 -1.5683 -1.3600  0.2246
 7767TIP3   OH244791   2.173   3.764   1.266 -0.0452 -0.6845  0.4863
 7767TIP3    H144792   2.150   3.833   1.203 -0.6395 -2.9800 -1.9999
 7767TIP3    H244793   2.233   3.807   1.327 -2.6907  2.8084  0.9549
 7768TIP3   OH244794   4.743   3.432   2.593  0.2469 -0.5521 -0.9122
 7768TIP3    H144795   4.806   3.499   2.620  0.7980 -1.5720  0.4687
 7768TIP3    H244796   4.753   3.427   2.497 -0.4082  1.8570 -1.1656
 7769TIP3   OH244797   1.944   0.959  11.236  0.2689 -0.0332 -0.0270
 7769TIP3    H144798   1.949   0.870  11.272 -0.0831  0.4530  1.2866
 7769TIP3    H244799   2.031   0.976  11.200  0.4487 -0.7695  0.0511
 7770TIP3   OH244800   0.446   3.877  12.719  0.3876 -0.3986  0.1722
 7770TIP3    H144801   0.426   3.830  12.800 -0.0409  1.4837  1.2147
 7770TIP3    H244802   0.363   3.879  12.672 -0.2050  1.2960  1.2230
 7771TIP3   OH244803   1.449   2.667  12.765 -0.2327  0.8186 -0.5056
 7771TIP3    H144804   1.405   2.727  12.706  0.3917  1.5260 -0.2733
 7771TIP3    H244805   1.412   2.685  12.851 -0.4046  0.5115 -0.5127
 7772TIP3   OH244806   6.315   3.081   4.233  0.2711 -0.5246 -0.1988
 7772TIP3    H144807   6.291   3.115   4.320  0.2763 -0.4273 -0.2350
 7772TIP3    H244808   6.351   2.995   4.250  0.1939 -0.5398 -0.1112
 7773TIP3   OH244809   4.994   2.114  12.268 -0.1264  0.1433  0.8194
 7773TIP3    H144810   5.081   2.151  12.252 -1.1081  1.0401 -3.8137
 7773TIP3    H244811   5.002   2.022  12.246 -0.4979  0.4663 -0.8235
 7774TIP3   OH244812   1.905   5.813  10.833 -0.4941  0.0292 -0.8028
 7774TIP3    H144813   1.860   5.779  10.910  0.7613  0.8262  0.3316
 7774TIP3    H244814   1.979   5.863  10.868  1.9648 -2.0963 -2.5159
 7775TIP3   OH244815   3.455   0.029  11.359 -0.7392  0.3372 -0.4801
 7775TIP3    H144816   3.475  -0.033  11.429 -1.5279  0.0799 -0.4770
 7775TIP3    H244817   3.486   0.113  11.392 -1.0194  0.2024  0.1461
 7776TIP3   OH244818   4.013   3.508   6.150 -0.0949 -0.0077 -0.1337
 7776TIP3    H144819   4.062   3.584   6.118  0.8456  0.2109  1.7009
 7776TIP3    H244820   3.959   3.482   6.076  0.6966  1.5066 -1.3077
 7777TIP3   OH244821   5.553   5.728   0.131 -0.7858 -0.3278 -0.3474
 7777TIP3    H144822   5.624   5.666   0.147 -1.7119 -1.1042  0.9676
 7777TIP3    H244823   5.565   5.756   0.041  1.0274 -0.6330 -0.2353
 7778TIP3   OH244824   0.511   0.837  13.170 -0.1531 -0.2860 -0.4901
 7778TIP3    H144825   0.450   0.815  13.100 -1.3217  0.0935  0.3667
 7778TIP3    H244826   0.590   0.867  13.125 -0.8281 -0.1803 -1.6431
 7779TIP3   OH244827   3.977   0.993   0.681 -0.6755  0.9679 -0.0972
 7779TIP3    H144828   4.018   1.068   0.724 -0.7771  1.7194 -1.2836
 7779TIP3    H244829   3.934   1.029   0.604 -0.8824 -0.2832 -0.5999
 7780TIP3   OH244830   5.729   0.071   5.894  0.6783 -0.6015  0.1457
 7780TIP3    H144831   5.790   0.107   5.829  1.5936  0.1649  1.3885
 7780TIP3    H244832   5.785   0.020   5.953  0.0482 -0.3400  0.9829
 7781TIP3   OH244833   0.885   0.456  11.847 -0.0630  0.4315  0.1633
 7781TIP3    H144834   0.969   0.502  11.837  0.5061 -0.3246  1.2114
 7781TIP3    H244835   0.822   0.524  11.868  0.2001  1.0650 -1.0506
 7782TIP3   OH244836   5.893   2.396   1.989  0.2360  0.5222 -0.0847
 7782TIP3    H144837   5.941   2.435   2.062 -2.3252  2.5084  0.7139
 7782TIP3    H244838   5.941   2.424   1.911  1.4135  0.8312  0.7206
 7783TIP3   OH244839   4.700   3.346   4.405  0.2716 -0.8040  0.0234
 7783TIP3    H144840   4.622   3.317   4.357  0.1264 -0.3050 -0.0543
 7783TIP3    H244841   4.666   3.410   4.467  0.7213  0.0012 -0.5460
 7784TIP3   OH244842   2.666   1.040  12.071  0.1453  0.0964 -0.0844
 7784TIP3    H144843   2.697   0.951  12.088 -0.1675 -0.0467 -0.2437
 7784TIP3    H244844   2.717   1.069  11.996 -1.0373 -0.6470 -1.2146
 7785TIP3   OH244845   2.334   5.418  14.568  0.2328  0.1069  0.3098
 7785TIP3    H144846   2.424   5.433  14.595  0.7359 -1.1649 -0.5356
 7785TIP3    H244847   2.309   5.337  14.613 -0.9808  1.1445  1.6003
 7786TIP3   OH244848   4.902   0.350   2.691  0.5992 -0.5444 -0.3341
 7786TIP3    H144849   4.835   0.291   2.657  0.1254 -0.5497  0.5625
 7786TIP3    H244850   4.985   0.305   2.676  0.2775 -1.2303 -0.0867
 7787TIP3   OH244851   4.178   3.167   4.920  0.5604  0.1813 -0.4044
 7787TIP3    H144852   4.137   3.081   4.905 -0.7238  0.6788  0.0666
 7787TIP3    H244853   4.233   3.153   4.997 -1.1472  0.1970  0.8915
 7788TIP3   OH244854   6.960   1.953   4.487 -0.2900  0.0789 -0.5920
 7788TIP3    H144855   6.907   2.008   4.429 -0.2957 -0.9201 -1.5542
 7788TIP3    H244856   6.899   1.923   4.554 -0.5150  0.4348 -0.6355
 7789TIP3   OH244857   6.795   4.682  14.160  0.6894 -0.7125  0.0544
 7789TIP3    H144858   6.762   4.736  14.088  0.5302 -1.4084 -0.4096
 7789TIP3    H244859   6.831   4.604  14.117 -0.6045 -1.7654  0.7945
 7790TIP3   OH244860   3.795   1.533   4.197  0.1921 -0.4449 -0.4930
 7790TIP3    H144861   3.727   1.547   4.262  1.0503  1.9315 -0.0016
 7790TIP3    H244862   3.759   1.568   4.116  0.8429  1.0596 -0.1758
 7791TIP3   OH244863   4.000   3.761  14.931 -0.1665 -0.3219 -0.3452
 7791TIP3    H144864   4.041   3.700  14.992 -0.1643  0.3256  0.2989
 7791TIP3    H244865   3.990   3.842  14.980  1.7730  0.8962 -1.8045
 7792TIP3   OH244866   7.069   5.035   1.319 -0.1134 -0.1628 -0.1120
 7792TIP3    H144867   7.050   4.943   1.336 -0.8264  0.2732  1.7358
 7792TIP3    H244868   7.148   5.033   1.264 -0.8186 -1.8615 -1.1648
 7793TIP3   OH244869   7.102   0.206   0.145 -0.1722 -0.1372  0.3547
 7793TIP3    H144870   7.131   0.183   0.056  1.2884  2.1995  0.1519
 7793TIP3    H244871   7.106   0.124   0.193  1.3677 -1.0074 -1.1415
 7794TIP3   OH244872   1.348   6.061  14.857  0.1135 -1.1205 -0.3246
 7794TIP3    H144873   1.282   6.025  14.916 -1.7745  0.6279 -1.2527
 7794TIP3    H244874   1.427   6.067  14.910 -1.5372  0.5409  2.1583
 7795TIP3   OH244875   0.591   6.022  10.708 -0.5778  0.7027  0.3054
 7795TIP3    H144876   0.634   6.011  10.792 -0.7924  4.5718  1.0729
 7795TIP3    H244877   0.662   6.043  10.647 -0.7608  1.1609  0.2493
 7796TIP3   OH244878   5.421   5.919  15.390  0.0857 -0.2794 -0.8982
 7796TIP3    H144879   5.365   5.988  15.354  1.3401  0.0802 -2.2873
 7796TIP3    H244880   5.392   5.909  15.480  0.9251  3.3028 -0.0841
 7797TIP3   OH244881   5.759   0.133   9.611 -0.0244 -0.2941  0.5896
 7797TIP3    H144882   5.781   0.058   9.555  0.8022 -0.6225  1.3328
 7797TIP3    H244883   5.843   0.171   9.635 -0.4379  1.0097  0.0728
 7798TIP3   OH244884   4.746   2.526  15.386 -0.2060 -0.4790  0.3175
 7798TIP3    H144885   4.674   2.467  15.364 -1.0632 -0.5293  2.8819
 7798TIP3    H244886   4.709   2.613  15.379 -0.6919 -0.5136  1.9203
 7799TIP3   OH244887   6.578   4.965  13.082 -0.0102  0.1763  0.3122
 7799TIP3    H144888   6.638   4.898  13.115 -0.1401  0.0029  0.1929
 7799TIP3    H244889   6.513   4.917  13.031 -1.2451  0.1685  1.8162
 7800TIP3   OH244890   0.958   0.646  11.530  0.2582  0.2086  0.1656
 7800TIP3    H144891   0.999   0.731  11.514  1.6749 -0.4880  0.0163
 7800TIP3    H244892   0.866   0.668  11.545  0.5024  1.7274 -0.2967
 7801TIP3   OH244893   3.592   6.912  10.757 -0.1451  0.3812 -0.1293
 7801TIP3    H144894   3.632   6.975  10.818  0.2261 -0.7756  0.8531
 7801TIP3    H244895   3.521   6.873  10.808 -0.6285  0.2799 -0.8710
 7802TIP3   OH244896   0.806   2.031   1.110 -0.8402  0.6793  0.5401
 7802TIP3    H144897   0.746   2.005   1.180 -3.3783 -0.2149 -1.8268
 7802TIP3    H244898   0.858   1.952   1.093 -0.4226  0.8107  1.1489
 7803TIP3   OH244899   2.765   3.624  13.200 -0.2796  0.0532  0.2327
 7803TIP3    H144900   2.785   3.557  13.266  1.3451  0.5162  0.2528
 7803TIP3    H244901   2.688   3.669  13.235 -1.3201 -1.6590  0.3003
 7804TIP3   OH244902   1.510   6.066  10.223 -0.1594  0.1057 -0.1790
 7804TIP3    H144903   1.557   6.073  10.306 -1.9155  0.2776  0.8306
 7804TIP3    H244904   1.475   5.976  10.222 -0.4221  0.2069 -0.5836
 7805TIP3   OH244905   6.616   3.885  10.898  0.5437 -0.0746 -0.6144
 7805TIP3    H144906   6.628   3.809  10.955 -1.1432  0.3338  0.3365
 7805TIP3    H244907   6.597   3.847  10.812  1.3935 -0.7062 -0.5369
 7806TIP3   OH244908   1.019   2.678  11.403  0.4735  0.0980  0.0533
 7806TIP3    H144909   1.009   2.592  11.444 -0.3649 -1.6412 -3.4245
 7806TIP3    H244910   0.940   2.725  11.426 -0.2612 -1.0552 -0.0367
 7807TIP3   OH244911   3.259   3.123   2.747 -0.1861 -0.2975  0.2960
 7807TIP3    H144912   3.298   3.043   2.714  2.1485  1.1982 -0.7958
 7807TIP3    H244913   3.199   3.094   2.816 -1.5350 -3.1546 -1.8784
 7808TIP3   OH244914   3.455   2.979  10.209 -0.0217 -0.5090 -0.4736
 7808TIP3    H144915   3.400   2.924  10.153 -1.9733  1.2334 -0.3629
 7808TIP3    H244916   3.480   3.052  10.153 -0.2209  0.1639  0.3041
 7809TIP3   OH244917   1.902   6.355   1.520 -0.0926 -0.6699  0.7905
 7809TIP3    H144918   1.824   6.329   1.570  0.3224 -2.6098  0.5307
 7809TIP3    H244919   1.901   6.298   1.443  0.5957  0.5814 -0.1721
 7810TIP3   OH244920   5.425   3.892   1.090  0.2463  0.2295  0.4920
 7810TIP3    H144921   5.427   3.968   1.033 -0.6542  1.0085  1.4495
 7810TIP3    H244922   5.367   3.917   1.162 -0.7249 -1.6550  0.4342
 7811TIP3   OH244923   4.832   0.642  12.801 -0.3106 -0.3015 -0.4708
 7811TIP3    H144924   4.898   0.574  12.787 -1.3580 -1.7307  1.1099
 7811TIP3    H244925   4.881   0.716  12.835  0.5793 -1.1930  0.2768
 7812TIP3   OH244926   1.476   1.907   0.839 -1.2240 -0.1502 -0.0369
 7812TIP3    H144927   1.450   1.816   0.849  2.2262 -1.4898 -1.7217
 7812TIP3    H244928   1.443   1.932   0.752 -0.3559 -0.5335 -0.4857
 7813TIP3   OH244929   1.540   1.234  10.961  0.0352 -0.0515 -0.0615
 7813TIP3    H144930   1.578   1.163  11.013  0.3319  0.9819  1.1673
 7813TIP3    H244931   1.605   1.251  10.892  0.2413 -0.5540  0.0064
 7814TIP3   OH244932   4.992   6.565   4.249  0.0912  0.1841  0.4842
 7814TIP3    H144933   5.052   6.499   4.216 -0.3441 -0.5207  1.0742
 7814TIP3    H244934   4.930   6.516   4.304 -2.6273  0.4608 -2.1108
 7815TIP3   OH244935   6.846   5.596  11.085 -0.0553 -0.2427 -0.3357
 7815TIP3    H144936   6.830   5.514  11.131  1.1890 -0.7332 -0.7394
 7815TIP3    H244937   6.881   5.570  10.999  0.4022  0.6926 -0.4520
 7816TIP3   OH244938   5.617   0.769  13.923 -0.0240  0.5793  0.4893
 7816TIP3    H144939   5.541   0.817  13.957 -1.0718 -0.1982 -0.6400
 7816TIP3    H244940   5.642   0.815  13.844 -0.0544  0.1799  0.2417
 7817TIP3   OH244941   5.560   6.373  11.880 -0.0323 -0.5842 -1.0086
 7817TIP3    H144942   5.563   6.278  11.870 -0.5534 -0.7770  0.5158
 7817TIP3    H244943   5.648   6.398  11.907 -0.0369 -0.6875 -0.9023
 7818TIP3   OH244944   0.182   4.305   2.410 -0.1189 -0.6364 -0.2787
 7818TIP3    H144945   0.232   4.297   2.329  1.2174  0.1112  0.4520
 7818TIP3    H244946   0.196   4.394   2.439 -1.7364 -0.4617  0.0776
 7819TIP3   OH244947   4.735   3.050   0.819 -0.6699 -0.6443  0.2443
 7819TIP3    H144948   4.700   2.982   0.877 -0.0104 -2.2223 -1.1264
 7819TIP3    H244949   4.820   3.016   0.790 -0.6211  0.4529 -1.0074
 7820TIP3   OH244950   0.024   3.142  11.564 -0.3517  0.4338  0.3233
 7820TIP3    H144951   0.002   3.234  11.581  0.6813  0.4774  1.6486
 7820TIP3    H244952   0.049   3.140  11.472 -0.6161  1.4338  0.2103
 7821TIP3   OH244953   5.435   3.279   9.963  0.0963 -0.0332 -0.6158
 7821TIP3    H144954   5.374   3.351   9.951 -0.8906 -1.0982 -2.3177
 7821TIP3    H244955   5.479   3.270   9.878  0.5464 -1.1164 -0.2847
 7822TIP3   OH244956   3.426   3.948   0.925  0.2084  0.3181  0.0566
 7822TIP3    H144957   3.470   4.033   0.933  1.0504 -0.2642  2.6903
 7822TIP3    H244958   3.448   3.902   1.006 -1.2573 -1.9528 -0.7331
 7823TIP3   OH244959   3.456   6.703  10.235  0.4758 -0.2253 -0.6342
 7823TIP3    H144960   3.363   6.713  10.256  0.5967 -1.8963  0.9745
 7823TIP3    H244961   3.501   6.769  10.288  0.3688 -1.1084  0.6026
 7824TIP3   OH244962   0.439   6.606   0.825  0.1041  0.3778  0.1954
 7824TIP3    H144963   0.529   6.591   0.798  0.1777  0.0081  0.6333
 7824TIP3    H244964   0.416   6.690   0.787  0.3033  0.0105 -0.7482
 7825TIP3   OH244965   1.615   1.659   5.323  0.2095  1.0616  0.2473
 7825TIP3    H144966   1.619   1.660   5.418 -0.0178  0.0406  0.2820
 7825TIP3    H244967   1.532   1.700   5.302 -0.0466  0.6949  0.5249
 7826TIP3   OH244968   1.642   0.313   4.876  0.2861 -0.1717  0.0012
 7826TIP3    H144969   1.673   0.350   4.793  2.2147  2.2983  1.6749
 7826TIP3    H244970   1.721   0.305   4.929 -1.1045 -0.1969  2.1568
 7827TIP3   OH244971   0.256   5.312  11.398 -0.2224  0.2766  0.0562
 7827TIP3    H144972   0.174   5.273  11.368  0.9335 -0.9750 -1.6562
 7827TIP3    H244973   0.266   5.391  11.344 -0.4091  0.5739  0.4495
 7828TIP3   OH244974   4.651   6.363  15.688 -0.7204  1.0681  0.1029
 7828TIP3    H144975   4.577   6.417  15.661 -1.3381 -0.8079 -2.3277
 7828TIP3    H244976   4.719   6.382  15.623  0.6602  2.0351  1.7370
 7829TIP3   OH244977   2.019   3.220  15.033 -0.9774 -0.1396 -0.1435
 7829TIP3    H144978   1.964   3.143  15.023 -0.6855 -0.2923 -0.6376
 7829TIP3    H244979   2.028   3.232  15.127 -0.5552 -1.0482 -0.0625
 7830TIP3   OH244980   6.728   3.098  13.707  0.2202  0.1804 -0.2242
 7830TIP3    H144981   6.663   3.152  13.663  0.8239  0.1874 -1.1483
 7830TIP3    H244982   6.812   3.128  13.672  0.5261 -2.0184 -1.5904
 7831TIP3   OH244983   0.361   2.112  15.522 -0.0559  0.1724  0.4834
 7831TIP3    H144984   0.282   2.131  15.472  0.6994 -0.5147 -1.0329
 7831TIP3    H244985   0.349   2.159  15.605 -1.4547  1.1520 -0.2373
 7832TIP3   OH244986   1.730   0.531  14.071 -0.1115  0.1402 -0.0791
 7832TIP3    H144987   1.683   0.614  14.085 -0.2366  0.6587 -2.9001
 7832TIP3    H244988   1.821   0.558  14.053 -0.0110 -0.3705 -0.3637
 7833TIP3   OH244989   1.618   1.424   3.274 -0.0367 -0.2703 -0.3860
 7833TIP3    H144990   1.557   1.388   3.338  1.5611 -0.3307  1.2017
 7833TIP3    H244991   1.594   1.517   3.267 -0.1027 -0.2149  0.4881
 7834TIP3   OH244992   1.775   2.556  15.202 -0.1698 -0.2268  0.0103
 7834TIP3    H144993   1.789   2.505  15.283  0.9741  2.1225  1.3881
 7834TIP3    H244994   1.685   2.588  15.210 -0.1273 -0.1642  0.2705
 7835TIP3   OH244995   0.971   6.367   4.194 -0.7581 -0.2334  0.1678
 7835TIP3    H144996   1.045   6.423   4.170 -0.1047 -1.1763 -0.0663
 7835TIP3    H244997   0.971   6.297   4.129 -0.7574 -1.2297  1.2142
 7836TIP3   OH244998   4.532   5.885  13.580  0.2236 -0.2522 -0.3301
 7836TIP3    H144999   4.503   5.843  13.661 -1.9159 -0.0370 -0.9438
 7836TIP3    H245000   4.595   5.951  13.609 -1.6132  0.8580  1.3701
 7837TIP3   OH245001   5.977   1.286   4.193  0.0133  0.1356 -0.0920
 7837TIP3    H145002   6.054   1.233   4.214 -0.3676 -0.2724  0.3100
 7837TIP3    H245003   5.913   1.263   4.261 -0.2671  0.8867 -0.0931
 7838TIP3   OH245004   1.692   6.788   0.739  0.0249 -0.0109 -0.2822
 7838TIP3    H145005   1.621   6.826   0.790 -1.2723 -1.6284 -0.8165
 7838TIP3    H245006   1.770   6.836   0.769 -0.8944  0.1760  2.0690
 7839TIP3   OH245007   0.699   5.752  11.120 -0.0294  0.3452  0.0750
 7839TIP3    H145008   0.659   5.794  11.044 -2.0134 -1.8568 -0.2362
 7839TIP3    H245009   0.688   5.815  11.191  0.9842  2.0369 -1.2091
 7840TIP3   OH245010   4.937   2.158   9.971 -0.2549 -0.1793 -0.1975
 7840TIP3    H145011   4.917   2.064   9.981  0.6978 -0.3933 -0.2000
 7840TIP3    H245012   4.869   2.190   9.912  0.7127 -1.3667 -2.0489
 7841TIP3   OH245013   1.324   4.165  11.266 -0.2523 -0.1877 -0.6953
 7841TIP3    H145014   1.395   4.139  11.207  0.4042 -0.7943  0.3316
 7841TIP3    H245015   1.292   4.248  11.230  0.9895  0.1047 -1.1785
 7842TIP3   OH245016   1.132   0.522   3.195  0.4409 -0.0255  0.1316
 7842TIP3    H145017   1.193   0.575   3.246  2.7506  0.7095 -3.0761
 7842TIP3    H245018   1.101   0.581   3.126 -1.5402 -1.2934 -0.1540
 7843TIP3   OH245019   2.460   4.732   4.004 -0.0664 -0.1184  0.0297
 7843TIP3    H145020   2.457   4.640   3.977  2.7315  0.2620 -2.1020
 7843TIP3    H245021   2.409   4.778   3.937 -0.3836  0.0324  0.3694
 7844TIP3   OH245022   2.228   2.265   5.536  0.3200 -0.2405  0.0271
 7844TIP3    H145023   2.142   2.231   5.563 -0.8813  2.9456  0.7078
 7844TIP3    H245024   2.280   2.264   5.616 -0.3517  1.1514  0.5183
 7845TIP3   OH245025   7.156   2.431  12.259 -0.6908  0.4189 -0.5254
 7845TIP3    H145026   7.252   2.435  12.265 -0.7125 -0.5592  0.9430
 7845TIP3    H245027   7.134   2.490  12.186  0.9696  1.2434 -0.4079
 7846TIP3   OH245028   6.898   1.329  11.589 -0.1725  0.1628 -0.3443
 7846TIP3    H145029   6.931   1.399  11.647  0.5370 -0.7055  0.3293
 7846TIP3    H245030   6.976   1.299  11.542 -0.5068 -0.0861 -0.7465
 7847TIP3   OH245031   6.121   0.282   3.186  0.0050 -0.1254 -0.3312
 7847TIP3    H145032   6.035   0.305   3.223  0.6662  3.1815 -0.5475
 7847TIP3    H245033   6.100   0.230   3.108 -1.7630  0.1013 -0.0585
 7848TIP3   OH245034   6.270   6.051  14.159 -0.5918  0.0913  0.6629
 7848TIP3    H145035   6.199   6.041  14.223 -0.7248  1.1424  0.7016
 7848TIP3    H245036   6.344   6.083  14.211 -0.5427  0.4488  0.3713
 7849TIP3   OH245037   1.986   6.099  13.421 -0.2616  0.5125 -0.1958
 7849TIP3    H145038   2.074   6.135  13.404  0.7080 -1.9029 -0.8187
 7849TIP3    H245039   1.995   6.051  13.503  0.4383 -3.4880 -2.3313
 7850TIP3   OH245040   6.215   5.318   3.757  0.3626 -0.3754  0.2944
 7850TIP3    H145041   6.191   5.258   3.686  1.3840 -0.8639  0.3413
 7850TIP3    H245042   6.227   5.403   3.715 -1.6808 -0.0333  0.3136
 7851TIP3   OH245043   2.493   1.741  14.991  0.2331 -0.0780 -0.2019
 7851TIP3    H145044   2.584   1.711  14.987  0.8065  1.6942 -1.5801
 7851TIP3    H245045   2.499   1.833  15.017 -1.3343 -0.4276  1.6676
 7852TIP3   OH245046   4.529   3.315  15.376  0.7778 -0.0262  0.7772
 7852TIP3    H145047   4.467   3.287  15.443 -0.2822  0.1780 -0.0904
 7852TIP3    H245048   4.491   3.283  15.294  0.5417  2.1937 -0.0384
 7853TIP3   OH245049   1.443   2.853  12.050  0.3317 -0.1123 -0.0140
 7853TIP3    H145050   1.497   2.855  12.129  1.4322 -1.6003 -0.6933
 7853TIP3    H245051   1.374   2.918  12.067  0.8023 -0.0595  1.9574
 7854TIP3   OH245052   6.333   1.717  11.663  0.1244 -0.2167  0.0803
 7854TIP3    H145053   6.260   1.748  11.610 -0.2310 -2.6340 -0.9549
 7854TIP3    H245054   6.292   1.678  11.740  0.5538  1.6436  1.3069
 7855TIP3   OH245055   4.476   4.134   0.356  0.2136 -0.0028  0.1517
 7855TIP3    H145056   4.470   4.163   0.264 -4.7157 -0.7482 -0.0393
 7855TIP3    H245057   4.472   4.039   0.352 -2.8451 -0.0139  1.0248
 7856TIP3   OH245058   5.710   0.567   0.665 -0.2769 -0.0961 -0.4475
 7856TIP3    H145059   5.632   0.580   0.610 -1.4245  2.4667  1.5483
 7856TIP3    H245060   5.741   0.656   0.682  0.9496 -0.8788  1.7301
 7857TIP3   OH245061   6.650   4.091  12.097  0.0944  0.0272 -0.2485
 7857TIP3    H145062   6.615   4.055  12.178  1.1192 -0.8528 -0.1760
 7857TIP3    H245063   6.581   4.149  12.065 -0.3596  0.3265  1.1953
 7858TIP3   OH245064   6.525   2.723   2.312  0.2091  0.0944 -0.5588
 7858TIP3    H145065   6.590   2.692   2.249  0.2445  0.4399 -0.6989
 7858TIP3    H245066   6.449   2.745   2.259  0.5750  1.3097 -0.6109
 7859TIP3   OH245067   6.839   4.704  14.928 -0.0668  0.8393  0.1930
 7859TIP3    H145068   6.785   4.634  14.964 -1.0759  1.8097  0.6439
 7859TIP3    H245069   6.929   4.681  14.952 -0.4849  0.2562  1.2705
 7860TIP3   OH245070   1.896   0.861  13.365  0.0008 -0.2187 -0.1044
 7860TIP3    H145071   1.929   0.843  13.277  0.8503 -1.1275  0.3840
 7860TIP3    H245072   1.800   0.857  13.356  0.0851 -0.6442 -0.9114
 7861TIP3   OH245073   0.224   3.858  13.623 -0.2376 -0.1393 -0.3381
 7861TIP3    H145074   0.256   3.891  13.707  0.4508  0.7121 -0.9135
 7861TIP3    H245075   0.195   3.936  13.576  1.6689 -0.2572 -1.8369
 7862TIP3   OH245076   2.610   0.289   4.779 -0.9361  0.1623  0.5540
 7862TIP3    H145077   2.648   0.205   4.755  1.9387  1.5794 -0.3725
 7862TIP3    H245078   2.530   0.295   4.727 -0.9991 -1.7672  0.3450
 7863TIP3   OH245079   0.346   3.061   1.369  0.3419 -0.6368 -0.1119
 7863TIP3    H145080   0.344   3.153   1.344  2.0984 -0.7213 -0.7357
 7863TIP3    H245081   0.256   3.040   1.394 -0.0604  1.2650  0.1444
 7864TIP3   OH245082   5.128   3.143  11.890  0.2030 -0.0172 -0.2342
 7864TIP3    H145083   5.094   3.230  11.909 -0.4676 -0.1159 -0.9091
 7864TIP3    H245084   5.067   3.083  11.932 -0.8656 -0.2131 -1.9904
 7865TIP3   OH245085   1.252   6.230   1.649 -0.2920  0.5587 -0.8007
 7865TIP3    H145086   1.274   6.252   1.739  1.8655  2.9196 -1.7920
 7865TIP3    H245087   1.160   6.257   1.640 -1.0671 -1.2049  1.0360
 7866TIP3   OH245088   7.030   0.002  12.766 -0.5009 -0.1183  0.8445
 7866TIP3    H145089   7.101   0.020  12.828 -1.0221  1.2127  1.0842
 7866TIP3    H245090   7.054  -0.083  12.727 -0.0700 -0.9182  2.7130
 7867TIP3   OH245091   6.842   2.804  10.721  0.6509 -0.6744  0.3393
 7867TIP3    H145092   6.766   2.808  10.663 -0.3833  2.8483  1.6670
 7867TIP3    H245093   6.917   2.820  10.663 -0.1102  0.3427 -0.4037
 7868TIP3   OH245094   3.894   3.658  15.751 -0.7181  0.4250  0.3135
 7868TIP3    H145095   3.968   3.705  15.792 -0.3148 -0.2505  0.3668
 7868TIP3    H245096   3.929   3.626  15.668 -1.2576  0.9589 -0.1350
 7869TIP3   OH245097   1.319   6.756  13.900 -0.1904 -0.7088 -0.3451
 7869TIP3    H145098   1.399   6.733  13.852 -0.7254 -3.8295  0.0419
 7869TIP3    H245099   1.338   6.733  13.991 -0.1658  2.5162  0.5719
 7870TIP3   OH245100   4.299   5.012   3.302 -0.0227  0.0540 -0.3106
 7870TIP3    H145101   4.334   5.095   3.333 -0.8398  0.0661  0.6484
 7870TIP3    H245102   4.290   5.023   3.207  2.8271 -0.0794 -0.6816
 7871TIP3   OH245103   5.748   2.291  15.479 -0.2919 -0.4119  0.1498
 7871TIP3    H145104   5.706   2.287  15.393 -1.0632 -1.4105  0.5563
 7871TIP3    H245105   5.725   2.208  15.522 -1.4171  0.7699  1.9983
 7872TIP3   OH245106   5.924   2.635   2.806 -0.6538 -0.5814  0.1368
 7872TIP3    H145107   5.834   2.654   2.834 -0.9681 -1.2662 -0.3620
 7872TIP3    H245108   5.913   2.577   2.730  0.2213 -1.2090  0.4792
 7873TIP3   OH245109   1.057   2.487  14.043 -0.1152 -0.0973 -0.4437
 7873TIP3    H145110   1.107   2.561  14.009 -0.9377  1.4284  1.4232
 7873TIP3    H245111   0.981   2.481  13.985 -1.0618  1.8846  0.4901
 7874TIP3   OH245112   2.993   5.658  15.432 -0.6284  0.1503  0.2071
 7874TIP3    H145113   3.036   5.738  15.462 -1.9045  0.2677  1.8780
 7874TIP3    H245114   2.925   5.689  15.372 -0.0057  0.1584 -0.5097
 7875TIP3   OH245115   4.588   6.331   4.952  0.3752 -0.2290 -0.3203
 7875TIP3    H145116   4.617   6.312   5.042  0.9338 -1.4826 -0.7442
 7875TIP3    H245117   4.581   6.426   4.949 -2.6910 -0.1984  1.9961
 7876TIP3   OH245118   0.350   1.819  14.506 -0.4863  0.0053 -0.2258
 7876TIP3    H145119   0.401   1.834  14.586 -2.8099  0.3028  1.2873
 7876TIP3    H245120   0.299   1.741  14.524 -0.9431 -0.0073 -1.5006
 7877TIP3   OH245121   7.132   3.913  14.638 -0.0462 -0.1410  0.0514
 7877TIP3    H145122   7.188   3.858  14.693  2.4977  0.2566 -1.9466
 7877TIP3    H245123   7.153   4.002  14.664  0.9671  0.0389 -1.3150
 7878TIP3   OH245124   4.794   4.776   2.628 -0.0426  0.2647  0.8931
 7878TIP3    H145125   4.776   4.766   2.722  2.1779  1.2355  1.4898
 7878TIP3    H245126   4.888   4.790   2.623  0.0084 -0.4701 -1.5766
 7879TIP3   OH245127   4.940   1.971   3.264 -0.0974  0.4373  0.5197
 7879TIP3    H145128   4.869   2.025   3.230 -1.0066 -0.8038  0.3796
 7879TIP3    H245129   5.010   1.981   3.200 -0.2368  1.4285  0.4996
 7880TIP3   OH245130   6.843   1.668   3.278 -0.0110  0.2118 -0.0253
 7880TIP3    H145131   6.918   1.640   3.330 -0.5883 -0.4724  0.4504
 7880TIP3    H245132   6.859   1.630   3.191 -1.0235 -2.1158  0.7297
 7881TIP3   OH245133   3.670   3.037   4.414 -0.0266  0.3460 -0.2595
 7881TIP3    H145134   3.597   2.984   4.383 -0.8229  1.1957  0.1365
 7881TIP3    H245135   3.655   3.047   4.508  0.5373  0.6190 -0.1909
 7882TIP3   OH245136   5.958   1.103  12.311  0.2009  0.0358 -0.1436
 7882TIP3    H145137   5.930   1.039  12.375  1.9060 -0.8374 -0.2249
 7882TIP3    H245138   6.004   1.052  12.244  2.0233  1.3415  0.0285
 7883TIP3   OH245139   1.460   1.483  12.393 -0.0386  0.1382  0.4070
 7883TIP3    H145140   1.517   1.536  12.339 -2.5295  1.6966 -0.8936
 7883TIP3    H245141   1.487   1.392  12.376  0.1195  0.6541 -2.4793
 7884TIP3   OH245142   6.682   7.099  11.060  0.3516 -0.3691  0.4587
 7884TIP3    H145143   6.770   7.069  11.037  0.7456 -0.3528  1.8712
 7884TIP3    H245144   6.628   7.021  11.054  0.0251 -0.0329 -2.2796
 7885TIP3   OH245145   4.676   4.561   1.484  0.0155  0.3703  0.3715
 7885TIP3    H145146   4.629   4.480   1.466 -2.1167  1.4072  1.0172
 7885TIP3    H245147   4.743   4.537   1.548 -1.3104 -0.6880  1.4009
 7886TIP3   OH245148   4.538   5.813   1.130  0.0102  0.8602 -0.3374
 7886TIP3    H145149   4.561   5.720   1.129 -2.7638  0.0731  0.8856
 7886TIP3    H245150   4.481   5.822   1.206 -1.0813  3.2466 -1.3619
 7887TIP3   OH245151   3.413   0.737   2.654 -0.0409  0.1435  0.3259
 7887TIP3    H145152   3.486   0.702   2.604 -0.1575  2.9171 -2.0074
 7887TIP3    H245153   3.448   0.752   2.741  0.4610 -3.8528  1.0008
 7888TIP3   OH245154   0.907   0.076   9.623 -0.2271 -0.2201  0.2631
 7888TIP3    H145155   0.892   0.165   9.656 -0.2954  0.9107 -2.5150
 7888TIP3    H245156   0.991   0.051   9.661  0.3582  1.5364  0.2539
 7889TIP3   OH245157   4.076   0.975  13.394 -0.3764 -0.0436 -0.0878
 7889TIP3    H145158   4.092   1.041  13.326  0.7875  0.4740  0.6619
 7889TIP3    H245159   4.146   0.911  13.382 -1.0756 -0.7662 -0.3470
 7890TIP3   OH245160   0.157   0.590  14.627  0.3617  0.2174 -0.3246
 7890TIP3    H145161   0.189   0.501  14.612  0.1569 -0.0641  0.7917
 7890TIP3    H245162   0.062   0.581  14.634  0.3636  0.4661  0.1075
 7891TIP3   OH245163   2.483   5.021   2.036 -0.2421 -0.2117 -0.0149
 7891TIP3    H145164   2.431   4.996   2.112 -0.4615 -1.3271 -0.5184
 7891TIP3    H245165   2.574   5.009   2.063 -0.3307 -1.0553 -0.0641
 7892TIP3   OH245166   5.514   0.110  15.334  0.8267  0.6265  0.0546
 7892TIP3    H145167   5.421   0.124  15.316  1.1056 -0.2256 -2.4098
 7892TIP3    H245168   5.535   0.171  15.405 -1.7959  0.1711  1.3344
 7893TIP3   OH245169   0.798   4.445   3.997 -0.7569  0.9602  1.1659
 7893TIP3    H145170   0.866   4.441   4.065 -0.0579  1.0356  0.4876
 7893TIP3    H245171   0.845   4.429   3.915 -1.7620 -0.2804  0.7994
 7894TIP3   OH245172   1.311   5.437   0.763 -0.2790 -0.1213  0.4342
 7894TIP3    H145173   1.398   5.476   0.753 -0.0064 -0.2529  1.9668
 7894TIP3    H245174   1.266   5.495   0.826 -0.6374 -1.0521  1.0542
 7895TIP3   OH245175   4.798   3.414   5.187  0.0782  0.2178  0.1265
 7895TIP3    H145176   4.765   3.373   5.107  2.4992  3.3733 -2.8164
 7895TIP3    H245177   4.724   3.464   5.221 -0.9210 -0.9747 -0.2275
 7896TIP3   OH245178   4.949   1.711  10.175  0.1081 -0.1708 -0.1399
 7896TIP3    H145179   5.010   1.757  10.232  0.2940  0.5455 -0.8924
 7896TIP3    H245180   4.927   1.775  10.107 -1.0603 -0.5931 -0.1868
 7897TIP3   OH245181   3.454   6.699   5.678 -0.3202 -0.2158  0.4791
 7897TIP3    H145182   3.465   6.748   5.760  1.2939 -0.0413  0.1895
 7897TIP3    H245183   3.359   6.699   5.663 -0.4780  1.7028  1.1573
 7898TIP3   OH245184   2.057   0.792  13.652 -0.7702 -0.6774 -0.4538
 7898TIP3    H145185   1.974   0.745  13.646 -1.2302  0.1394 -0.6893
 7898TIP3    H245186   2.044   0.872  13.601  0.1637 -0.5313 -0.4968
 7899TIP3   OH245187   0.170   0.033  12.292  0.5705 -0.1294 -0.5065
 7899TIP3    H145188   0.232   0.102  12.314 -0.7531  0.7283  0.6793
 7899TIP3    H245189   0.208  -0.046  12.330  1.0562  0.3314 -0.0172
 7900TIP3   OH245190   5.884   0.005  14.405  0.2560 -0.2518  0.0520
 7900TIP3    H145191   5.841  -0.059  14.349  3.1083 -0.5231 -2.0429
 7900TIP3    H245192   5.899  -0.041  14.487 -1.2955 -0.8804  0.0129
 7901TIP3   OH245193   3.050   0.727  11.799 -0.0089  0.5631  0.1733
 7901TIP3    H145194   3.057   0.751  11.891  1.3689  1.3258 -0.1109
 7901TIP3    H245195   3.085   0.802  11.751 -1.6251  0.6079 -1.0376
 7902TIP3   OH245196   3.544   1.504   3.493  0.0451 -0.0863  0.3082
 7902TIP3    H145197   3.638   1.486   3.486 -0.1722 -0.9907 -0.4772
 7902TIP3    H245198   3.531   1.528   3.585  1.4170  2.4237 -0.0799
 7903TIP3   OH245199   0.962   4.585  10.451 -0.0894 -0.6774  0.3495
 7903TIP3    H145200   1.005   4.565  10.534 -0.8333  0.0257  0.9223
 7903TIP3    H245201   0.980   4.678  10.437 -0.4792 -0.6479  0.0221
 7904TIP3   OH245202   4.939   6.183   0.970  0.0991  0.4531 -0.1330
 7904TIP3    H145203   4.899   6.265   0.998  0.5653  0.6695 -0.0846
 7904TIP3    H245204   4.870   6.138   0.922 -0.9476 -0.2511  1.9238
 7905TIP3   OH245205   1.921   6.973  14.782 -0.0045 -0.6829  0.2314
 7905TIP3    H145206   1.954   6.967  14.692  0.2817  1.7710  0.1215
 7905TIP3    H245207   1.998   6.996  14.834 -0.7012  0.9582  0.6007
 7906TIP3   OH245208   5.581   4.098  13.783  0.2315 -0.0748  0.4683
 7906TIP3    H145209   5.655   4.038  13.796 -1.1155 -1.6210  1.4192
 7906TIP3    H245210   5.532   4.060  13.709 -0.5654 -0.0851  0.9887
 7907TIP3   OH245211   1.107   6.430  10.482  0.1332 -1.1943 -0.2906
 7907TIP3    H145212   1.019   6.421  10.519  0.3396 -2.3139 -0.0123
 7907TIP3    H245213   1.145   6.342  10.490  1.2486 -0.7496 -0.4782
 7908TIP3   OH245214   5.064   1.609   4.099 -0.3080  0.0828 -0.1490
 7908TIP3    H145215   5.030   1.541   4.157 -1.4473  1.0588  0.3566
 7908TIP3    H245216   5.032   1.586   4.013 -1.0389  0.1952  0.0902
 7909TIP3   OH245217   0.810   1.088  12.397 -0.6220  0.2061  0.1999
 7909TIP3    H145218   0.862   1.122  12.324 -0.8565  0.8811  0.3407
 7909TIP3    H245219   0.828   0.994  12.397 -0.9892  0.1101 -1.0243
 7910TIP3   OH245220   2.677   1.106   0.030  0.0177 -0.1218  0.2805
 7910TIP3    H145221   2.661   1.095  -0.064  1.4631 -0.8200  0.0898
 7910TIP3    H245222   2.754   1.052   0.048  1.2681  1.8861  1.3758
 7911TIP3   OH245223   1.844   4.830   1.913  0.3242  0.0628 -0.0474
 7911TIP3    H145224   1.862   4.767   1.844  1.2742  0.8099 -0.5039
 7911TIP3    H245225   1.786   4.895   1.871 -0.5860 -0.4383  0.3961
 7912TIP3   OH245226   5.588   5.680  14.886  0.0279 -0.0204  0.0393
 7912TIP3    H145227   5.666   5.703  14.937  0.9761 -0.2423 -1.2501
 7912TIP3    H245228   5.584   5.584  14.890 -1.5047  0.0588  1.9377
 7913TIP3   OH245229   1.697   7.060  11.553  0.0480 -0.1283  0.1400
 7913TIP3    H145230   1.618   7.017  11.522 -0.8147  0.2143  1.7800
 7913TIP3    H245231   1.667   7.123  11.619  1.5822  0.7700  0.0438
 7914TIP3   OH245232   0.049   0.387  11.295  0.2879  0.1846 -0.0591
 7914TIP3    H145233   0.017   0.318  11.236 -2.5159 -1.6491  3.2716
 7914TIP3    H245234   0.083   0.455  11.236 -1.1501 -1.9758 -3.6970
 7915TIP3   OH245235   5.762   0.390   2.586 -0.2194  0.5815  0.3656
 7915TIP3    H145236   5.686   0.363   2.535  0.2078 -0.7447  0.3837
 7915TIP3    H245237   5.813   0.310   2.598  0.1723  1.0414  2.0702
 7916TIP3   OH245238   2.384   6.342  14.034 -0.2136 -0.2708  0.3487
 7916TIP3    H145239   2.399   6.248  14.046  2.0333 -0.1485 -0.8664
 7916TIP3    H245240   2.450   6.383  14.090  0.4962  0.4897 -0.9946
 7917TIP3   OH245241   2.170   5.423  10.207  0.5924 -1.1305  0.6783
 7917TIP3    H145242   2.145   5.366  10.134  0.9220 -0.5897  0.1294
 7917TIP3    H245243   2.153   5.512  10.175 -3.5689 -0.9030  2.8250
 7918TIP3   OH245244   0.337   2.168  13.076  0.0016  0.2176  0.4919
 7918TIP3    H145245   0.346   2.226  13.001  0.5508  0.0619  0.4295
 7918TIP3    H245246   0.364   2.221  13.151 -0.0045  0.2016  0.5054
 7919TIP3   OH245247   6.571   4.710  11.545 -0.0638  0.3475  0.4202
 7919TIP3    H145248   6.555   4.699  11.638 -1.1602  1.5541  0.4105
 7919TIP3    H245249   6.642   4.649  11.525 -0.0093 -0.1388  1.9714
 7920TIP3   OH245250   2.417   0.239   5.005 -0.1843 -0.2012  0.2525
 7920TIP3    H145251   2.511   0.224   5.014 -0.0576  1.2697  1.8094
 7920TIP3    H245252   2.408   0.280   4.919  0.7537  0.7024  0.5682
 7921TIP3   OH245253   6.028   6.529  14.426  0.1770 -0.4270 -0.0015
 7921TIP3    H145254   6.061   6.615  14.402  1.2981 -0.6451  0.6833
 7921TIP3    H245255   5.935   6.543  14.445  0.3098  0.5931 -0.0548
 7922TIP3   OH245256   1.607   5.972  12.984 -0.6291 -0.3358  0.2895
 7922TIP3    H145257   1.669   6.043  12.966 -1.6386  0.1511 -1.5035
 7922TIP3    H245258   1.574   5.991  13.071  1.0372 -0.1066  0.9144
 7923TIP3   OH245259   4.764   6.011  14.810 -0.2745  0.1480  0.1202
 7923TIP3    H145260   4.715   5.929  14.817  1.4089 -0.9556 -0.1898
 7923TIP3    H245261   4.795   6.029  14.898 -0.4096  0.3017  0.1366
 7924TIP3   OH245262   3.089   5.194   1.628 -0.4295  0.1140  0.2005
 7924TIP3    H145263   3.110   5.115   1.578  2.0260 -0.4075  1.8952
 7924TIP3    H245264   3.121   5.266   1.574  0.9646 -0.3522  0.3644
 7925TIP3   OH245265   5.401   6.425   4.345  0.2375  0.2162 -0.8168
 7925TIP3    H145266   5.306   6.428   4.354  0.2566 -0.4940 -0.2893
 7925TIP3    H245267   5.417   6.444   4.252 -0.5286 -1.2004 -1.2755
 7926TIP3   OH245268   0.617   4.540   9.612  0.0461 -0.1708  0.4842
 7926TIP3    H145269   0.632   4.624   9.569 -0.3051 -0.2244  0.2567
 7926TIP3    H245270   0.601   4.478   9.541 -1.9327  0.0169  0.7136
 7927TIP3   OH245271   1.446   3.214   0.392  0.4160  0.0860 -0.3397
 7927TIP3    H145272   1.537   3.231   0.367  0.3189  0.0421 -0.7337
 7927TIP3    H245273   1.418   3.294   0.437  0.4062  0.4106 -0.9175
 7928TIP3   OH245274   5.030   6.985  12.271 -0.1736 -0.1685  0.7381
 7928TIP3    H145275   5.030   6.932  12.350  0.7822  1.6918  2.0553
 7928TIP3    H245276   4.942   6.975  12.235  0.3600 -3.6959  0.1149
 7929TIP3   OH245277   4.155   6.620   0.227 -0.2768  0.6530 -0.0969
 7929TIP3    H145278   4.196   6.575   0.300 -0.0827  0.6763 -0.1903
 7929TIP3    H245279   4.084   6.671   0.266 -0.7423 -0.0253 -0.0338
 7930TIP3   OH245280   0.413   0.389   1.389  0.9161  0.2016  0.0011
 7930TIP3    H145281   0.317   0.400   1.388  0.7758 -0.9373 -1.3185
 7930TIP3    H245282   0.432   0.365   1.480 -0.3151 -1.4532 -0.1211
 7931TIP3   OH245283   6.202   5.455  14.240 -0.1101 -0.0330  0.1114
 7931TIP3    H145284   6.126   5.478  14.187 -0.9058  0.6726  1.5191
 7931TIP3    H245285   6.267   5.523  14.221  0.4135 -0.9096 -1.4727
 7932TIP3   OH245286   3.107   5.330  11.682 -0.2317  0.2599 -0.1257
 7932TIP3    H145287   3.053   5.350  11.759 -0.9172  0.2498 -0.5979
 7932TIP3    H245288   3.196   5.357  11.708 -0.3544 -0.2376  0.8630
 7933TIP3   OH245289   0.820   1.816  15.219 -0.5198 -0.6220  0.0705
 7933TIP3    H145290   0.795   1.788  15.307  0.4625 -0.3179  0.4616
 7933TIP3    H245291   0.911   1.787  15.210 -1.0054 -1.8433 -1.3566
 7934TIP3   OH245292   0.850   4.906   3.837  0.0429  0.4642 -0.6295
 7934TIP3    H145293   0.800   4.839   3.789 -0.8332  0.2967  0.4705
 7934TIP3    H245294   0.941   4.878   3.829 -0.1100  0.2437 -1.8786
 7935TIP3   OH245295   2.709   3.713  15.138  0.0832 -0.0665 -0.9415
 7935TIP3    H145296   2.726   3.726  15.045 -0.1724 -0.4384 -1.0406
 7935TIP3    H245297   2.716   3.619  15.151  0.7169  0.0360 -0.4647
 7936TIP3   OH245298   7.136   5.045  15.475 -0.2473 -0.2956  0.6274
 7936TIP3    H145299   7.081   5.064  15.399  0.4251  1.5630  0.5369
 7936TIP3    H245300   7.136   5.127  15.524  2.0036 -0.4016  0.8821
 7937TIP3   OH245301   4.655   5.201  12.744  0.3167 -0.6279  0.2921
 7937TIP3    H145302   4.705   5.261  12.799  1.4441 -0.5381 -0.7769
 7937TIP3    H245303   4.576   5.182  12.795  2.8108 -3.3706  3.6098
 7938TIP3   OH245304   3.383   0.693   1.302  0.8009  0.1890  0.1116
 7938TIP3    H145305   3.308   0.658   1.350  1.0360  1.2709  1.3352
 7938TIP3    H245306   3.419   0.618   1.255 -0.4125 -0.5637  0.3402
 7939TIP3   OH245307   6.570   2.588   4.710  0.6834 -0.3305  0.3772
 7939TIP3    H145308   6.649   2.545   4.741  0.1676 -1.1377  0.6100
 7939TIP3    H245309   6.518   2.518   4.670  0.4325  0.3249 -0.4994
 7940TIP3   OH245310   5.434   1.075   3.916  0.1529 -0.0576  0.0586
 7940TIP3    H145311   5.527   1.088   3.934  0.0580  1.0086 -0.1669
 7940TIP3    H245312   5.431   1.042   3.827  0.3680 -1.2467  0.4639
 7941TIP3   OH245313   2.365   6.423   1.801 -0.4851  0.0582  0.5193
 7941TIP3    H145314   2.364   6.350   1.739 -1.4587 -0.0377  0.6236
 7941TIP3    H245315   2.284   6.471   1.782 -0.2524  0.6441  0.9907
 7942TIP3   OH245316   3.008   0.475   3.663  0.2128  0.4343 -0.5345
 7942TIP3    H145317   3.003   0.440   3.574  0.8321  0.4309 -0.5686
 7942TIP3    H245318   2.922   0.516   3.677 -0.9646 -1.9793 -0.1064
 7943TIP3   OH245319   1.324   0.876  11.083  0.8637  0.4268 -0.6572
 7943TIP3    H145320   1.281   0.802  11.041  1.7927  0.7964 -2.3488
 7943TIP3    H245321   1.254   0.940  11.096 -0.0656 -0.8898  1.3312
 7944TIP3   OH245322   7.144   3.254   9.759  0.0514  0.0236 -0.6485
 7944TIP3    H145323   7.155   3.347   9.743 -0.2472  0.5933  2.0415
 7944TIP3    H245324   7.056   3.234   9.726 -0.1049  0.8120 -0.7213
 7945TIP3   OH245325   3.417   5.751  14.998  0.2348  0.8842 -0.4060
 7945TIP3    H145326   3.475   5.693  15.046 -1.5616  0.0295  0.8609
 7945TIP3    H245327   3.417   5.832  15.048 -0.3422  0.5615  0.1414
 7946TIP3   OH245328   2.449   6.285  11.015 -0.0815 -0.1450 -0.1298
 7946TIP3    H145329   2.390   6.266  10.941  1.3664 -0.1269 -1.3436
 7946TIP3    H245330   2.391   6.298  11.089 -1.5840 -0.5804 -1.1790
 7947TIP3   OH245331   4.095   3.148  15.525  0.1393  0.9690  0.2485
 7947TIP3    H145332   4.039   3.136  15.603  1.4184 -0.0243  1.0525
 7947TIP3    H245333   4.048   3.102  15.455  0.0122 -0.0009  0.9519
 7948TIP3   OH245334   1.268   0.376  11.027 -0.4311  0.5327  0.3090
 7948TIP3    H145335   1.262   0.391  10.933  0.1760  1.8750  0.4578
 7948TIP3    H245336   1.349   0.326  11.038  0.3183  1.7036  0.2343
 7949TIP3   OH245337   1.717   2.774  12.534 -0.0587 -0.2475  0.4756
 7949TIP3    H145338   1.715   2.710  12.605 -0.4735  1.0408  1.6736
 7949TIP3    H245339   1.646   2.835  12.554  0.3161  0.5875 -0.6138
 7950TIP3   OH245340   2.785   6.612   4.850  0.2145 -0.3389  0.2866
 7950TIP3    H145341   2.709   6.668   4.864  0.3522 -0.0423 -0.1166
 7950TIP3    H245342   2.859   6.673   4.847  0.3372 -0.5076 -0.4035
 7951TIP3   OH245343   3.078   5.736  12.153 -0.6129 -0.3521  0.1617
 7951TIP3    H145344   2.989   5.739  12.118 -0.7940  0.2555  0.6531
 7951TIP3    H245345   3.133   5.765  12.080 -0.9830  0.8683  0.3468
 7952TIP3   OH245346   4.048   0.012   9.605 -0.2715  0.5763 -0.3977
 7952TIP3    H145347   4.126  -0.014   9.556  0.3914  2.4175 -0.4018
 7952TIP3    H245348   4.081   0.073   9.671 -1.6452  1.0305 -0.1006
 7953TIP3   OH245349   5.538   0.450   0.256  0.3498 -0.5130  0.0061
 7953TIP3    H145350   5.621   0.489   0.285  0.2084  0.7021 -1.1363
 7953TIP3    H245351   5.557   0.416   0.169 -0.5720  0.6794 -0.6986
 7954TIP3   OH245352   6.798   5.037   9.611 -0.3651 -0.3659  0.0981
 7954TIP3    H145353   6.883   4.994   9.613 -0.4216 -0.5199  2.4547
 7954TIP3    H245354   6.747   4.993   9.679 -0.8904  2.4151  1.6738
 7955TIP3   OH245355   5.983   7.101   3.360  0.0005 -0.4719  0.2614
 7955TIP3    H145356   5.974   7.146   3.444  0.2453 -1.5259  0.8686
 7955TIP3    H245357   6.054   7.147   3.316 -0.6024  0.5380  0.3265
 7956TIP3   OH245358   1.538   6.524  10.654  0.0491 -0.1318  0.9153
 7956TIP3    H145359   1.535   6.556  10.744  1.2084  0.6262  0.7101
 7956TIP3    H245360   1.629   6.539  10.627  0.0757 -1.6698  0.0871
 7957TIP3   OH245361   4.309   4.736  15.475  0.4661 -0.2838 -0.3123
 7957TIP3    H145362   4.367   4.662  15.457 -1.5874 -2.2485  0.5938
 7957TIP3    H245363   4.262   4.751  15.393  0.2661 -0.5646 -0.2488
 7958TIP3   OH245364   2.445   0.808   0.419  0.3822 -0.0020 -0.6535
 7958TIP3    H145365   2.368   0.842   0.465  0.8427 -0.3969  0.4423
 7958TIP3    H245366   2.420   0.811   0.326 -0.4734  1.0510 -0.4126
 7959TIP3   OH245367   0.987   5.499  15.717  0.5843 -0.0892  0.2149
 7959TIP3    H145368   1.066   5.483  15.666  2.0774  2.1998  1.6312
 7959TIP3    H245369   0.915   5.480  15.656  2.2249  0.1322 -1.9121
 7960TIP3   OH245370   5.965   3.138   1.688  0.6769  0.0074  0.0908
 7960TIP3    H145371   5.991   3.206   1.627  1.4814 -1.9530 -1.9006
 7960TIP3    H245372   5.869   3.138   1.684  0.6706  0.8972  0.0120
 7961TIP3   OH245373   2.195   1.133  12.438 -0.3390  0.2654  0.5767
 7961TIP3    H145374   2.114   1.171  12.473  0.0837  0.6602  1.1358
 7961TIP3    H245375   2.235   1.205  12.389  0.3440  0.4756  1.4328
 7962TIP3   OH245376   5.076   0.444  13.460 -0.2438 -0.1833  0.2321
 7962TIP3    H145377   5.098   0.434  13.367  2.0405  0.1250  0.6777
 7962TIP3    H245378   5.024   0.524  13.463  0.1410  0.1264 -0.7351
 7963TIP3   OH245379   7.122   2.023   0.554 -0.5444 -0.5400 -0.1659
 7963TIP3    H145380   7.059   1.961   0.592  1.6862 -2.7736  0.1481
 7963TIP3    H245381   7.088   2.040   0.466 -2.7715  0.2139  0.7597
 7964TIP3   OH245382   0.562   2.326   1.461  0.0653  0.0835  0.1048
 7964TIP3    H145383   0.605   2.293   1.540 -0.0670  0.0683  0.1725
 7964TIP3    H245384   0.569   2.255   1.398  1.8140  0.7735 -0.5353
 7965TIP3   OH245385   2.157   0.071  14.369 -0.2522 -0.0101  0.3599
 7965TIP3    H145386   2.127   0.158  14.396 -0.7044 -0.1201  0.2322
 7965TIP3    H245387   2.245   0.085  14.335 -0.0864  0.2972  0.9060
 7966TIP3   OH245388   1.041   6.164   2.999  0.1057 -0.6304  0.1346
 7966TIP3    H145389   0.981   6.212   2.941  0.8226  0.5577  0.3408
 7966TIP3    H245390   0.984   6.126   3.065 -0.4495  0.4981  0.3448
 7967TIP3   OH245391   4.225   4.007  14.350  0.4492 -0.0512  0.6022
 7967TIP3    H145392   4.172   3.929  14.338 -0.5017  0.5748  0.6820
 7967TIP3    H245393   4.307   3.987  14.305 -0.5919 -0.2556 -1.2961
 7968TIP3   OH245394   6.340   1.349  10.098 -0.3032 -0.0654 -0.8135
 7968TIP3    H145395   6.311   1.258  10.108 -0.2647  0.0873  1.2831
 7968TIP3    H245396   6.317   1.372  10.009 -2.5166 -1.3851 -0.6638
 7969TIP3   OH245397   4.985   0.133   4.258 -0.2778 -0.0322  0.2867
 7969TIP3    H145398   5.031   0.209   4.221 -0.6182 -0.1640 -0.4264
 7969TIP3    H245399   4.919   0.111   4.193  0.1285 -1.2433  0.2528
 7970TIP3   OH245400   4.095   3.437   1.092  0.3190 -0.2314 -0.1978
 7970TIP3    H145401   4.043   3.480   1.024 -0.0995 -2.0881 -1.0974
 7970TIP3    H245402   4.045   3.452   1.172  1.0735  2.4203 -0.1035
 7971TIP3   OH245403   2.551   6.997   2.186 -0.1700 -0.5826  0.3410
 7971TIP3    H145404   2.610   7.020   2.259  0.0482 -0.2452  0.0614
 7971TIP3    H245405   2.544   7.078   2.135 -1.7480 -0.2957  0.9573
 7972TIP3   OH245406   3.768   6.801  13.837  0.2871  0.3050  0.7288
 7972TIP3    H145407   3.769   6.708  13.812  0.0266  0.5177 -0.0991
 7972TIP3    H245408   3.744   6.847  13.757 -0.9230  0.9945  1.4542
 7973TIP3   OH245409   0.538   0.842  10.385  0.6866 -0.0962  0.1272
 7973TIP3    H145410   0.613   0.792  10.416  1.1576  0.2065 -0.5032
 7973TIP3    H245411   0.559   0.865  10.295 -0.1406  0.0452 -0.0449
 7974TIP3   OH245412   0.635   2.111  13.836  0.1251 -0.6260 -0.5187
 7974TIP3    H145413   0.695   2.053  13.884  1.0846 -1.0439 -2.1298
 7974TIP3    H245414   0.549   2.090  13.871  0.9440  0.7117  2.5980
 7975TIP3   OH245415   1.515   6.070  12.426  0.2773 -0.0373 -0.2871
 7975TIP3    H145416   1.476   6.017  12.495 -1.3151  0.0598 -1.0692
 7975TIP3    H245417   1.490   6.027  12.345 -1.2084  1.9322 -0.9588
 7976TIP3   OH245418   5.057   0.030   9.541  0.2764 -0.2375 -0.4557
 7976TIP3    H145419   5.041   0.029   9.447  0.1783 -0.5952 -0.4369
 7976TIP3    H245420   5.110  -0.048   9.557  1.1179  0.3359 -0.3547
 7977TIP3   OH245421   0.106   0.819  15.495 -0.3117  0.0920  0.3992
 7977TIP3    H145422   0.111   0.914  15.493 -0.4027  0.1100 -2.2126
 7977TIP3    H245423   0.045   0.796  15.424 -0.2339 -1.9126  0.9095
 7978TIP3   OH245424   0.593   4.461  13.478  0.3693 -0.1188  0.1623
 7978TIP3    H145425   0.593   4.413  13.396 -0.2956 -1.4929  0.9289
 7978TIP3    H245426   0.651   4.411  13.536  1.5656  1.3388  0.2688
 7979TIP3   OH245427   5.101   3.189  12.407  0.0244  0.1220  0.2682
 7979TIP3    H145428   5.064   3.160  12.490  1.8593  0.4933  1.2744
 7979TIP3    H245429   5.051   3.142  12.340 -2.1332  0.5276  1.5026
 7980TIP3   OH245430   5.909   7.099  10.265  0.2264 -0.4765  0.3005
 7980TIP3    H145431   5.954   7.135  10.341  1.3232 -1.4474  0.1377
 7980TIP3    H245432   5.965   7.026  10.236 -0.3584 -0.3636 -1.2029
 7981TIP3   OH245433   3.437   4.838  10.088  0.3186 -0.5756  0.5797
 7981TIP3    H145434   3.343   4.845  10.071  0.4573  0.1712  0.0915
 7981TIP3    H245435   3.443   4.823  10.182 -0.3438 -1.9817  0.4218
 7982TIP3   OH245436   0.923   2.934   9.454 -0.2920  0.0996 -0.0856
 7982TIP3    H145437   0.898   2.909   9.543  0.6732 -1.3639 -0.1875
 7982TIP3    H245438   0.959   2.854   9.416  0.0071  0.8931 -1.5507
 7983TIP3   OH245439   3.256   2.974   3.831  0.0358  0.1447  0.1908
 7983TIP3    H145440   3.240   3.059   3.790  1.4085  1.3672  2.0410
 7983TIP3    H245441   3.350   2.973   3.850 -0.1451 -1.3218  1.1889
 7984TIP3   OH245442   3.994   4.312  14.108  0.4637  0.0494 -0.8112
 7984TIP3    H145443   3.936   4.355  14.171  1.0582  2.6520 -1.8988
 7984TIP3    H245444   3.973   4.353  14.024  2.7359 -0.0759 -1.5043
 7985TIP3   OH245445   3.590   4.155  15.553  0.0781 -0.0654  0.1957
 7985TIP3    H145446   3.665   4.128  15.606  1.1194  1.0391 -0.6648
 7985TIP3    H245447   3.626   4.166  15.465 -0.9762  1.0648 -0.1156
 7986TIP3   OH245448   1.087   6.699  15.720 -0.0650  0.5120  0.1021
 7986TIP3    H145449   0.996   6.686  15.695  0.1859  1.1130 -1.2266
 7986TIP3    H245450   1.103   6.793  15.706  0.5406  0.5585  1.0580
 7987TIP3   OH245451   5.864   0.843  14.620 -0.2151 -0.4384 -0.6096
 7987TIP3    H145452   5.814   0.786  14.562 -3.3556  0.4416  1.0218
 7987TIP3    H245453   5.834   0.931  14.601 -2.0909 -0.1664  2.7755
 7988TIP3   OH245454   3.441   1.276  14.650 -0.5473 -0.2205  0.4225
 7988TIP3    H145455   3.493   1.300  14.728  2.5589 -0.4799 -1.4092
 7988TIP3    H245456   3.410   1.188  14.669  2.1130 -1.2270  0.5630
 7989TIP3   OH245457   6.763   5.868  13.690  0.1240 -0.1345  0.0900
 7989TIP3    H145458   6.844   5.854  13.738 -1.2963 -1.6593  2.2262
 7989TIP3    H245459   6.732   5.954  13.717 -0.4257 -0.7866  1.6367
 7990TIP3   OH245460   5.874   5.156   1.592 -0.1411 -0.4057 -0.2074
 7990TIP3    H145461   5.820   5.186   1.665 -1.1117 -2.6952  0.0920
 7990TIP3    H245462   5.897   5.236   1.545 -0.6591  0.9925  1.7888
 7991TIP3   OH245463   4.763   1.499   2.014 -0.1285 -0.0665  0.2394
 7991TIP3    H145464   4.764   1.466   1.924  1.0723  0.7441 -0.0706
 7991TIP3    H245465   4.720   1.585   2.007 -2.5715 -1.1462  0.9239
 7992TIP3   OH245466   2.533   1.762  15.522  0.0911  0.4256 -0.4265
 7992TIP3    H145467   2.458   1.814  15.550 -0.5573 -1.1560  0.9656
 7992TIP3    H245468   2.592   1.762  15.597 -0.9482 -2.5957  0.5393
 7993TIP3   OH245469   7.040   4.684   3.803 -0.2057  0.5871  0.1349
 7993TIP3    H145470   7.028   4.714   3.893 -0.4735  0.9341 -0.0116
 7993TIP3    H245471   6.984   4.742   3.751  0.6797  1.0250 -0.3583
 7994TIP3   OH245472   4.822   4.439  12.217  0.2118  0.5548 -0.6435
 7994TIP3    H145473   4.823   4.347  12.192  1.8366  0.6113 -0.8905
 7994TIP3    H245474   4.904   4.452  12.266 -0.6082  1.5670  0.5387
 7995TIP3   OH245475   2.782   1.090  12.372  0.6764  0.3723  0.1552
 7995TIP3    H145476   2.751   1.113  12.459  0.2747 -1.4882  0.5330
 7995TIP3    H245477   2.704   1.060  12.325  1.5297 -2.9689  0.6531
 7996TIP3   OH245478   2.048   1.693   2.272 -0.2336  0.2046 -0.0594
 7996TIP3    H145479   1.970   1.637   2.278 -0.3457  0.2542 -0.9258
 7996TIP3    H245480   2.121   1.632   2.275 -0.3643 -0.0416 -1.3937
 7997TIP3   OH245481   2.633   1.809  11.537 -0.5167 -0.0681  0.7671
 7997TIP3    H145482   2.648   1.901  11.557 -3.6147  1.6494 -3.4644
 7997TIP3    H245483   2.546   1.791  11.571 -0.2717 -1.2245  0.8260
 7998TIP3   OH245484   2.850   0.992  10.901  0.0761  0.4121 -0.0288
 7998TIP3    H145485   2.808   1.075  10.925 -0.0930  0.2442  0.2601
 7998TIP3    H245486   2.933   0.992  10.949  1.3404  1.6151 -2.0456
 7999TIP3   OH245487   4.995   6.966  11.778 -0.6666  0.3246  0.8659
 7999TIP3    H145488   5.059   6.935  11.843  0.4875 -0.5008 -0.5930
 7999TIP3    H245489   4.950   6.887  11.749 -0.4589  0.5325 -0.0527
 8000TIP3   OH245490   4.809   2.089  13.022  0.3173  0.1812  0.1424
 8000TIP3    H145491   4.764   2.150  13.080  1.3114  0.5245  0.5677
 8000TIP3    H245492   4.757   2.009  13.027 -1.4756  1.1973 -1.0502
 8001TIP3   OH245493   4.699   0.942   0.014  0.3033  0.3511 -0.2721
 8001TIP3    H145494   4.698   1.000   0.090 -0.5075  1.5586 -1.1526
 8001TIP3    H245495   4.689   1.001  -0.061 -1.4666 -0.9836 -1.1657
 8002TIP3   OH245496   6.958   0.858   1.047 -0.2380  0.1956 -0.4513
 8002TIP3    H145497   7.035   0.911   1.066 -0.7226  0.5203  0.6687
 8002TIP3    H245498   6.974   0.823   0.959 -0.1130  2.5879 -1.4701
 8003TIP3   OH245499   5.008   2.270   1.708 -0.0004  0.0491 -0.1933
 8003TIP3    H145500   5.018   2.181   1.742 -3.5360  0.7150  3.3993
 8003TIP3    H245501   4.950   2.261   1.633  0.1456 -0.7153 -0.2198
 8004TIP3   OH245502   4.512   5.670  13.386 -0.2040 -0.4033 -0.2882
 8004TIP3    H145503   4.418   5.662  13.368 -0.1383  1.0250 -1.3622
 8004TIP3    H245504   4.518   5.743  13.447  0.1940 -0.7919  0.1491
 8005TIP3   OH245505   2.722   2.243   1.121 -0.2173  0.4470 -0.1362
 8005TIP3    H145506   2.723   2.338   1.126 -0.0054  0.4386 -0.0057
 8005TIP3    H245507   2.715   2.214   1.212 -1.1583  0.3472 -0.2285
 8006TIP3   OH245508   4.757   6.709  13.435  0.0209 -0.1971  0.2784
 8006TIP3    H145509   4.825   6.642  13.437 -1.2357 -1.5340  2.7486
 8006TIP3    H245510   4.697   6.680  13.366 -0.7683 -2.0050  1.6322
 8007TIP3   OH245511   1.398   2.028   1.802  0.0719 -0.3645 -0.0662
 8007TIP3    H145512   1.426   2.119   1.795 -0.9606  0.0608  1.0623
 8007TIP3    H245513   1.347   2.024   1.882  1.0943 -2.2185  0.5640
 8008TIP3   OH245514   1.053   0.506  14.568  0.6859 -0.2966  0.2716
 8008TIP3    H145515   0.971   0.521  14.616  0.6416 -0.0970  0.1357
 8008TIP3    H245516   1.081   0.594  14.542 -0.1943 -0.5300 -1.5918
 8009TIP3   OH245517   4.975   2.044   0.939 -0.0919  0.0893 -0.0775
 8009TIP3    H145518   5.043   2.027   0.874 -1.0808 -1.0071 -0.8640
 8009TIP3    H245519   4.893   2.023   0.894 -0.8557  0.0912  1.2726
 8010TIP3   OH245520   6.452   6.175  15.169 -0.1510 -0.3354  0.9648
 8010TIP3    H145521   6.465   6.218  15.084  1.6231  0.6445  1.6854
 8010TIP3    H245522   6.403   6.239  15.221 -1.0197 -0.8355  0.7762
 8011TIP3   OH245523   1.234   5.502   1.092 -0.0492 -0.4559  0.8078
 8011TIP3    H145524   1.290   5.424   1.085 -1.1764 -1.2051 -0.6028
 8011TIP3    H245525   1.291   5.575   1.069  0.4349 -1.1771 -0.4082
 8012TIP3   OH245526   5.866   1.663  10.949  0.2755  0.2874  0.0793
 8012TIP3    H145527   5.855   1.754  10.922  2.2065  0.6163  0.2008
 8012TIP3    H245528   5.959   1.644  10.930  0.2294 -1.2589  1.2035
 8013TIP3   OH245529   2.133   2.404   1.751 -0.5685  0.2662 -0.0326
 8013TIP3    H145530   2.217   2.418   1.796 -1.6730  0.0822  2.2693
 8013TIP3    H245531   2.079   2.358   1.816 -3.6200  3.4479  0.0031
 8014TIP3   OH245532   1.708   5.765   9.944  0.1310 -0.4551  0.0986
 8014TIP3    H145533   1.738   5.691   9.997 -0.2401 -1.5204 -1.1497
 8014TIP3    H245534   1.741   5.747   9.856  0.2902  1.0283 -0.1822
 8015TIP3   OH245535   5.358   3.042  10.365  0.2525  0.6009  0.1692
 8015TIP3    H145536   5.338   2.951  10.387  0.2579  0.3947 -0.6573
 8015TIP3    H245537   5.276   3.078  10.330  0.9757  0.0258 -2.3323
 8016TIP3   OH245538   5.062   2.488   2.725 -0.7102  0.1381  0.3510
 8016TIP3    H145539   5.085   2.581   2.718 -0.5414  0.2947  2.5586
 8016TIP3    H245540   5.135   2.448   2.772 -1.6622 -0.7326  1.1323
 8017TIP3   OH245541   5.673   6.938   4.280 -0.0385 -0.2977  1.2065
 8017TIP3    H145542   5.767   6.928   4.265 -0.2978 -0.8219 -0.3042
 8017TIP3    H245543   5.664   7.022   4.325  1.0645  0.4717  0.0655
 8018TIP3   OH245544   6.201   2.712  11.313  0.0789 -0.0415  0.4134
 8018TIP3    H145545   6.209   2.788  11.370 -2.3655  0.3803  0.3204
 8018TIP3    H245546   6.145   2.742  11.241  0.6619 -1.3968 -0.6414
 8019TIP3   OH245547   4.654   0.957  10.262 -0.4658  0.0761 -0.1229
 8019TIP3    H145548   4.685   0.995  10.344  0.6958  0.2750 -0.6338
 8019TIP3    H245549   4.572   0.913  10.286  0.0331 -0.1923  1.2268
 8020TIP3   OH245550   0.818   4.997   0.837  0.6817  0.1408 -0.3591
 8020TIP3    H145551   0.834   4.965   0.748  1.2865  0.2444 -0.2947
 8020TIP3    H245552   0.905   5.001   0.876  0.4852  0.7157  0.0254
 8021TIP3   OH245553   0.486   2.829   0.945  0.2542 -0.1606 -0.1963
 8021TIP3    H145554   0.577   2.855   0.930  1.1974 -0.8687  3.2568
 8021TIP3    H245555   0.490   2.734   0.952 -0.4699 -0.1141  1.2099
 8022TIP3   OH245556   5.010   3.526   2.596  0.3490 -0.4003 -0.0537
 8022TIP3    H145557   5.096   3.553   2.627  0.5333 -0.8423 -0.1655
 8022TIP3    H245558   5.018   3.431   2.583 -0.6198 -0.7203  1.4765
 8023TIP3   OH245559   5.595   5.942   1.067  0.0234 -0.0554 -0.5229
 8023TIP3    H145560   5.567   5.938   0.975 -1.7098  0.8400 -0.0722
 8023TIP3    H245561   5.635   6.028   1.076 -0.7479  0.2802 -0.2111
 8024TIP3   OH245562   4.968   0.548   1.778 -0.7344 -0.4118 -0.1196
 8024TIP3    H145563   4.904   0.519   1.712  0.4774 -0.7202 -1.1897
 8024TIP3    H245564   5.049   0.503   1.754 -0.6340 -1.9045  2.5861
 8025TIP3   OH245565   1.308   3.787   5.890  0.8259  0.1858  0.3094
 8025TIP3    H145566   1.253   3.737   5.830  2.1316  0.7323 -1.4192
 8025TIP3    H245567   1.246   3.825   5.953 -0.4129 -1.7574  0.3680
 8026TIP3   OH245568   6.073   4.794   3.373  0.2176 -0.6884  0.5825
 8026TIP3    H145569   6.038   4.868   3.423 -1.1274 -0.2455 -0.9255
 8026TIP3    H245570   6.147   4.762   3.425  0.2355  1.1084  1.7315
 8027TIP3   OH245571   0.330   5.467   0.745 -0.4466 -0.2027 -0.5421
 8027TIP3    H145572   0.309   5.462   0.838  1.1069 -1.2804 -0.2208
 8027TIP3    H245573   0.264   5.526   0.709 -0.5737  0.8971  1.3811
 8028TIP3   OH245574   3.157   5.736  13.853  0.1206  0.0270  0.1000
 8028TIP3    H145575   3.218   5.665  13.871 -0.3804 -0.5157 -0.3146
 8028TIP3    H245576   3.149   5.783  13.936  0.7726 -0.1482  0.2640
 8029TIP3   OH245577   5.747   5.220   4.963 -0.6807  0.2405  0.2608
 8029TIP3    H145578   5.750   5.193   5.055  1.4774  1.0760  0.4827
 8029TIP3    H245579   5.717   5.142   4.916 -0.4617 -0.6252  1.5156
 8030TIP3   OH245580   2.269   4.477  14.401 -0.1527 -0.1685 -1.1497
 8030TIP3    H145581   2.294   4.405  14.458 -0.6341 -1.0834 -2.0578
 8030TIP3    H245582   2.244   4.435  14.319 -3.2252  0.7741 -0.8072
 8031TIP3   OH245583   0.870   5.258   5.000 -0.4173 -0.2236  0.4175
 8031TIP3    H145584   0.921   5.177   5.002  0.5506  0.3786  0.6835
 8031TIP3    H245585   0.914   5.312   4.934 -1.8215 -0.3932 -0.7063
 8032TIP3   OH245586   5.226   3.894   1.676  0.1823  0.1069 -0.1734
 8032TIP3    H145587   5.306   3.944   1.688  0.0247  0.6677 -1.3230
 8032TIP3    H245588   5.201   3.866   1.765  1.8004 -0.3624  0.1594
 8033TIP3   OH245589   1.222   0.311   3.562  0.2525  0.2174 -0.5818
 8033TIP3    H145590   1.211   0.275   3.650 -2.5013 -0.4308 -1.0814
 8033TIP3    H245591   1.160   0.385   3.559 -0.2617 -0.2398 -2.1685
 8034TIP3   OH245592   5.097   4.650   4.497 -0.1372  0.5088  0.3314
 8034TIP3    H145593   5.044   4.692   4.429 -1.9377 -0.0362  1.3343
 8034TIP3    H245594   5.159   4.718   4.525  1.7130  0.3202 -2.8126
 8035TIP3   OH245595   1.746   2.501  10.386  0.0222 -0.3009 -0.1959
 8035TIP3    H145596   1.694   2.526  10.310 -0.7502 -0.7073  0.1893
 8035TIP3    H245597   1.717   2.559  10.456  1.3871  0.6996 -0.4260
 8036TIP3   OH245598   3.489   2.324   1.058  0.3113 -0.5269  0.4844
 8036TIP3    H145599   3.482   2.244   1.110 -0.4334 -0.0791  1.1047
 8036TIP3    H245600   3.419   2.381   1.092  1.5902  0.8615  0.9073
 8037TIP3   OH245601   4.605   3.095  11.294  0.7010  0.1165  0.3789
 8037TIP3    H145602   4.611   3.089  11.199  0.5512  0.9655  0.3085
 8037TIP3    H245603   4.684   3.051  11.326  0.6940 -0.2766 -0.1259
 8038TIP3   OH245604   2.745   4.993  12.444 -0.0604  0.6355 -0.1793
 8038TIP3    H145605   2.778   4.987  12.534 -0.3245 -1.3082 -0.1734
 8038TIP3    H245606   2.807   5.052  12.400  1.7308 -0.5901  0.5748
 8039TIP3   OH245607   2.146   5.507  13.424  0.4239 -0.4107  0.0038
 8039TIP3    H145608   2.066   5.520  13.374 -0.3520 -1.7701  0.8219
 8039TIP3    H245609   2.116   5.471  13.508  1.7562  0.7673  1.0361
 8040TIP3   OH245610   6.113   3.078   2.171  0.1126 -0.3947 -0.1932
 8040TIP3    H145611   6.197   3.108   2.203  2.1708 -2.3455 -3.1561
 8040TIP3    H245612   6.104   3.119   2.085 -1.9338 -0.3144  0.0142
 8041TIP3   OH245613   1.632   3.397   0.934  0.1353 -0.1120 -0.3122
 8041TIP3    H145614   1.555   3.373   0.883 -0.1627  0.1487  0.0067
 8041TIP3    H245615   1.605   3.385   1.025  0.4125  0.1452 -0.1933
 8042TIP3   OH245616   6.253   1.304   0.863  0.2711  0.0498 -0.3165
 8042TIP3    H145617   6.169   1.260   0.874  1.1552 -1.3584  1.1463
 8042TIP3    H245618   6.317   1.233   0.859  1.6808  1.1632  1.3948
 8043TIP3   OH245619   0.069   4.822  12.530 -0.1073 -0.2875  0.0440
 8043TIP3    H145620   0.156   4.858  12.547  0.7654 -1.6889 -1.1500
 8043TIP3    H245621   0.074   4.733  12.564 -0.1608 -1.2533 -2.2784
 8044TIP3   OH245622   2.984   5.961  14.973 -0.0566  0.2220 -0.2155
 8044TIP3    H145623   2.892   5.940  14.987  0.1293 -0.0857  0.5596
 8044TIP3    H245624   3.029   5.877  14.975  0.3730  0.4608  0.4622
 8045TIP3   OH245625   2.431   2.796  11.888  0.7966  1.0917 -0.3942
 8045TIP3    H145626   2.459   2.864  11.828  0.1306  2.2053  0.5062
 8045TIP3    H245627   2.362   2.837  11.941 -1.2717 -0.9441 -1.3108
 8046TIP3   OH245628   5.267   4.377   1.106 -0.6252  0.2979  0.4554
 8046TIP3    H145629   5.329   4.394   1.036 -3.1005  1.1215 -1.7267
 8046TIP3    H245630   5.237   4.287   1.089  0.3511 -0.3223  1.8581
 8047TIP3   OH245631   1.553   2.302   2.385  0.5516 -0.0756 -0.4205
 8047TIP3    H145632   1.623   2.327   2.445  0.2004 -1.6626  0.7155
 8047TIP3    H245633   1.530   2.213   2.411 -1.2531  0.0692 -1.3802
 8048TIP3   OH245634   3.419   2.468   5.139  0.5170 -0.1780 -0.3814
 8048TIP3    H145635   3.401   2.421   5.058  0.4131  0.9935 -1.0553
 8048TIP3    H245636   3.333   2.492   5.174  0.5800 -0.1276 -0.2587
 8049TIP3   OH245637   5.260   6.877   2.036 -0.0739 -0.2223  0.0310
 8049TIP3    H145638   5.263   6.917   1.949  1.1344  1.1882  0.6679
 8049TIP3    H245639   5.185   6.818   2.033 -0.0297 -0.2419 -1.9741
 8050TIP3   OH245640   6.157   4.866  15.366 -0.0499 -0.1682  0.0815
 8050TIP3    H145641   6.073   4.821  15.371  0.5360 -1.2253  1.0256
 8050TIP3    H245642   6.142   4.939  15.305 -1.9216  0.3057  1.0203
 8051TIP3   OH245643   5.341   2.367  10.712 -0.7606  0.2079  0.3308
 8051TIP3    H145644   5.405   2.297  10.695 -1.5161 -0.7212  1.2286
 8051TIP3    H245645   5.373   2.410  10.791  0.0525  1.3403 -0.5669
 8052TIP3   OH245646   0.611   4.163  10.809  0.0504 -0.7510 -0.1303
 8052TIP3    H145647   0.692   4.152  10.760  0.4326  0.1021  0.2995
 8052TIP3    H245648   0.589   4.075  10.839  1.1781 -0.8984  0.3129
 8053TIP3   OH245649   6.327   0.823  13.628 -0.3578  0.1371  0.1088
 8053TIP3    H145650   6.356   0.752  13.685 -0.5530  0.2500  0.3476
 8053TIP3    H245651   6.399   0.836  13.567 -0.3719 -0.3580 -0.0196
 8054TIP3   OH245652   0.651   0.579  10.492  0.0129 -0.2286  0.0155
 8054TIP3    H145653   0.744   0.597  10.477  0.3201 -1.6082  0.1781
 8054TIP3    H245654   0.645   0.565  10.587 -0.7305  1.7294  0.3206
 8055TIP3   OH245655   5.401   7.071   4.656  0.4063  0.2029  0.2411
 8055TIP3    H145656   5.331   7.078   4.591 -1.1854 -0.2449  1.8251
 8055TIP3    H245657   5.377   7.134   4.724  2.2737  0.9866  0.2447
 8056TIP3   OH245658   5.899   2.970  10.628  0.2884  0.1501 -0.1480
 8056TIP3    H145659   5.956   2.917  10.572  0.5481 -2.4132  2.3002
 8056TIP3    H245660   5.811   2.942  10.606  0.3775 -0.6911  0.5283
 8057TIP3   OH245661   6.982   5.962   2.771 -0.5757  0.9030  0.0757
 8057TIP3    H145662   6.927   5.900   2.819 -2.6110  1.4654 -1.3630
 8057TIP3    H245663   6.933   6.045   2.775  1.1421  1.9499  0.3568
 8058TIP3   OH245664   0.344   5.036   4.711  0.4717 -1.0869  0.0192
 8058TIP3    H145665   0.331   5.128   4.730  0.7253 -0.8551 -0.8973
 8058TIP3    H245666   0.432   5.031   4.673  0.4513 -1.7050  0.0363
 8059TIP3   OH245667   6.930   5.778  11.273 -0.4240  0.2414 -0.0043
 8059TIP3    H145668   6.922   5.710  11.206 -0.6509 -0.1091  0.3731
 8059TIP3    H245669   6.904   5.734  11.354  2.7285 -0.2186  0.8812
 8060TIP3   OH245670   0.175   2.623   1.902 -0.0585  0.2275  0.1894
 8060TIP3    H145671   0.242   2.555   1.912  0.9894  1.3146  0.9144
 8060TIP3    H245672   0.220   2.694   1.855 -0.2822  1.4764  1.7494
 8061TIP3   OH245673   2.706   6.295   0.680 -0.3102  0.2765 -0.3934
 8061TIP3    H145674   2.738   6.235   0.748 -1.9612  0.4167  0.5531
 8061TIP3    H245675   2.727   6.382   0.714 -0.8803  0.3352 -0.1752
 8062TIP3   OH245676   4.089   1.180  14.839  0.2877  0.3112 -0.1616
 8062TIP3    H145677   4.021   1.114  14.854  0.4795  0.4340  1.4674
 8062TIP3    H245678   4.171   1.131  14.846  0.4539  0.7811  1.6926
 8063TIP3   OH245679   4.437   6.085  11.877 -0.2638 -0.3903  0.1251
 8063TIP3    H145680   4.382   6.144  11.825  0.5358  0.2215 -0.0490
 8063TIP3    H245681   4.438   6.004  11.827  1.0387  0.3965 -1.2233
 8064TIP3   OH245682   6.410   6.957   0.385 -0.6155  0.5890  0.6108
 8064TIP3    H145683   6.328   7.007   0.374 -0.8695  0.6448  2.3708
 8064TIP3    H245684   6.459   7.007   0.451 -0.4817 -0.9818  1.7606
 8065TIP3   OH245685   6.149   5.950  14.852 -0.3108  0.3711  0.0154
 8065TIP3    H145686   6.172   5.886  14.785  2.3288  0.4796  0.6936
 8065TIP3    H245687   6.054   5.960  14.845 -0.3314 -0.9281 -2.4760
 8066TIP3   OH245688   4.298   4.639   2.384  0.4138 -0.2632  0.4206
 8066TIP3    H145689   4.357   4.715   2.388  1.0908 -0.6609 -1.2134
 8066TIP3    H245690   4.249   4.643   2.465  0.7325  1.6954  0.5683
 8067TIP3   OH245691   3.443   6.457  10.089 -0.4218 -0.0529  0.0515
 8067TIP3    H145692   3.439   6.543  10.132  1.7145  0.9336 -1.4953
 8067TIP3    H245693   3.525   6.419  10.121 -0.8157 -1.0527 -0.1036
 8068TIP3   OH245694   3.864   3.095   1.845 -0.4284  0.3342  0.0504
 8068TIP3    H145695   3.785   3.099   1.899 -0.5680 -2.7557  0.2810
 8068TIP3    H245696   3.931   3.138   1.898 -1.2892  0.2481  1.2542
 8069TIP3   OH245697   5.029   4.628  10.891 -0.2744  0.0276 -0.6426
 8069TIP3    H145698   5.020   4.686  10.815 -0.5797  1.5475  0.4920
 8069TIP3    H245699   5.087   4.676  10.950  0.2160 -1.2723 -0.0348
 8070TIP3   OH245700   2.468   1.556  14.752  0.5077  0.1015  0.2772
 8070TIP3    H145701   2.417   1.501  14.693  2.7044 -2.1725  0.3095
 8070TIP3    H245702   2.430   1.542  14.838 -1.2273  1.5986 -0.1767
 8071TIP3   OH245703   2.277   0.623  14.851  0.1923 -0.0896 -0.1749
 8071TIP3    H145704   2.314   0.539  14.877  1.0789  0.6382  1.0272
 8071TIP3    H245705   2.220   0.603  14.777  2.1901 -1.3876 -1.4342
 8072TIP3   OH245706   6.033   6.677   2.119  0.3979  0.2207 -0.4271
 8072TIP3    H145707   6.108   6.732   2.096  1.2457 -1.9097 -3.2078
 8072TIP3    H245708   5.970   6.691   2.048 -0.5124 -0.3874  0.2367
 8073TIP3   OH245709   1.393   0.035   0.234 -0.8886  0.3528 -0.3926
 8073TIP3    H145710   1.339   0.102   0.190 -0.8791  0.2326 -0.5884
 8073TIP3    H245711   1.458   0.010   0.168  0.7839  2.0296  0.5261
 8074TIP3   OH245712   0.262   5.557  14.391  0.6221 -0.4020 -0.5416
 8074TIP3    H145713   0.199   5.555  14.463  1.8417  0.2251  0.5730
 8074TIP3    H245714   0.347   5.562  14.433  1.3397  0.6563 -2.0288
 8075TIP3   OH245715   3.719   0.368   4.852 -0.2740 -0.3555 -0.1945
 8075TIP3    H145716   3.654   0.297   4.855  0.0001 -0.7413 -2.2517
 8075TIP3    H245717   3.803   0.324   4.862 -0.1229 -0.3101 -1.1629
 8076TIP3   OH245718   4.886   3.939  14.207 -0.2861 -0.5908 -0.7833
 8076TIP3    H145719   4.932   3.991  14.141 -0.0889  1.8618  1.1306
 8076TIP3    H245720   4.795   3.970  14.203 -0.5225 -1.2551 -0.6774
 8077TIP3   OH245721   1.709   1.009   3.517 -0.0750 -0.1345 -0.1917
 8077TIP3    H145722   1.750   1.091   3.545  1.2268 -0.6260 -0.6001
 8077TIP3    H245723   1.773   0.941   3.538 -0.7789 -0.9656 -0.6380
 8078TIP3   OH245724   0.356   4.750  12.485  0.4087 -0.3029 -0.1839
 8078TIP3    H145725   0.309   4.670  12.463  1.3805 -0.9054 -0.1045
 8078TIP3    H245726   0.387   4.783  12.401 -1.0508  0.6989 -0.3760
 8079TIP3   OH245727   6.137   0.110   5.853 -0.3108 -0.2163  0.1758
 8079TIP3    H145728   6.232   0.104   5.867 -0.1451 -0.5874 -0.9916
 8079TIP3    H245729   6.099   0.050   5.917  0.4047 -1.9398 -0.9434
 8080TIP3   OH245730   4.235   0.389  14.428  0.1735  0.1431  0.2784
 8080TIP3    H145731   4.216   0.322  14.362  0.2551 -0.5956  0.9955
 8080TIP3    H245732   4.150   0.415  14.462  0.0959  0.8450 -0.4036
 8081TIP3   OH245733   1.272   3.652  14.893 -0.4220  0.2383 -0.8193
 8081TIP3    H145734   1.263   3.558  14.910 -0.7371  0.1847 -1.2777
 8081TIP3    H245735   1.280   3.691  14.980 -0.5702 -0.1834 -0.6127
 8082TIP3   OH245736   1.420   3.926  12.463 -0.5713 -0.4689 -0.0516
 8082TIP3    H145737   1.511   3.904  12.479 -0.2275 -0.8254 -2.1970
 8082TIP3    H245738   1.390   3.966  12.545  1.7341  0.4079  0.4400
 8083TIP3   OH245739   2.325   1.767  14.110 -0.0051  0.5177 -0.1798
 8083TIP3    H145740   2.279   1.805  14.185 -0.3993  0.6056 -0.4666
 8083TIP3    H245741   2.370   1.841  14.070 -0.8834  0.7249 -0.8186
 8084TIP3   OH245742   1.806   6.796  11.406 -0.3917  0.1418  0.1272
 8084TIP3    H145743   1.887   6.846  11.417 -0.9528  0.7905  1.5371
 8084TIP3    H245744   1.759   6.807  11.489 -1.9888 -0.1034 -0.6993
 8085TIP3   OH245745   1.654   0.531  15.106  0.0726  0.3467 -0.4993
 8085TIP3    H145746   1.565   0.566  15.118  0.2051  0.5825 -0.1719
 8085TIP3    H245747   1.711   0.607  15.120  0.2765  0.5031 -2.0684
 8086TIP3   OH245748   7.114   4.478   9.528 -0.5532  0.0567  0.2058
 8086TIP3    H145749   7.098   4.565   9.492 -0.0855  0.9357  1.9858
 8086TIP3    H245750   7.027   4.443   9.545 -0.8093 -0.6420 -2.2394
 8087TIP3   OH245751   3.634   2.742  14.655  0.3146 -0.1195 -0.1666
 8087TIP3    H145752   3.723   2.718  14.629 -0.5058 -1.5428 -1.8515
 8087TIP3    H245753   3.605   2.669  14.710 -1.1027 -1.6708 -2.7840
 8088TIP3   OH245754   1.381   1.058   0.729 -0.2035 -0.4173  0.2574
 8088TIP3    H145755   1.322   1.026   0.796  2.8728 -0.6759  3.1009
 8088TIP3    H245756   1.422   0.979   0.693 -0.8527 -0.2032 -0.9920
 8089TIP3   OH245757   2.258   3.459   4.474 -0.1656 -0.2423 -0.0095
 8089TIP3    H145758   2.215   3.503   4.401 -0.9982 -0.6547  0.2267
 8089TIP3    H245759   2.204   3.382   4.492  1.2130 -1.3451 -0.3657
 8090TIP3   OH245760   6.412   6.338   2.638  0.4577 -0.1714 -0.2144
 8090TIP3    H145761   6.422   6.245   2.619  1.2529 -0.3665  1.0813
 8090TIP3    H245762   6.319   6.355   2.621  0.1900 -1.3093  0.0057
 8091TIP3   OH245763   1.359   5.908  14.585 -0.4477 -0.1383  0.3583
 8091TIP3    H145764   1.394   5.953  14.662  1.5727 -2.5532  0.9859
 8091TIP3    H245765   1.333   5.822  14.618 -0.2072 -0.9824 -1.5340
 8092TIP3   OH245766   4.899   0.711  15.452  0.1138  0.2207 -0.1367
 8092TIP3    H145767   4.905   0.705  15.357 -0.7029  1.6061 -0.3089
 8092TIP3    H245768   4.810   0.743  15.468 -0.1075 -0.9393  1.1512
 8093TIP3   OH245769   2.168   5.672   3.787 -0.2890 -0.1088 -0.6801
 8093TIP3    H145770   2.145   5.580   3.799 -1.1526  0.2316  0.3852
 8093TIP3    H245771   2.194   5.702   3.874  1.2270  0.3379 -1.2587
 8094TIP3   OH245772   3.697   1.926   0.650 -0.2772  0.3438 -0.0193
 8094TIP3    H145773   3.729   2.013   0.626  0.3968 -0.1116 -0.8040
 8094TIP3    H245774   3.628   1.943   0.715 -1.3705  1.5552 -1.4179
 8095TIP3   OH245775   1.300   3.828  10.884 -0.1000 -0.0839 -0.2281
 8095TIP3    H145776   1.329   3.901  10.939  0.2227  0.6504 -1.3372
 8095TIP3    H245777   1.380   3.798  10.840 -0.4649 -0.1698 -0.8481
 8096TIP3   OH245778   5.711   6.396  11.617  0.4668 -0.5872 -0.2298
 8096TIP3    H145779   5.711   6.376  11.710  0.8695 -1.2471 -0.3639
 8096TIP3    H245780   5.640   6.459  11.606  1.5099  0.8332  0.7955
 8097TIP3   OH245781   2.388   1.552   1.950  0.3727  0.5039  1.2234
 8097TIP3    H145782   2.348   1.517   2.030 -1.0817  0.5892  0.5594
 8097TIP3    H245783   2.316   1.595   1.904 -0.0217 -3.2484 -2.2969
 8098TIP3   OH245784   4.018   1.820   5.788 -0.5261  0.6199  0.3976
 8098TIP3    H145785   3.949   1.848   5.728 -0.2702  1.7772  0.6288
 8098TIP3    H245786   4.080   1.893   5.790  1.6507 -1.0713 -1.1358
 8099TIP3   OH245787   5.323   6.095   5.438  0.1950 -0.0238  0.3429
 8099TIP3    H145788   5.392   6.094   5.373  0.4111 -1.0017  0.5670
 8099TIP3    H245789   5.289   6.005   5.438 -1.3051  0.5056 -0.0061
 8100TIP3   OH245790   0.736   6.945   2.134 -0.0975  0.0810  0.3475
 8100TIP3    H145791   0.709   6.916   2.048  1.8166 -2.7358  0.5373
 8100TIP3    H245792   0.669   7.008   2.162 -1.4060  0.1344 -2.6265
 8101TIP3   OH245793   6.299   0.996   5.479  0.0872 -0.3801 -0.1432
 8101TIP3    H145794   6.387   1.030   5.461 -0.1572  0.0297 -0.5677
 8101TIP3    H245795   6.312   0.938   5.554  0.2645  1.9644  1.7878
 8102TIP3   OH245796   3.676   1.905  14.890  0.5098  0.5708 -0.8816
 8102TIP3    H145797   3.727   1.906  14.971  0.4587  0.2837 -0.8448
 8102TIP3    H245798   3.644   1.995  14.881 -2.3846 -0.0873  1.2968
 8103TIP3   OH245799   2.297   6.274   1.335 -0.2303 -0.0784 -0.0959
 8103TIP3    H145800   2.272   6.366   1.323 -0.8480 -0.2651 -0.3220
 8103TIP3    H245801   2.368   6.261   1.272  0.2160  0.3796  0.3070
 8104TIP3   OH245802   3.628   5.558   2.386  0.5758  0.5602 -0.0737
 8104TIP3    H145803   3.699   5.610   2.423  0.2439  1.5961 -0.8421
 8104TIP3    H245804   3.586   5.616   2.323 -0.2045 -0.4399 -0.5077
 8105TIP3   OH245805   4.181   4.904  14.893  0.2373 -0.3070  0.6915
 8105TIP3    H145806   4.178   4.999  14.877  1.6563 -0.2238  0.8540
 8105TIP3    H245807   4.089   4.879  14.899 -0.2030  0.8637 -0.4941
 8106TIP3   OH245808   1.720   3.122   2.063 -0.6136  0.0040 -0.3954
 8106TIP3    H145809   1.708   3.082   1.977  0.2981 -0.3349 -0.3764
 8106TIP3    H245810   1.656   3.194   2.066  0.0120  0.6368 -1.7358
 8107TIP3   OH245811   0.997   4.370  15.382  0.1903  0.4104  0.5147
 8107TIP3    H145812   0.988   4.461  15.411  1.3626  0.6429  0.1891
 8107TIP3    H245813   0.941   4.365  15.304 -1.0548  0.4251  1.3684
 8108TIP3   OH245814   0.321   4.892   0.394 -0.8287 -0.5133  0.9484
 8108TIP3    H145815   0.330   4.873   0.300 -1.3528  0.7041  0.6365
 8108TIP3    H245816   0.340   4.986   0.401  0.5195 -0.8444  2.2550
 8109TIP3   OH245817   3.541   2.031  12.864  0.7237  0.0669  0.2138
 8109TIP3    H145818   3.547   2.103  12.801 -0.6544  0.5194  0.5585
 8109TIP3    H245819   3.622   1.981  12.851  2.2468  2.2693  0.7295
 8110TIP3   OH245820   0.509   1.394  14.857 -0.3408 -0.3449 -0.2715
 8110TIP3    H145821   0.543   1.402  14.946 -1.6321  0.5352  0.1792
 8110TIP3    H245822   0.449   1.319  14.861  0.3714 -0.9479 -0.6740
 8111TIP3   OH245823   0.903   1.427  12.929 -0.0789 -0.2886 -0.1812
 8111TIP3    H145824   0.995   1.452  12.934  0.0169 -0.6635 -0.0708
 8111TIP3    H245825   0.880   1.437  12.837 -0.2104  0.8041 -0.0478
 8112TIP3   OH245826   0.303   1.037   0.830  0.2207  0.1136  0.6534
 8112TIP3    H145827   0.213   1.056   0.853  0.0913 -0.1931  0.4048
 8112TIP3    H245828   0.328   0.964   0.887  0.1563 -0.1168  0.3902
 8113TIP3   OH245829   1.887   6.014   1.170 -0.5855 -0.5001  0.1808
 8113TIP3    H145830   1.971   6.057   1.156 -1.5446  1.3875 -0.1465
 8113TIP3    H245831   1.907   5.921   1.171  1.7562 -0.0642  1.8859
 8114TIP3   OH245832   5.427   2.643   1.600  0.8291  0.7382 -0.1978
 8114TIP3    H145833   5.372   2.710   1.559  1.2633  1.4157  0.3048
 8114TIP3    H245834   5.454   2.587   1.528 -1.6544 -0.4630 -0.2859
 8115TIP3   OH245835   6.713   3.130   9.851  0.3136  0.0535  0.3555
 8115TIP3    H145836   6.760   3.213   9.843  0.8806 -0.2664  0.3790
 8115TIP3    H245837   6.718   3.091   9.764  0.3307 -0.1079  0.4279
 8116TIP3   OH245838   6.420   5.457  14.817  0.0196 -0.3571  0.6943
 8116TIP3    H145839   6.408   5.418  14.730  1.2894 -0.1400  0.4106
 8116TIP3    H245840   6.439   5.383  14.874  2.3727 -0.2335  0.1661
 8117TIP3   OH245841   1.172   1.384  14.322 -0.7733  0.4305 -0.2760
 8117TIP3    H145842   1.102   1.329  14.355 -1.5441  1.7139  0.3184
 8117TIP3    H245843   1.221   1.328  14.262  0.0916 -1.7189  2.2208
 8118TIP3   OH245844   2.230   1.877  14.340 -0.2927  0.1923 -0.4792
 8118TIP3    H145845   2.267   1.964  14.355 -1.6241  0.7701 -0.4378
 8118TIP3    H245846   2.218   1.840  14.428 -2.3057  1.0948 -0.3417
 8119TIP3   OH245847   1.829   5.258  14.995 -0.0015  0.4794  0.0266
 8119TIP3    H145848   1.916   5.263  14.957 -0.0525  0.3832 -0.1011
 8119TIP3    H245849   1.810   5.348  15.022 -0.7314  0.9425 -1.8776
 8120TIP3   OH245850   4.050   4.350  15.597 -0.1838  0.8624 -0.3071
 8120TIP3    H145851   3.972   4.405  15.600 -0.4073  0.5285  0.8024
 8120TIP3    H245852   4.052   4.314  15.509 -1.2544  0.9378 -0.3713
 8121TIP3   OH245853   2.645   6.546   1.177  0.0447 -0.0408 -0.4918
 8121TIP3    H145854   2.569   6.541   1.235 -1.0183 -1.3265 -1.9291
 8121TIP3    H245855   2.620   6.609   1.110  0.8755  0.6847 -0.1425
 8122TIP3   OH245856   3.219   1.557  10.565 -0.2362 -0.3799 -0.5968
 8122TIP3    H145857   3.147   1.573  10.626 -0.8235 -5.4117  0.4409
 8122TIP3    H245858   3.179   1.516  10.489  1.1946 -0.0589 -1.5627
 8123TIP3   OH245859   6.395   3.478  12.782 -0.0107  0.0005  0.4302
 8123TIP3    H145860   6.463   3.500  12.718  0.4941 -0.4421  0.8177
 8123TIP3    H245861   6.363   3.563  12.812  0.6384  0.2074  0.5376
 8124TIP3   OH245862   0.429   5.252  14.497 -0.1654 -0.0703 -0.3826
 8124TIP3    H145863   0.355   5.311  14.507  0.6091  1.1197 -1.3415
 8124TIP3    H245864   0.468   5.247  14.585 -0.1639  0.9712 -0.3154
 8125TIP3   OH245865   1.715   4.693   1.236  0.4759  0.6500 -1.0708
 8125TIP3    H145866   1.753   4.743   1.309 -0.8190 -0.3073  0.3421
 8125TIP3    H245867   1.629   4.733   1.222 -0.0237 -0.2784 -0.8157
 8126TIP3   OH245868   0.030   3.440  11.533 -0.3840  0.2733 -0.0555
 8126TIP3    H145869   0.103   3.428  11.472 -0.5294 -0.4535 -0.0899
 8126TIP3    H245870   0.072   3.461  11.616 -0.1841  1.4327 -0.4149
 8127TIP3   OH245871   6.507   0.529   0.137 -0.0818  0.2296 -0.1710
 8127TIP3    H145872   6.561   0.450   0.135 -1.2729 -0.6103 -1.1511
 8127TIP3    H245873   6.479   0.536   0.228 -0.7116 -1.0518 -0.2362
 8128TIP3   OH245874   1.667   1.767  14.037  0.1122 -0.0715  0.6830
 8128TIP3    H145875   1.732   1.711  13.994 -0.2705  0.3321 -0.4588
 8128TIP3    H245876   1.591   1.764  13.979 -1.3738 -1.4700  2.5502
 8129TIP3   OH245877   6.010   2.586  14.862  0.3009  0.0270 -0.2225
 8129TIP3    H145878   6.103   2.563  14.865  0.3420  0.0543 -1.0831
 8129TIP3    H245879   5.989   2.590  14.769 -0.5829 -0.0369 -0.0348
 8130TIP3   OH245880   5.062   3.091   0.317  0.0240 -0.1957 -0.0955
 8130TIP3    H145881   5.023   3.157   0.260 -0.1109 -0.1959 -0.0030
 8130TIP3    H245882   5.136   3.136   0.359 -0.7311  0.2351  0.8144
 8131TIP3   OH245883   0.449   0.165  14.393  0.4506 -0.3835  0.1237
 8131TIP3    H145884   0.468   0.075  14.418  2.8934  0.1779  0.5902
 8131TIP3    H245885   0.532   0.211  14.404 -0.9205  2.1589  0.8402
 8132TIP3   OH245886   0.614   5.552   2.222  0.2285  0.1019 -0.2434
 8132TIP3    H145887   0.650   5.470   2.189  1.2677  0.2198  0.5469
 8132TIP3    H245888   0.684   5.616   2.208 -0.0689  0.5653  0.3455
 8133TIP3   OH245889   2.521   2.685   2.737  0.0268 -0.0776 -0.0051
 8133TIP3    H145890   2.586   2.701   2.669  1.8187 -1.4939  1.2704
 8133TIP3    H245891   2.558   2.614   2.790 -1.6246  0.4390  1.9924
 8134TIP3   OH245892   3.163   4.087   0.960  0.1629  0.2960  0.3626
 8134TIP3    H145893   3.243   4.036   0.949 -0.0026  0.3518 -1.3634
 8134TIP3    H245894   3.194   4.177   0.970  0.3321  0.3777 -0.7465
 8135TIP3   OH245895   7.025   2.524  15.554 -0.3140 -0.6240  0.5655
 8135TIP3    H145896   7.091   2.546  15.487 -0.9221  0.8649  0.4065
 8135TIP3    H245897   6.998   2.609  15.588 -0.3783 -1.3417  2.3810
 8136TIP3   OH245898   4.494   3.434   4.808 -0.5264 -0.3945 -0.0077
 8136TIP3    H145899   4.534   3.459   4.725  0.1874 -0.0886  0.4209
 8136TIP3    H245900   4.456   3.348   4.792 -0.4821 -0.2904 -0.6772
 8137TIP3   OH245901   4.110   6.619   4.669  0.1736 -0.5129  0.1116
 8137TIP3    H145902   4.126   6.665   4.751  0.9682  0.0702 -0.3651
 8137TIP3    H245903   4.016   6.601   4.670 -0.3794  1.9843 -0.1078
 8138TIP3   OH245904   0.560   3.774  10.759 -0.3150  0.0150 -0.7046
 8138TIP3    H145905   0.638   3.822  10.787  0.1628 -1.1283  0.0247
 8138TIP3    H245906   0.593   3.688  10.733 -1.3243 -0.4802 -0.3995
 8139TIP3   OH245907   4.890   6.368   4.477  0.1542 -0.4752 -0.3025
 8139TIP3    H145908   4.852   6.283   4.458 -2.2548 -0.5401  3.6864
 8139TIP3    H245909   4.825   6.431   4.444  0.8561 -0.2089 -1.2222
 8140TIP3   OH245910   4.334   5.970  10.585 -0.9440  0.3402 -1.6189
 8140TIP3    H145911   4.286   6.045  10.620 -0.7434  0.6750 -2.0540
 8140TIP3    H245912   4.425   6.000  10.578 -0.4047 -0.6422  0.2843
 8141TIP3   OH245913   7.134   1.912  14.489  0.6054  0.1267 -0.0637
 8141TIP3    H145914   7.106   1.904  14.580  2.4165 -0.1750  0.5069
 8141TIP3    H245915   7.103   1.832  14.447  1.1775 -0.5134  0.7041
 8142TIP3   OH245916   4.051   3.212  11.254  0.5797 -0.1258  0.4838
 8142TIP3    H145917   3.957   3.193  11.253  0.7645 -1.1816 -1.5838
 8142TIP3    H245918   4.058   3.290  11.309 -1.3689 -0.5904  1.5106
 8143TIP3   OH245919   4.970   2.181   2.648  0.1332  0.0443  0.1008
 8143TIP3    H145920   5.040   2.245   2.633 -1.0390  1.4360  0.2886
 8143TIP3    H245921   4.893   2.235   2.667 -1.5274 -1.3313 -2.2030
 8144TIP3   OH245922   3.373   4.123  10.737 -0.2404 -0.5917  0.0728
 8144TIP3    H145923   3.393   4.153  10.826  1.1338  2.8612 -1.2199
 8144TIP3    H245924   3.282   4.148  10.724  0.0651  0.5456 -0.0161
 8145TIP3   OH245925   4.200   4.175   5.030 -0.0004 -0.1812 -0.2580
 8145TIP3    H145926   4.136   4.149   4.965 -0.3349 -0.9087  0.3511
 8145TIP3    H245927   4.199   4.271   5.027 -3.1035 -0.0138  1.5713
 8146TIP3   OH245928   0.723   1.614  12.503  0.5137  0.3723  0.4637
 8146TIP3    H145929   0.750   1.687  12.560 -1.3968 -0.2908  2.3315
 8146TIP3    H245930   0.752   1.536  12.550 -1.6311 -0.2092  0.8869
 8147TIP3   OH245931   3.804   1.979   0.366  0.4559 -0.4577 -0.4509
 8147TIP3    H145932   3.882   2.034   0.362  0.1198  0.0150 -0.6589
 8147TIP3    H245933   3.749   2.019   0.433  2.3996 -3.5114  3.3537
 8148TIP3   OH245934   3.491   0.271   0.685 -0.3365 -0.1629  0.3850
 8148TIP3    H145935   3.464   0.231   0.603 -1.5425  0.4747  0.4587
 8148TIP3    H245936   3.582   0.243   0.696 -0.7020 -1.7010 -0.2700
 8149TIP3   OH245937   2.821   6.674  10.047 -0.4994  0.0532 -0.3068
 8149TIP3    H145938   2.738   6.721  10.056 -0.7799 -0.2153 -1.3350
 8149TIP3    H245939   2.841   6.678   9.954 -0.0080 -0.9864 -0.2634
 8150TIP3   OH245940   6.629   0.487  10.989 -0.4101 -0.0789  0.4949
 8150TIP3    H145941   6.624   0.447  11.076 -0.3798 -1.8028 -0.2550
 8150TIP3    H245942   6.559   0.445  10.939 -0.8442  1.3578 -0.1601
 8151TIP3   OH245943   3.293   3.718  14.440 -0.3883 -0.2025  0.1108
 8151TIP3    H145944   3.354   3.792  14.435  0.0753 -0.5226  0.7796
 8151TIP3    H245945   3.341   3.645  14.402 -0.1686 -0.5639  1.0545
 8152TIP3   OH245946   1.422   5.982   1.693  0.0638  0.4576 -0.5523
 8152TIP3    H145947   1.371   6.059   1.716 -1.0960 -0.0970 -1.1492
 8152TIP3    H245948   1.358   5.910   1.693  0.8761 -0.2886 -1.1633
 8153TIP3   OH245949   0.205   6.986   4.519  0.3909  0.0715 -0.3930
 8153TIP3    H145950   0.183   7.072   4.483  2.1780  0.4192 -0.7454
 8153TIP3    H245951   0.301   6.985   4.522  0.3723 -1.3438  1.0121
 8154TIP3   OH245952   4.032   5.921  15.546 -0.1039 -0.1800 -0.3692
 8154TIP3    H145953   4.004   5.841  15.590  1.1685 -0.7033 -0.4482
 8154TIP3    H245954   3.959   5.946  15.490 -0.9504 -0.6436  0.5164
 8155TIP3   OH245955   2.596   0.931  14.464  0.0721  0.0691 -0.0706
 8155TIP3    H145956   2.568   0.969  14.547  1.6779  0.1166  0.4702
 8155TIP3    H245957   2.598   1.005  14.404  2.0147  0.6709  0.6778
 8156TIP3   OH245958   4.373   1.347   2.378 -0.0690  0.0772 -0.4776
 8156TIP3    H145959   4.411   1.342   2.466  0.1363  1.3600 -0.4700
 8156TIP3    H245960   4.446   1.326   2.319  0.2990  1.1237 -0.4062
 8157TIP3   OH245961   2.098   5.870  13.247  0.4197 -0.2577 -1.3688
 8157TIP3    H145962   2.085   5.961  13.220 -0.3697 -0.1332 -0.6040
 8157TIP3    H245963   2.078   5.869  13.340 -0.0097 -1.3069 -1.4565
 8158TIP3   OH245964   6.958   4.533   9.859  0.1310 -0.1303 -0.2075
 8158TIP3    H145965   6.993   4.448   9.835  0.3350  0.3369 -1.6311
 8158TIP3    H245966   6.863   4.519   9.865  0.2729 -0.7479  0.9010
 8159TIP3   OH245967   5.190   3.915   2.845 -0.0953 -0.1710 -0.3715
 8159TIP3    H145968   5.205   3.999   2.802  1.7043  0.5079  1.3777
 8159TIP3    H245969   5.170   3.938   2.936  0.9110 -1.6174  0.2596
 8160TIP3   OH245970   0.613   3.131  14.636 -0.4106 -0.3462  0.0955
 8160TIP3    H145971   0.633   3.221  14.610  2.8212 -0.3441  2.0478
 8160TIP3    H245972   0.550   3.140  14.708  0.0863  0.3812  0.4494
 8161TIP3   OH245973   4.368   4.136   9.851  0.0661  0.6698  0.4333
 8161TIP3    H145974   4.286   4.088   9.865 -0.9178  2.0625 -0.2751
 8161TIP3    H245975   4.436   4.078   9.886 -1.0382 -1.2096 -0.3549
 8162TIP3   OH245976   6.286   0.068   4.709 -0.0842  0.3081  0.8848
 8162TIP3    H145977   6.193   0.083   4.695 -0.2144 -0.5226  0.8374
 8162TIP3    H245978   6.319   0.038   4.625  0.0530 -0.2358  1.1305
 8163TIP3   OH245979   4.907   5.266   2.141 -0.3598  0.3949 -0.1524
 8163TIP3    H145980   4.928   5.200   2.074  0.0362  0.4493 -0.0872
 8163TIP3    H245981   4.821   5.241   2.173 -0.3648  0.1127 -0.3782
 8164TIP3   OH245982   1.436   0.075   5.730 -0.1296  0.2273 -0.1695
 8164TIP3    H145983   1.504   0.035   5.784  0.1287 -1.2704 -1.5099
 8164TIP3    H245984   1.419   0.010   5.662 -2.4789  0.8331 -0.2335
 8165TIP3   OH245985   4.364   2.692   5.049 -0.3611 -0.4550  0.2311
 8165TIP3    H145986   4.450   2.654   5.028  0.1512  0.2159  1.0349
 8165TIP3    H245987   4.302   2.644   4.993  0.0293 -3.4724  2.1127
 8166TIP3   OH245988   0.613   6.190   1.936 -0.3719  0.2903 -0.0198
 8166TIP3    H145989   0.587   6.142   2.015 -2.5441  2.5977  0.8251
 8166TIP3    H245990   0.683   6.248   1.965  0.9517 -0.9921 -0.5799
 8167TIP3   OH245991   1.708   5.927  11.483  0.5453  0.3072 -0.2880
 8167TIP3    H145992   1.697   5.838  11.453 -1.0465  0.8346 -1.3582
 8167TIP3    H245993   1.781   5.962  11.432  0.1122  0.1164 -1.0366
 8168TIP3   OH245994   6.258   0.835  15.669  0.0331 -0.2308  0.2876
 8168TIP3    H145995   6.263   0.744  15.698 -0.3439 -0.5584 -0.6662
 8168TIP3    H245996   6.203   0.878  15.735 -1.2469 -1.0879 -0.1795
 8169TIP3   OH245997   3.269   4.836   2.203  0.0242  0.2679 -0.0233
 8169TIP3    H145998   3.322   4.838   2.282  0.2799  1.0182 -0.2013
 8169TIP3    H245999   3.191   4.888   2.225 -0.5388 -0.6361  0.1639
 8170TIP3   OH246000   3.910   3.869   1.748 -0.6943  0.7139 -0.5118
 8170TIP3    H146001   3.826   3.902   1.716 -3.0542 -4.0105 -0.1146
 8170TIP3    H246002   3.946   3.821   1.673  1.5640  2.3458 -0.5450
 8171TIP3   OH246003   1.303   4.394   1.635 -0.3254 -0.5465  0.1983
 8171TIP3    H146004   1.314   4.301   1.613 -1.5631 -0.5518 -0.5060
 8171TIP3    H246005   1.219   4.418   1.595  1.6151  1.8624 -2.8756
 8172TIP3   OH246006   4.691   6.991   0.053  0.1307  0.3218 -0.5538
 8172TIP3    H146007   4.769   7.004  -0.001  0.6858  1.1371  0.4235
 8172TIP3    H246008   4.634   7.064   0.031 -0.9525 -0.9499 -2.2118
 8173TIP3   OH246009   1.989   2.036  13.915 -0.2241  0.8865  0.0394
 8173TIP3    H146010   1.909   2.011  13.962 -0.0351 -0.6345 -0.3935
 8173TIP3    H246011   2.043   1.957  13.917  1.0605  1.7446 -0.1166
 8174TIP3   OH246012   5.808   5.829   4.662  0.2152 -0.2278  0.0161
 8174TIP3    H146013   5.729   5.846   4.714  0.6598 -1.3198  1.0973
 8174TIP3    H246014   5.856   5.911   4.664 -0.0897 -0.0603  0.7966
 8175TIP3   OH246015   2.806   2.169  12.684  0.3384  0.0681  0.3371
 8175TIP3    H146016   2.720   2.140  12.653  0.4324  1.5067 -1.4757
 8175TIP3    H246017   2.790   2.258  12.718  0.9872  0.0837  0.6089
 8176TIP3   OH246018   0.055   1.491  10.227  0.2171 -0.1771  0.3893
 8176TIP3    H146019   0.145   1.477  10.256  1.0250  0.3707 -1.7073
 8176TIP3    H246020   0.056   1.577  10.185 -1.0750 -0.5379 -0.4509
 8177TIP3   OH246021   5.755   1.449   0.932 -0.2209  0.7093 -0.1338
 8177TIP3    H146022   5.801   1.494   1.002 -0.9676  0.3466  0.6034
 8177TIP3    H246023   5.816   1.381   0.902 -0.1594  0.4206  0.6347
 8178TIP3   OH246024   2.499   5.719   2.478  0.2140  0.0969  0.1579
 8178TIP3    H146025   2.478   5.799   2.526 -0.8896  0.1045 -0.3166
 8178TIP3    H246026   2.439   5.719   2.403  0.5896 -0.8885 -0.1640
 8179TIP3   OH246027   5.043   2.060  13.496  0.0166 -0.2829 -0.6144
 8179TIP3    H146028   5.033   2.116  13.573 -2.0867 -0.6031 -0.6094
 8179TIP3    H246029   5.122   2.008  13.515 -1.5787 -1.8972  2.3778
 8180TIP3   OH246030   6.366   0.531  13.748 -0.5842 -0.4967 -0.0239
 8180TIP3    H146031   6.280   0.504  13.780 -0.5173 -0.7976 -0.0905
 8180TIP3    H246032   6.405   0.580  13.821 -0.1435 -1.7818  0.6525
 8181TIP3   OH246033   0.678   6.597  13.883 -0.0146  0.1330 -0.4350
 8181TIP3    H146034   0.766   6.605  13.918 -0.6940 -0.1465  1.4702
 8181TIP3    H246035   0.641   6.686  13.889  0.1779  0.2971 -1.4329
 8182TIP3   OH246036   2.480   1.711  11.882 -0.4701 -0.3119  0.2515
 8182TIP3    H146037   2.535   1.736  11.957  0.4426 -0.2374 -0.4301
 8182TIP3    H246038   2.484   1.786  11.823 -0.7844 -0.5651 -0.0985
 8183TIP3   OH246039   0.668   4.485  14.837 -0.8994  0.4429 -0.9517
 8183TIP3    H146040   0.739   4.500  14.775  2.4824 -0.1793  2.3922
 8183TIP3    H246041   0.644   4.393  14.825  0.4174  0.0558 -0.7028
 8184TIP3   OH246042   5.429   2.670  13.014  0.5165  0.2426 -0.3306
 8184TIP3    H146043   5.403   2.670  12.922  0.4696  0.2587 -0.3172
 8184TIP3    H246044   5.363   2.616  13.058  1.3775 -1.0198 -0.5498
 8185TIP3   OH246045   4.861   6.159  13.606  0.6574 -0.4581  0.0299
 8185TIP3    H146046   4.811   6.209  13.541  1.4119  0.3848  0.0752
 8185TIP3    H246047   4.854   6.211  13.686  1.9033 -0.1157 -0.0560
 8186TIP3   OH246048   4.653   6.588  14.055  0.7362 -0.2918  0.3766
 8186TIP3    H146049   4.583   6.560  13.997  1.7483 -3.5659  0.5739
 8186TIP3    H246050   4.728   6.603  13.998  0.4184  1.5408  0.3645
 8187TIP3   OH246051   0.284   5.318  15.618  0.4145 -0.0723  0.3007
 8187TIP3    H146052   0.317   5.230  15.638 -2.6423 -2.0041 -2.1367
 8187TIP3    H246053   0.204   5.325  15.670 -0.3210  0.4808 -0.8794
 8188TIP3   OH246054   4.972   2.180   0.260 -0.2427 -0.3242  0.2009
 8188TIP3    H146055   4.878   2.162   0.254 -0.2090 -0.2042 -0.7650
 8188TIP3    H246056   5.013   2.111   0.208  0.1403  0.1694 -0.1601
 8189TIP3   OH246057   6.452   0.640  14.457  0.1724  0.1060  0.0927
 8189TIP3    H146058   6.480   0.558  14.416  2.3529  1.1752 -0.7342
 8189TIP3    H246059   6.389   0.677  14.396 -0.6703 -0.8215  0.3722
 8190TIP3   OH246060   7.137   6.311  14.284  0.7076  0.6676 -0.6598
 8190TIP3    H146061   7.131   6.239  14.221  1.4166 -1.6216  1.7217
 8190TIP3    H246062   7.046   6.328  14.310  0.6381 -0.6949  0.0828
 8191TIP3   OH246063   5.375   0.762  12.589  0.3719  0.1677 -0.0942
 8191TIP3    H146064   5.421   0.758  12.674  1.2228  1.0249 -0.4837
 8191TIP3    H246065   5.332   0.847  12.590  0.1326  0.0499 -0.4047
 8192TIP3   OH246066   0.382   4.869   4.141 -0.1675  0.0171 -0.1092
 8192TIP3    H146067   0.383   4.776   4.163 -0.3428  0.4234  1.7853
 8192TIP3    H246068   0.461   4.882   4.087  1.0479 -0.8546  1.3830
 8193TIP3   OH246069   5.574   6.893  14.514  0.1720  0.0491 -0.3211
 8193TIP3    H146070   5.594   6.843  14.435  2.0199  1.4600 -0.8307
 8193TIP3    H246071   5.549   6.980  14.481 -0.9034  0.1057  0.5980
 8194TIP3   OH246072   0.552   2.025  11.040  0.0991 -0.0163  0.0350
 8194TIP3    H146073   0.631   1.984  11.075  0.3713 -0.6451 -1.2492
 8194TIP3    H246074   0.502   1.952  11.002 -0.2170  0.6019 -0.7767
 8195TIP3   OH246075   3.607   4.701  14.755  0.3131 -0.5667  0.1094
 8195TIP3    H146076   3.624   4.610  14.730 -0.3575 -0.5386 -0.4533
 8195TIP3    H246077   3.664   4.715  14.831  0.2410 -1.5338  0.3586
 8196TIP3   OH246078   2.090   3.233   1.477 -0.1606 -0.0082 -0.1025
 8196TIP3    H146079   2.176   3.208   1.443  0.2412  1.0872  0.0762
 8196TIP3    H246080   2.102   3.321   1.511 -1.8517  1.0201 -1.9417
 8197TIP3   OH246081   0.154   4.430  10.701 -0.0976  0.2605  0.3540
 8197TIP3    H146082   0.124   4.405  10.614  0.6661 -0.4747  0.2941
 8197TIP3    H246083   0.073   4.442  10.751 -0.5391  0.6085 -0.4251
 8198TIP3   OH246084   5.569   2.377   2.462  0.3358  0.0046  0.0848
 8198TIP3    H146085   5.551   2.332   2.379  2.2827  0.4802 -0.6599
 8198TIP3    H246086   5.567   2.470   2.440  1.8322  0.1208  0.2885
 8199TIP3   OH246087   5.697   4.374   1.836  0.2189 -0.6380  0.1781
 8199TIP3    H146088   5.738   4.389   1.921  0.0396  0.2546  0.1076
 8199TIP3    H246089   5.764   4.399   1.772  0.0163 -0.4126  0.0568
 8200TIP3   OH246090   3.182   2.579  13.989 -0.0588 -0.0600 -0.1695
 8200TIP3    H146091   3.208   2.505  13.933 -0.5004  0.0795 -0.5695
 8200TIP3    H246092   3.174   2.541  14.076  0.9914 -0.2037 -0.1250
 8201TIP3   OH246093   0.573   4.296  11.040  0.3554 -0.6699 -0.6910
 8201TIP3    H146094   0.483   4.325  11.023 -0.0628 -0.6745  1.3132
 8201TIP3    H246095   0.595   4.242  10.964 -1.6698 -1.3702 -0.8414
 8202TIP3   OH246096   7.039   7.103   9.416 -0.3386 -0.7064 -0.4855
 8202TIP3    H146097   7.102   7.078   9.348 -0.4192 -3.2984  0.2938
 8202TIP3    H246098   7.083   7.081   9.498 -1.7312 -1.3096  0.1290
 8203TIP3   OH246099   5.124   6.938  15.603 -0.0843  0.2831 -0.0158
 8203TIP3    H146100   5.131   6.989  15.522 -1.5690  0.2650 -0.1776
 8203TIP3    H246101   5.144   6.848  15.577 -0.3116  0.3183 -0.3228
 8204TIP3   OH246102   5.288   2.682   1.888 -0.2083  0.6277 -0.3362
 8204TIP3    H146103   5.359   2.635   1.932 -1.2082  0.1041  0.7628
 8204TIP3    H246104   5.316   2.686   1.796  1.2917  0.5509  0.0846
 8205TIP3   OH246105   3.862   3.780  12.820 -0.2010 -0.3138  0.0699
 8205TIP3    H146106   3.800   3.852  12.817  1.2867  0.9769 -0.5789
 8205TIP3    H246107   3.822   3.718  12.882 -1.6202  0.9194  0.4641
 8206TIP3   OH246108   3.283   3.174  12.654 -0.4764 -0.1104  0.7065
 8206TIP3    H146109   3.245   3.218  12.578 -1.0493  1.2051  1.7169
 8206TIP3    H246110   3.208   3.142  12.704 -0.0810 -2.2220  0.0670
 8207TIP3   OH246111   2.761   2.952  10.682  0.0117  0.3636 -0.7129
 8207TIP3    H146112   2.718   2.996  10.608  0.4221  0.7095 -0.7455
 8207TIP3    H246113   2.830   2.900  10.642 -0.0412  0.2153 -0.6103
 8208TIP3   OH246114   4.084   4.354   3.742  0.0949  0.2234  0.2671
 8208TIP3    H146115   4.178   4.361   3.761  0.1756  2.8351 -0.6598
 8208TIP3    H246116   4.079   4.355   3.647 -0.8326 -2.1198  0.2236
 8209TIP3   OH246117   2.275   1.299  14.022 -0.4143  0.0638 -0.3204
 8209TIP3    H146118   2.354   1.319  13.971 -1.3732 -1.5727 -2.6140
 8209TIP3    H246119   2.297   1.218  14.069 -0.0623  0.7387  0.7184
 8210TIP3   OH246120   3.411   5.972  14.205 -0.4265  0.0742 -0.3484
 8210TIP3    H146121   3.460   6.000  14.282  0.2858  0.8176 -1.0577
 8210TIP3    H246122   3.364   5.893  14.234  0.0935  0.1486  0.7366
 8211TIP3   OH246123   4.448   1.251  12.580 -0.1396  0.3274  0.1137
 8211TIP3    H146124   4.384   1.320  12.562 -1.2616 -0.9967 -1.2635
 8211TIP3    H246125   4.530   1.285  12.545 -0.9620  0.4569 -1.8273
 8212TIP3   OH246126   6.140   1.688  10.892  0.0499  0.4468  0.0007
 8212TIP3    H146127   6.206   1.718  10.955 -2.0466 -1.8942  3.7265
 8212TIP3    H246128   6.152   1.593  10.887 -2.4674  0.0353  0.2480
 8213TIP3   OH246129   4.068   6.338   0.850  0.0595 -0.1943  0.2319
 8213TIP3    H146130   4.007   6.283   0.899 -0.2864 -0.2149 -0.2203
 8213TIP3    H246131   4.041   6.328   0.759  0.2461  0.4147  0.1090
 8214TIP3   OH246132   0.366   2.516  13.912 -0.5708  0.0489 -0.1060
 8214TIP3    H146133   0.333   2.606  13.912 -0.9265 -0.0796  0.1880
 8214TIP3    H246134   0.304   2.469  13.855 -0.4454 -0.0321 -0.1756
 8215TIP3   OH246135   2.531   2.623  12.107 -0.1143 -0.1414  0.5270
 8215TIP3    H146136   2.595   2.677  12.152 -1.1555  0.5646  1.1912
 8215TIP3    H246137   2.502   2.677  12.033 -0.8375  0.0296  0.9369
 8216TIP3   OH246138   4.142   1.877   1.814  0.3365 -0.0710 -0.2893
 8216TIP3    H146139   4.179   1.797   1.779  2.9607  1.0285 -0.2777
 8216TIP3    H246140   4.105   1.922   1.738 -1.7472 -1.4907 -0.1992
 8217TIP3   OH246141   4.882   2.494   2.516 -0.4095  0.2077  0.4107
 8217TIP3    H146142   4.944   2.478   2.587 -0.4526  1.2375  0.7068
 8217TIP3    H246143   4.811   2.432   2.531  0.5495 -1.0053  0.0473
 8218TIP3   OH246144   5.973   4.870   3.007  0.4439  0.3625  0.0683
 8218TIP3    H146145   5.908   4.885   3.075 -1.8241 -1.4537 -1.5467
 8218TIP3    H246146   6.015   4.787   3.032  0.1565  0.0940 -0.3339
 8219TIP3   OH246147   4.702   1.348  13.863 -0.4292 -0.0592  0.5661
 8219TIP3    H146148   4.640   1.313  13.926 -1.3543 -1.7760 -1.1814
 8219TIP3    H246149   4.713   1.278  13.798 -0.7930  2.1315 -2.0637
 8220TIP3   OH246150   3.131   5.307  11.312 -0.0468  0.1124  0.1325
 8220TIP3    H146151   3.179   5.255  11.377  0.7128  0.5322 -0.0810
 8220TIP3    H246152   3.194   5.374  11.284 -0.4266  0.0578 -0.8890
 8221TIP3   OH246153   1.119   6.726  13.483  0.2180 -0.0797 -0.1545
 8221TIP3    H146154   1.075   6.703  13.564  0.6183 -1.2656 -0.2519
 8221TIP3    H246155   1.190   6.662  13.475 -0.6058 -0.8365 -2.0908
 8222TIP3   OH246156   4.218   0.224  10.691  0.0607  0.1331 -0.1247
 8222TIP3    H146157   4.190   0.204  10.780  2.3601  2.2482  1.2136
 8222TIP3    H246158   4.156   0.290  10.660  1.5687  2.5487  1.6492
 8223TIP3   OH246159   6.713   5.382  12.229  0.0223  0.2120  0.6484
 8223TIP3    H146160   6.791   5.397  12.281  0.9439 -0.5567 -0.4489
 8223TIP3    H246161   6.721   5.291  12.199 -0.0312  0.8384 -1.4734
 8224TIP3   OH246162   5.198   5.689   2.875  0.1201  0.6125 -0.0171
 8224TIP3    H146163   5.171   5.716   2.963 -1.0420  2.6868 -0.9461
 8224TIP3    H246164   5.144   5.741   2.816  0.2809 -1.3139 -2.0033
 8225TIP3   OH246165   0.203   2.871  10.420 -0.2625 -0.0066  0.0129
 8225TIP3    H146166   0.264   2.921  10.475 -0.4075  0.4454 -0.2382
 8225TIP3    H246167   0.203   2.783  10.460 -1.3519  0.6376  1.5308
 8226TIP3   OH246168   3.807   0.300   0.144  0.9335 -0.2762  0.6618
 8226TIP3    H146169   3.829   0.316   0.052 -0.7862 -0.9538  0.0967
 8226TIP3    H246170   3.862   0.362   0.193  0.4893  1.4623 -0.9331
 8227TIP3   OH246171   1.538   4.216  11.762 -0.0667  0.4660  0.2998
 8227TIP3    H146172   1.628   4.182  11.760  0.7452  2.4364  1.0055
 8227TIP3    H246173   1.489   4.155  11.707  1.6734 -0.7340 -0.0206
 8228TIP3   OH246174   4.554   5.775   2.009 -0.0871 -0.3196  0.1533
 8228TIP3    H146175   4.554   5.692   2.056 -0.2708 -0.0265  0.6768
 8228TIP3    H246176   4.524   5.752   1.921  0.7587 -0.9545  0.0129
 8229TIP3   OH246177   4.983   7.078  10.149  0.1753 -0.3552  0.2336
 8229TIP3    H146178   5.029   7.121  10.077  1.1052  0.0895  1.0734
 8229TIP3    H246179   4.945   7.149  10.200 -1.5361 -0.7080 -0.4555
 8230TIP3   OH246180   0.715   5.376  13.713 -0.0074  0.3144 -0.1667
 8230TIP3    H146181   0.747   5.309  13.774 -2.0931 -0.5877  0.0157
 8230TIP3    H246182   0.631   5.343  13.683 -1.1338  2.8510 -0.0820
 8231TIP3   OH246183   6.454   0.974  12.430 -0.0216 -0.5444  0.3079
 8231TIP3    H146184   6.511   0.908  12.470 -1.8657 -1.1460  2.0864
 8231TIP3    H246185   6.423   0.933  12.350 -0.7390 -1.6660  1.1376
 8232TIP3   OH246186   7.066   3.356  11.126  0.4384 -0.1959  0.4094
 8232TIP3    H146187   7.134   3.357  11.193  0.0136  0.2491  0.8347
 8232TIP3    H246188   7.085   3.277  11.075  2.5539  1.0070 -0.8184
 8233TIP3   OH246189   3.154   3.552   3.735  0.6621  0.0600  0.1987
 8233TIP3    H146190   3.161   3.464   3.698 -0.9096  0.2497 -0.6159
 8233TIP3    H246191   3.060   3.566   3.747  0.6784  2.4418 -1.7443
 8234TIP3   OH246192   5.291   5.516  11.790  0.0458 -0.7857 -0.1906
 8234TIP3    H146193   5.328   5.428  11.790 -0.1967 -0.8974 -0.9278
 8234TIP3    H246194   5.241   5.521  11.708 -1.4483 -0.5951  0.6923
 8235TIP3   OH246195   0.669   6.671  14.755 -0.2102 -0.0979 -0.1050
 8235TIP3    H146196   0.758   6.642  14.735  0.5193  1.6105  0.5264
 8235TIP3    H246197   0.614   6.596  14.731  1.5122 -1.8252  0.9919
 8236TIP3   OH246198   2.809   4.707   3.091  0.3119  0.3641  0.1987
 8236TIP3    H146199   2.750   4.677   3.160 -1.5400  3.5664  0.1840
 8236TIP3    H246200   2.830   4.627   3.042 -1.6726 -1.3622  1.9295
 8237TIP3   OH246201   1.057   5.021  13.153 -0.2860  0.6005 -0.2701
 8237TIP3    H146202   1.119   4.959  13.114  0.1339  1.6884 -1.4209
 8237TIP3    H246203   1.109   5.100  13.167 -0.6039  0.4634  1.9409
 8238TIP3   OH246204   2.816   0.240  12.583  0.2019 -0.2997  0.1639
 8238TIP3    H146205   2.911   0.241  12.577  0.2580 -0.9642  0.7448
 8238TIP3    H246206   2.791   0.332  12.597  0.5932  0.1712 -1.8904
 8239TIP3   OH246207   3.838   2.599  12.564 -0.2746  0.0900 -0.1224
 8239TIP3    H146208   3.779   2.571  12.494 -0.2724 -0.1126 -0.0441
 8239TIP3    H246209   3.900   2.657  12.522  0.1836 -0.6183 -0.4335
 8240TIP3   OH246210   2.745   3.457  12.318  0.5492 -0.0181  0.3926
 8240TIP3    H146211   2.651   3.442  12.303  0.6231 -0.0698 -0.0460
 8240TIP3    H246212   2.765   3.406  12.396  0.0859  0.4774  0.8430
 8241TIP3   OH246213   1.714   6.253  14.247  0.1637  0.3651  0.2464
 8241TIP3    H146214   1.751   6.225  14.164  1.2639  1.6368  0.2732
 8241TIP3    H246215   1.626   6.283  14.225 -0.1163 -0.7518 -0.1846
 8242TIP3   OH246216   5.571   4.664   1.825  0.2394 -0.1633 -0.1467
 8242TIP3    H146217   5.660   4.687   1.798  0.9598  0.4078  2.4354
 8242TIP3    H246218   5.583   4.598   1.893 -1.3942 -0.9533 -0.5814
 8243TIP3   OH246219   3.281   1.545   3.401  0.2823 -0.6090 -0.1507
 8243TIP3    H146220   3.247   1.634   3.394  1.8448  0.0280 -0.0522
 8243TIP3    H246221   3.367   1.555   3.441 -0.2494 -2.3482  1.5784
 8244TIP3   OH246222   0.209   1.623   3.704 -0.1950 -0.2169 -0.4752
 8244TIP3    H146223   0.162   1.655   3.780  0.6106  0.6169 -0.2959
 8244TIP3    H246224   0.147   1.630   3.632 -0.8515 -0.6906  0.0389
 8245TIP3   OH246225   3.519   7.025   2.572  0.3004  0.2238  0.5535
 8245TIP3    H146226   3.490   7.058   2.657  1.2906  0.3404  0.8534
 8245TIP3    H246227   3.539   7.103   2.520 -0.5888  0.1637  0.0919
 8246TIP3   OH246228   1.611   6.476  15.446  0.3255 -0.3143  0.2546
 8246TIP3    H146229   1.629   6.461  15.539 -0.0849 -0.6179  0.2840
 8246TIP3    H246230   1.566   6.397  15.416  0.9675 -0.4662 -0.3451
 8247TIP3   OH246231   1.763   2.979   3.871  0.1479 -0.5104  0.3534
 8247TIP3    H146232   1.812   2.944   3.797  0.8073  0.0823  0.4993
 8247TIP3    H246233   1.784   2.920   3.944  1.6774  0.4334  0.7320
 8248TIP3   OH246234   3.438   5.586   4.428 -0.3163 -0.0941  0.2141
 8248TIP3    H146235   3.355   5.553   4.395  0.2512 -0.2277 -1.1155
 8248TIP3    H246236   3.496   5.511   4.428 -0.1243  0.0369  0.9878
 8249TIP3   OH246237   1.549   4.900   0.720  0.4324  0.0234 -0.3328
 8249TIP3    H146238   1.563   4.994   0.707  1.3618 -0.0235  0.2437
 8249TIP3    H246239   1.608   4.859   0.657 -1.9817 -0.2236 -2.6183
 8250TIP3   OH246240   3.583   1.600   1.498 -0.5441 -0.0818 -0.9825
 8250TIP3    H146241   3.593   1.516   1.454 -1.5701 -0.4631 -0.5351
 8250TIP3    H246242   3.489   1.606   1.517 -0.6297  1.5530 -1.7375
 8251TIP3   OH246243   2.903   6.777  12.801 -0.3492  0.1841  0.6127
 8251TIP3    H146244   2.968   6.832  12.844 -0.6807  2.4938 -1.5788
 8251TIP3    H246245   2.935   6.767  12.712 -2.5329  0.7443 -0.3124
 8252TIP3   OH246246   3.685   2.823   5.718  0.0535 -0.1735 -0.1129
 8252TIP3    H146247   3.742   2.765   5.668  0.2047 -0.4996  0.4374
 8252TIP3    H246248   3.601   2.821   5.671 -0.0141 -1.0170  0.0263
 8253TIP3   OH246249   2.103   2.646   2.415 -0.4437  0.2672  0.3623
 8253TIP3    H146250   2.149   2.567   2.386 -2.0506 -0.5842 -0.0046
 8253TIP3    H246251   2.136   2.715   2.357  0.2180 -0.3467 -0.0148
 8254TIP3   OH246252   5.651   4.176  14.495  0.3223  0.1234 -0.8636
 8254TIP3    H146253   5.638   4.239  14.424 -1.9047 -1.3657 -1.8645
 8254TIP3    H246254   5.604   4.214  14.569 -0.5473 -0.0866 -1.3024
 8255TIP3   OH246255   5.884   2.316  14.394  0.2086  0.3067  0.3915
 8255TIP3    H146256   5.935   2.236  14.405 -1.1690 -0.8977 -1.3672
 8255TIP3    H246257   5.934   2.368  14.331  0.1042 -0.1162 -0.0459
 8256TIP3   OH246258   0.939   5.573  11.907 -0.0707 -0.3792 -0.2358
 8256TIP3    H146259   0.901   5.485  11.907  0.7284 -0.7307 -0.0409
 8256TIP3    H246260   0.980   5.582  11.992  1.6184 -0.6061 -0.9968
 8257TIP3   OH246261   5.214   0.794   0.451 -0.6185 -0.2018  0.1069
 8257TIP3    H146262   5.225   0.781   0.545 -2.9109  1.6501  0.7294
 8257TIP3    H246263   5.174   0.712   0.420 -1.7425 -0.0809  1.1589
 8258TIP3   OH246264   6.456   1.572  13.573 -0.2261  0.3990  0.0293
 8258TIP3    H146265   6.407   1.562  13.655  1.5052 -0.1838  1.0474
 8258TIP3    H246266   6.415   1.509  13.513 -0.9255  0.1740  0.7221
 8259TIP3   OH246267   5.453   1.100  11.444 -0.1685  0.0299  0.8691
 8259TIP3    H146268   5.506   1.178  11.425 -1.6379  0.9521  0.3610
 8259TIP3    H246269   5.461   1.089  11.538  0.5135  0.4504  0.8741
 8260TIP3   OH246270   6.324   2.935   9.614 -0.0491 -0.1871  1.1319
 8260TIP3    H146271   6.346   2.997   9.683  0.1706  1.1373 -0.0677
 8260TIP3    H246272   6.365   2.972   9.535 -0.0656 -1.7731  0.3364
 8261TIP3   OH246273   5.805   3.301   3.496  0.3680  0.3140 -0.3254
 8261TIP3    H146274   5.728   3.356   3.510 -1.2480 -1.4873 -1.5906
 8261TIP3    H246275   5.846   3.294   3.583 -0.8555  1.3427  0.3663
 8262TIP3   OH246276   4.948   0.824  11.154  0.1654 -0.0712  0.1253
 8262TIP3    H146277   5.029   0.775  11.163  0.1296 -0.3480 -0.9755
 8262TIP3    H246278   4.894   0.771  11.094 -0.6020  0.3909  0.3881
 8263TIP3   OH246279   3.265   4.777  14.846  0.6236 -0.3156 -0.5001
 8263TIP3    H146280   3.330   4.803  14.911  0.5200 -1.2319 -0.0217
 8263TIP3    H246281   3.225   4.860  14.818  1.8263  0.2399 -0.6407
 8264TIP3   OH246282   5.956   6.884   5.866  0.0660 -0.4921 -0.0832
 8264TIP3    H146283   5.936   6.959   5.810 -1.6269  0.3797  1.5917
 8264TIP3    H246284   5.979   6.814   5.805 -1.5424  0.4545 -1.8774
 8265TIP3   OH246285   6.513   5.501   4.147  0.1484 -0.3120  0.0317
 8265TIP3    H146286   6.490   5.571   4.208 -0.6889 -0.4687 -0.0947
 8265TIP3    H246287   6.488   5.535   4.061 -2.9419 -1.7731  0.2023
 8266TIP3   OH246288   2.863   6.766   9.750  0.9201  0.0909 -0.8677
 8266TIP3    H146289   2.912   6.802   9.676  1.0665 -1.6345 -1.6606
 8266TIP3    H246290   2.772   6.790   9.733  1.3077  2.6326  0.2043
 8267TIP3   OH246291   1.617   5.982   0.960 -0.7402  0.3313 -0.4012
 8267TIP3    H146292   1.554   6.025   1.018 -0.0870 -1.1315  1.4552
 8267TIP3    H246293   1.702   6.013   0.990 -0.4264  0.1948 -1.1385
 8268TIP3   OH246294   0.870   3.539  12.490  0.0002  0.1602 -0.3989
 8268TIP3    H146295   0.822   3.483  12.429 -0.6647  0.8561 -0.5347
 8268TIP3    H246296   0.804   3.599  12.524  0.9104  1.6863 -1.2154
 8269TIP3   OH246297   6.653   4.850  12.313 -0.1898  0.1536  0.2546
 8269TIP3    H146298   6.617   4.822  12.229  0.8598  0.3618 -0.2893
 8269TIP3    H246299   6.721   4.786  12.332 -0.4661  0.0774  0.9793
 8270TIP3   OH246300   1.644   6.943   0.962  0.3009  0.9718 -0.0172
 8270TIP3    H146301   1.657   7.036   0.980 -0.2875  0.6044  2.7140
 8270TIP3    H246302   1.709   6.899   1.017 -0.2425 -0.2863 -0.3559
 8271TIP3   OH246303   3.358   7.104   0.237 -0.3254 -0.2922 -0.2420
 8271TIP3    H146304   3.267   7.121   0.214 -0.6796 -1.8883 -0.1350
 8271TIP3    H246305   3.389   7.042   0.170  0.1064 -1.1860  0.7447
 8272TIP3   OH246306   6.574   5.429  14.117  0.2699 -0.6808  0.0121
 8272TIP3    H146307   6.490   5.475  14.106  0.7744 -0.2442 -2.7970
 8272TIP3    H246308   6.578   5.409  14.211 -2.2096  0.7078  0.5150
 8273TIP3   OH246309   0.783   3.755  11.816 -0.4418  0.4717 -0.4076
 8273TIP3    H146310   0.823   3.831  11.772  1.1144 -0.3349 -0.4395
 8273TIP3    H246311   0.786   3.777  11.909 -1.4323  1.0975 -0.5062
 8274TIP3   OH246312   3.549   2.342  11.834 -0.3463  0.1245  0.1325
 8274TIP3    H146313   3.531   2.261  11.881 -1.5568  0.3110  0.0070
 8274TIP3    H246314   3.544   2.319  11.742 -1.1260  0.4217  0.0936
 8275TIP3   OH246315   0.972   5.980  12.374 -0.3679 -0.0562  0.3099
 8275TIP3    H146316   0.906   5.991  12.306 -0.2584  0.5783  0.3044
 8275TIP3    H246317   0.928   5.929  12.442 -0.5664 -0.4418 -0.1073
 8276TIP3   OH246318   1.240   5.151  10.396  0.2851 -1.1792  0.2777
 8276TIP3    H146319   1.311   5.188  10.343  0.7393  0.1476  1.7207
 8276TIP3    H246320   1.283   5.083  10.449  0.7395  0.2577  1.8290
 8277TIP3   OH246321   5.129   1.354   0.564  0.7539  0.4017 -0.0812
 8277TIP3    H146322   5.147   1.438   0.522 -0.0838 -0.4309 -2.2602
 8277TIP3    H246323   5.166   1.362   0.652  0.6303  3.0533 -0.2055
 8278TIP3   OH246324   4.881   0.748   5.648 -0.0681 -0.2266 -0.4422
 8278TIP3    H146325   4.789   0.774   5.650 -0.2050 -0.6698  1.4239
 8278TIP3    H246326   4.929   0.828   5.626 -0.8125  0.3615  0.0276
 8279TIP3   OH246327   3.155   2.454   5.709 -0.1384  0.4003 -0.3331
 8279TIP3    H146328   3.169   2.535   5.659  1.8607  0.7811  0.7460
 8279TIP3    H246329   3.201   2.387   5.658  2.0118  0.8116  0.9351
 8280TIP3   OH246330   6.940   4.729   2.479 -0.0044  0.1470  0.6568
 8280TIP3    H146331   6.939   4.825   2.484  1.7462  0.1406  2.2931
 8280TIP3    H246332   6.889   4.701   2.554  0.7036 -0.1880  1.0189
 8281TIP3   OH246333   5.356   1.477   1.174 -0.3620  0.1546 -0.2970
 8281TIP3    H146334   5.322   1.566   1.174 -1.0434 -0.0919  0.8759
 8281TIP3    H246335   5.295   1.427   1.228  0.5281 -0.8211 -0.1476
 8282TIP3   OH246336   6.845   0.475   0.475 -0.4041 -0.7083  0.4730
 8282TIP3    H146337   6.770   0.480   0.534 -0.2436  0.5163  0.6029
 8282TIP3    H246338   6.839   0.388   0.436 -2.7492 -0.1279 -0.6549
 8283TIP3   OH246339   4.850   5.867  11.189  0.0262 -0.2110 -0.2703
 8283TIP3    H146340   4.833   5.906  11.103  0.2345 -1.5664 -0.9366
 8283TIP3    H246341   4.836   5.774  11.177  2.2163 -0.7177  0.5988
 8284TIP3   OH246342   3.979   2.616  13.543  0.2121  0.2228 -0.7660
 8284TIP3    H146343   4.057   2.638  13.594 -0.0792  1.3107 -0.7492
 8284TIP3    H246344   3.996   2.650  13.456  0.9937 -2.2441 -1.6565
 8285TIP3   OH246345   4.956   3.193  11.522  0.0381 -0.3280 -0.0064
 8285TIP3    H146346   5.012   3.267  11.549  0.8684 -0.6465 -0.8145
 8285TIP3    H246347   4.876   3.234  11.490 -0.4533  0.1178  1.6466
 8286TIP3   OH246348   1.351   3.674  15.161 -0.0191  0.6162  0.5842
 8286TIP3    H146349   1.396   3.698  15.080 -1.4413 -1.0972 -0.8055
 8286TIP3    H246350   1.420   3.672  15.227  0.9329  3.6547 -0.1599
 8287TIP3   OH246351   1.571   2.616   0.689 -0.0835 -0.5906  0.4856
 8287TIP3    H146352   1.581   2.536   0.637 -0.4380 -0.5197  0.3094
 8287TIP3    H246353   1.579   2.586   0.780 -2.3542 -1.1819  0.5359
 8288TIP3   OH246354   3.658   0.667  10.622  0.2678  0.3407 -0.2384
 8288TIP3    H146355   3.595   0.607  10.583 -1.1902  1.4772  0.3032
 8288TIP3    H246356   3.710   0.699  10.548  1.8416 -2.3410 -0.4404
 8289TIP3   OH246357   3.035   2.635   0.470  0.2561 -0.6617 -0.2011
 8289TIP3    H146358   3.114   2.629   0.417  0.5049  0.9196 -0.0624
 8289TIP3    H246359   3.050   2.576   0.543  2.8646  2.0034  1.6821
 8290TIP3   OH246360   6.513   3.427   0.067  0.0011 -0.0256 -0.1394
 8290TIP3    H146361   6.487   3.518   0.082 -0.8616 -0.3595  0.4816
 8290TIP3    H246362   6.546   3.397   0.151  2.1255  0.2750 -0.8268
 8291TIP3   OH246363   3.253   5.366   0.056 -0.1342  0.4434 -0.3513
 8291TIP3    H146364   3.227   5.300  -0.008 -3.1427  1.4059 -0.2833
 8291TIP3    H246365   3.217   5.448   0.023  2.9662  2.0776 -0.1378
 8292TIP3   OH246366   3.379   0.250  12.146 -0.0703 -0.4704 -0.2985
 8292TIP3    H146367   3.328   0.226  12.224 -0.1840 -0.5024 -0.3828
 8292TIP3    H246368   3.321   0.306  12.095  0.1093 -0.2115 -0.2205
 8293TIP3   OH246369   2.628   4.361  14.099 -0.1056  0.2670 -0.3689
 8293TIP3    H146370   2.656   4.339  14.010  1.4819  1.3481 -0.1782
 8293TIP3    H246371   2.634   4.278  14.147 -0.5702 -0.2326 -1.1392
 8294TIP3   OH246372   7.056   3.757  11.406 -0.5395 -0.1422  0.1009
 8294TIP3    H146373   7.031   3.665  11.397 -0.9157 -0.0239 -0.1090
 8294TIP3    H246374   7.022   3.798  11.326  1.5310 -0.2270 -0.8876
 8295TIP3   OH246375   3.669   4.444   1.352 -1.0087 -0.9488 -0.2061
 8295TIP3    H146376   3.643   4.536   1.362 -0.4380 -0.9185  1.1797
 8295TIP3    H246377   3.681   4.433   1.258 -1.2055  0.3696 -0.4046
 8296TIP3   OH246378   7.015   6.375  11.931 -0.3768 -0.0784  0.6256
 8296TIP3    H146379   7.074   6.449  11.916  0.1419 -0.0769  2.3738
 8296TIP3    H246380   7.024   6.357  12.025  0.3739 -3.0759  0.0845
 8297TIP3   OH246381   0.550   2.892  13.134  0.7046  0.2910  0.5343
 8297TIP3    H146382   0.635   2.926  13.160  1.6829 -0.4597 -1.4543
 8297TIP3    H246383   0.520   2.952  13.066 -0.1920  0.3332  0.9557
 8298TIP3   OH246384   5.302   5.371   4.827  0.2700 -0.0349 -0.6841
 8298TIP3    H146385   5.223   5.417   4.856  0.6439 -0.1538  0.5681
 8298TIP3    H246386   5.374   5.426   4.859  0.7150  0.5390 -2.5732
 8299TIP3   OH246387   3.909   3.094  10.423 -0.2871 -0.1832 -0.1108
 8299TIP3    H146388   3.943   3.005  10.425 -1.2705 -0.5870 -0.3625
 8299TIP3    H246389   3.863   3.100  10.339 -0.8277  0.3209  0.2112
 8300TIP3   OH246390   5.902   6.514  15.736  0.1772 -0.5411  0.0047
 8300TIP3    H146391   5.927   6.422  15.743 -1.8862 -1.1658 -0.2461
 8300TIP3    H246392   5.984   6.562  15.752  0.9898 -2.3542  1.7633
 8301TIP3   OH246393   6.543   3.052  15.162  0.1425  0.0956  0.3907
 8301TIP3    H146394   6.512   2.975  15.209  0.4196 -0.1445  0.1866
 8301TIP3    H246395   6.468   3.080  15.110 -0.9774  1.8206  2.7616
 8302TIP3   OH246396   2.168   0.832   3.024  0.2317 -0.0309  0.3870
 8302TIP3    H146397   2.082   0.831   3.067  0.4022  0.1766  0.7372
 8302TIP3    H246398   2.185   0.925   3.006 -0.5667 -0.2286 -1.6182
 8303TIP3   OH246399   2.091   1.403  11.949 -0.4759 -0.3453 -0.2385
 8303TIP3    H146400   2.115   1.313  11.968  1.9814  0.4175  0.7102
 8303TIP3    H246401   2.097   1.410  11.853  1.2208 -0.7803 -0.2063
 8304TIP3   OH246402   5.160   6.953  10.351 -0.5069 -0.8281 -0.2094
 8304TIP3    H146403   5.097   6.970  10.281 -0.0104  1.0424 -0.2462
 8304TIP3    H246404   5.245   6.972  10.312 -0.3047  1.5943  1.2073
 8305TIP3   OH246405   2.287   0.210   4.216  0.9482 -0.2982  0.5694
 8305TIP3    H146406   2.346   0.240   4.286  0.8242  0.8023  0.2183
 8305TIP3    H246407   2.342   0.209   4.138  0.4786  0.8727  0.2131
 8306TIP3   OH246408   3.635   0.772   4.649 -0.1745 -0.1914  0.8968
 8306TIP3    H146409   3.547   0.805   4.633  0.2702  1.7028  1.9826
 8306TIP3    H246410   3.693   0.834   4.605  0.6462 -1.8053 -0.4212
 8307TIP3   OH246411   1.150   1.027  14.359  0.0781  0.4671  0.2595
 8307TIP3    H146412   1.121   1.118  14.351  0.4778  0.6113  0.4253
 8307TIP3    H246413   1.226   1.021  14.301  0.8277  0.5823  1.2064
 8308TIP3   OH246414   2.538   0.764  13.522  0.3823  0.3120 -0.0386
 8308TIP3    H146415   2.496   0.678  13.519  1.3792 -0.2698  1.3163
 8308TIP3    H246416   2.476   0.823  13.481 -1.1091 -0.7642  0.5851
 8309TIP3   OH246417   6.580   6.602  15.376  0.3202 -0.6472 -0.3009
 8309TIP3    H146418   6.544   6.677  15.327  0.6474 -0.7212 -0.6571
 8309TIP3    H246419   6.671   6.627  15.393  0.6169 -1.2243 -0.9682
 8310TIP3   OH246420   6.262   5.177   1.299 -0.5527  0.4125  0.0694
 8310TIP3    H146421   6.199   5.106   1.309 -1.9164  1.2580 -1.8467
 8310TIP3    H246422   6.317   5.151   1.225 -1.1843  1.3605 -0.7769
 8311TIP3   OH246423   3.899   2.318   2.298 -0.9157  0.2196 -0.3893
 8311TIP3    H146424   3.864   2.234   2.326  2.6588 -1.0272  0.8491
 8311TIP3    H246425   3.827   2.380   2.311 -2.7550 -2.1360  1.4319
 8312TIP3   OH246426   6.323   2.614  12.776 -0.6011 -0.3263 -0.0799
 8312TIP3    H146427   6.296   2.554  12.708  0.9713 -1.5054  0.2730
 8312TIP3    H246428   6.388   2.565  12.827 -0.7357  0.9838  1.4349
 8313TIP3   OH246429   0.054   6.412   0.445  0.1334  0.9132 -0.5755
 8313TIP3    H146430   0.099   6.451   0.370 -0.7573  2.0826 -0.5442
 8313TIP3    H246431   0.086   6.462   0.520 -0.3813  1.0085 -0.4181
 8314TIP3   OH246432   6.721   6.917  14.949  0.4593 -0.5030  0.5603
 8314TIP3    H146433   6.780   6.985  14.981  1.9036 -1.0940 -0.7218
 8314TIP3    H246434   6.743   6.840  15.001  0.4782 -0.5965  0.4149
 8315TIP3   OH246435   7.057   2.917  15.706 -0.6749  0.3761  0.0267
 8315TIP3    H146436   7.045   2.949  15.616  0.4212 -1.4954 -0.8426
 8315TIP3    H246437   7.145   2.882  15.707 -0.4336  0.9251  2.0710
 8316TIP3   OH246438   3.901   0.026  13.310 -0.1365  0.8029  0.2052
 8316TIP3    H146439   3.903  -0.065  13.339  0.2089  0.7846  0.1245
 8316TIP3    H246440   3.927   0.076  13.387  0.9268  0.7446 -0.1046
 8317TIP3   OH246441   2.860   6.068  11.403  0.1181 -0.2764 -0.1629
 8317TIP3    H146442   2.818   6.093  11.321 -0.0365 -0.7961 -0.2506
 8317TIP3    H246443   2.792   6.022  11.452  0.6293 -1.3411 -0.4101
 8318TIP3   OH246444   2.712   4.434  11.471  0.1416 -0.1621  0.4215
 8318TIP3    H146445   2.665   4.513  11.499  2.2501  0.5105  2.3712
 8318TIP3    H246446   2.726   4.385  11.551 -0.2408 -2.1009 -0.6310
 8319TIP3   OH246447   0.099   2.959   1.416 -0.2658 -0.1106  0.0468
 8319TIP3    H146448   0.008   2.945   1.390 -0.0475 -0.0880 -0.7589
 8319TIP3    H246449   0.133   2.870   1.431 -0.7675 -0.0577  1.6133
 8320TIP3   OH246450   5.183   4.309  10.875  0.2531 -0.2749 -0.3633
 8320TIP3    H146451   5.231   4.391  10.878  0.1174 -0.1823 -0.7948
 8320TIP3    H246452   5.118   4.321  10.807 -0.4000 -0.3972  0.2270
 8321TIP3   OH246453   6.243   5.754  15.562  0.4756  0.0040 -0.0377
 8321TIP3    H146454   6.149   5.739  15.574  0.7158 -0.7833  0.9345
 8321TIP3    H246455   6.256   5.845  15.590 -0.2539  0.6794 -1.7626
 8322TIP3   OH246456   1.317   7.050   4.466 -0.2171  0.1053 -0.1624
 8322TIP3    H146457   1.379   7.009   4.406  0.4233 -0.1482  0.6449
 8322TIP3    H246458   1.232   7.014   4.441  0.0406 -0.0010 -0.9018
 8323TIP3   OH246459   1.512   3.412  13.350 -0.6133 -0.1790  0.3908
 8323TIP3    H146460   1.487   3.420  13.442 -1.1900 -4.5104  0.8073
 8323TIP3    H246461   1.436   3.372  13.307  0.3687 -0.0971 -1.5464
 8324TIP3   OH246462   4.018   5.984   2.191 -0.0074  0.1302 -0.0210
 8324TIP3    H146463   3.997   6.056   2.250 -0.9694 -0.0003 -0.1944
 8324TIP3    H246464   3.955   5.992   2.119  1.2874  0.4287 -1.1618
 8325TIP3   OH246465   2.979   3.400   4.544  0.4521 -0.7708 -0.1746
 8325TIP3    H146466   2.906   3.419   4.485  0.1730  0.8119  0.6258
 8325TIP3    H246467   2.948   3.329   4.600 -0.5442 -0.0336  0.2306
 8326TIP3   OH246468   5.564   0.611   1.044  1.1367 -0.0495  0.3958
 8326TIP3    H146469   5.624   0.666   1.094 -0.0105  0.7009  0.9817
 8326TIP3    H246470   5.567   0.526   1.088  1.4719  0.0964  0.6551
 8327TIP3   OH246471   4.342   6.670  10.729 -0.8126 -0.3565 -0.6859
 8327TIP3    H146472   4.346   6.733  10.800  0.1479 -0.2692 -0.8056
 8327TIP3    H246473   4.250   6.668  10.703 -0.5569  2.6413 -2.1707
 8328TIP3   OH246474   0.362   6.406  15.527 -0.2209 -0.0483  0.1946
 8328TIP3    H146475   0.323   6.325  15.496 -0.2337  0.6077 -1.6169
 8328TIP3    H246476   0.322   6.421  15.612 -3.0317 -0.0665 -1.0240
 8329TIP3   OH246477   4.669   4.685   3.512  0.4642  0.5038 -0.1310
 8329TIP3    H146478   4.690   4.760   3.568  0.7265 -0.7117  1.4584
 8329TIP3    H246479   4.574   4.688   3.503  0.3175  0.2326  1.1302
 8330TIP3   OH246480   2.946   5.007  12.639 -0.6915  0.0596 -0.2940
 8330TIP3    H146481   2.969   4.915  12.648 -2.2074 -0.4752 -1.4355
 8330TIP3    H246482   3.030   5.054  12.645 -0.0017 -1.2863  1.2124
 8331TIP3   OH246483   6.186   4.505   1.198  0.3985 -0.1763 -0.4218
 8331TIP3    H146484   6.226   4.427   1.235  1.7896  0.2302 -0.9776
 8331TIP3    H246485   6.241   4.526   1.123  0.0241  1.3067 -0.3088
 8332TIP3   OH246486   2.425   1.283  15.724  0.4685  0.0124 -0.2265
 8332TIP3    H146487   2.510   1.325  15.709  0.8717 -0.7702 -0.2014
 8332TIP3    H246488   2.439   1.227  15.801 -0.3874  0.7189  0.4743
 8333TIP3   OH246489   2.473   0.768  15.299  0.3537  0.1117 -0.2789
 8333TIP3    H146490   2.518   0.686  15.281  1.0575  0.6937 -1.2186
 8333TIP3    H246491   2.538   0.836  15.282  0.2567  0.8467  1.9024
 8334TIP3   OH246492   6.204   0.938   9.740 -0.0928 -0.1382 -0.0311
 8334TIP3    H146493   6.290   0.901   9.723 -0.4849 -0.0510 -2.6133
 8334TIP3    H246494   6.214   1.031   9.723 -0.0809  0.3612  2.4241
 8335TIP3   OH246495   6.297   6.771  12.515 -0.0818 -0.7562 -0.3485
 8335TIP3    H146496   6.363   6.708  12.544  0.3700  0.9181  2.7036
 8335TIP3    H246497   6.221   6.753  12.570 -1.1941 -0.8717 -1.8952
 8336TIP3   OH246498   0.072   4.811  10.072  0.1311 -0.1679  0.2786
 8336TIP3    H146499   0.150   4.837  10.024  0.7802  1.3672  2.0520
 8336TIP3    H246500  -0.001   4.834  10.014  0.7963  3.4767  0.6648
 8337TIP3   OH246501   3.011   0.882  15.476 -0.1013  0.2213 -0.5272
 8337TIP3    H146502   3.088   0.837  15.511 -0.3080  0.8028  0.7179
 8337TIP3    H246503   2.971   0.818  15.417 -0.6623 -1.4532  1.5541
 8338TIP3   OH246504   6.758   4.685  10.117  0.3908 -0.4339 -0.2210
 8338TIP3    H146505   6.743   4.668  10.024 -0.2733  0.8244 -0.3685
 8338TIP3    H246506   6.832   4.746  10.118 -0.4662  0.6430 -0.0371
 8339TIP3   OH246507   5.105   3.319   1.280 -0.5460  0.4463 -0.5228
 8339TIP3    H146508   5.066   3.376   1.214 -0.5953  3.1181  1.6608
 8339TIP3    H246509   5.196   3.349   1.287 -1.1937  2.0349  2.3307
 8340TIP3   OH246510   2.743   4.217   3.727  0.3063  0.7349 -0.0693
 8340TIP3    H146511   2.832   4.221   3.762  0.0568  0.9796  0.5581
 8340TIP3    H246512   2.708   4.135   3.761 -0.0695  1.1614  0.5857
 8341TIP3   OH246513   0.414   0.624   5.962 -0.8062 -0.4834 -0.0743
 8341TIP3    H146514   0.472   0.649   6.034 -0.8780 -0.8514  0.1152
 8341TIP3    H246515   0.375   0.541   5.990 -0.7710 -0.6744 -0.5765
 8342TIP3   OH246516   6.948   2.646  10.425  0.0592  0.2195 -0.6886
 8342TIP3    H146517   6.979   2.642  10.335 -1.1348 -0.1556 -1.0951
 8342TIP3    H246518   7.026   2.670  10.476  0.3938  2.0793 -1.9841
 8343TIP3   OH246519   1.158   2.892   1.201  0.7010  0.0824 -0.6655
 8343TIP3    H146520   1.105   2.886   1.121 -1.5181  0.4919  0.7014
 8343TIP3    H246521   1.205   2.809   1.204 -0.7925 -0.8411 -1.3572
 8344TIP3   OH246522   5.172   5.124  10.064 -0.0906  0.1061 -0.6249
 8344TIP3    H146523   5.127   5.195  10.017 -0.5599 -0.5582 -1.2036
 8344TIP3    H246524   5.108   5.053  10.066  0.7516 -0.6813 -1.0154
 8345TIP3   OH246525   6.181   0.196   4.971  0.0570 -0.0823  0.2410
 8345TIP3    H146526   6.188   0.105   5.000 -0.1167  0.2117  1.2346
 8345TIP3    H246527   6.209   0.194   4.879 -1.0440 -1.3367 -0.1088
 8346TIP3   OH246528   3.287   6.698  13.269 -0.5056  0.1115 -0.1877
 8346TIP3    H146529   3.221   6.648  13.222 -0.5588  0.8153 -0.8961
 8346TIP3    H246530   3.277   6.673  13.361 -1.5617  0.0065 -0.3247
 8347TIP3   OH246531   6.721   3.357   1.533 -0.4133 -0.7978 -0.7207
 8347TIP3    H146532   6.816   3.362   1.548 -0.4813 -2.5185  0.6546
 8347TIP3    H246533   6.686   3.437   1.572  0.4436 -0.2773 -0.9937
 8348TIP3   OH246534   3.353   3.436   1.645 -0.2321  0.5320  0.0311
 8348TIP3    H146535   3.332   3.508   1.587  3.6802  0.5419 -1.6576
 8348TIP3    H246536   3.348   3.358   1.590  1.9565  0.3622 -0.0212
 8349TIP3   OH246537   5.351   1.549  15.338  0.1147  0.3098 -0.7787
 8349TIP3    H146538   5.257   1.563  15.324  0.1545  1.8411  0.2771
 8349TIP3    H246539   5.380   1.505  15.258 -1.4172  0.1760 -1.3025
 8350TIP3   OH246540   5.330   3.946  14.190 -0.1160 -0.7148  0.1291
 8350TIP3    H146541   5.279   3.998  14.253 -1.2387 -1.7552  0.1181
 8350TIP3    H246542   5.279   3.951  14.109  1.5314  0.9681 -0.8918
 8351TIP3   OH246543   0.967   3.524   9.824  0.0409  0.6314  0.1877
 8351TIP3    H146544   1.028   3.597   9.842 -0.0297  1.0292 -1.0838
 8351TIP3    H246545   0.903   3.561   9.763  1.6963 -1.2265 -2.9243
 8352TIP3   OH246546   3.179   4.757   1.787 -0.1286 -0.5883  0.5409
 8352TIP3    H146547   3.248   4.805   1.833  0.1505  0.2579 -0.7201
 8352TIP3    H246548   3.201   4.764   1.694 -2.7227  1.0772 -0.0719
 8353TIP3   OH246549   1.867   0.341  12.412  0.2911 -0.1779 -0.4789
 8353TIP3    H146550   1.943   0.300  12.453 -0.4186  0.0032  1.0747
 8353TIP3    H246551   1.878   0.435  12.427  0.6949  0.0209 -1.9102
 8354TIP3   OH246552   0.461   2.213   0.030 -0.6982 -0.1880  0.0058
 8354TIP3    H146553   0.484   2.252   0.114  1.6634 -1.1985 -0.0954
 8354TIP3    H246554   0.540   2.168   0.002 -1.9112 -1.1986 -2.0336
 8355TIP3   OH246555   3.050   5.631   5.754  0.1058  0.1744  0.5154
 8355TIP3    H146556   2.984   5.670   5.810 -0.8752  0.2248 -0.6355
 8355TIP3    H246557   3.125   5.690   5.759  0.6644 -0.6237  2.9722
 8356TIP3   OH246558   6.364   2.252  11.570  0.3102  1.0533 -0.2774
 8356TIP3    H146559   6.334   2.185  11.509 -0.4209  1.0262  0.1029
 8356TIP3    H246560   6.333   2.335  11.532 -0.9097  0.9661  0.4847
 8357TIP3   OH246561   0.721   0.110   1.996  0.6786 -0.8580 -0.5009
 8357TIP3    H146562   0.776   0.171   1.946  0.5728 -0.8212 -0.5724
 8357TIP3    H246563   0.738   0.133   2.088 -2.6628  2.3822 -0.4232
 8358TIP3   OH246564   3.332   0.320  11.475  0.1300 -0.2619 -0.5762
 8358TIP3    H146565   3.291   0.373  11.543  0.7696  0.2012 -0.5455
 8358TIP3    H246566   3.286   0.236  11.479 -1.1694  0.4124 -0.8972
 8359TIP3   OH246567   5.769   1.624  15.314 -0.3342  0.1149 -0.2598
 8359TIP3    H146568   5.795   1.707  15.274  0.5659 -0.5928 -1.2097
 8359TIP3    H246569   5.840   1.564  15.292 -0.0122 -0.4436  2.0550
 8360TIP3   OH246570   1.758   0.940   4.593 -0.3842 -0.8301  0.1146
 8360TIP3    H146571   1.782   0.946   4.685  1.1343 -1.0448 -0.2471
 8360TIP3    H246572   1.825   0.992   4.548 -0.3931 -1.7363 -0.9732
 8361TIP3   OH246573   7.082   6.541  10.074  0.3111  0.1970  0.0623
 8361TIP3    H146574   7.055   6.450  10.063  0.0165  0.3184 -0.2294
 8361TIP3    H246575   7.095   6.573   9.985 -2.7147  1.3923 -0.0482
 8362TIP3   OH246576   6.227   2.490   1.530  0.2753  0.2552 -0.3971
 8362TIP3    H146577   6.188   2.572   1.561  0.9053  0.4792 -0.1596
 8362TIP3    H246578   6.301   2.476   1.589  2.2534  1.3283 -2.4456
 8363TIP3   OH246579   5.393   2.896   5.038  0.2345 -0.1234 -0.1415
 8363TIP3    H146580   5.475   2.884   4.990  0.9459 -0.7200  1.1556
 8363TIP3    H246581   5.419   2.940   5.119 -0.7799  0.0133  0.1213
 8364TIP3   OH246582   2.699   4.618  15.476  0.1203 -0.0926  0.6965
 8364TIP3    H146583   2.629   4.676  15.506  0.9546 -0.2250  3.0476
 8364TIP3    H246584   2.772   4.677  15.457  0.2252 -0.1900  0.8050
 8365TIP3   OH246585   6.839   2.813  14.988  0.2148  0.1364 -0.6571
 8365TIP3    H146586   6.907   2.879  14.976  1.0189 -0.7826 -1.3213
 8365TIP3    H246587   6.757   2.859  14.969  0.7149  1.0424 -0.6878
 8366TIP3   OH246588   2.880   0.863  13.254 -0.3757  0.4728 -0.0840
 8366TIP3    H146589   2.786   0.879  13.264 -0.4755 -0.1598  0.0118
 8366TIP3    H246590   2.920   0.921  13.318 -0.6382  1.4640 -0.7855
 8367TIP3   OH246591   4.369   0.308  14.680  0.0887  0.2041 -0.0863
 8367TIP3    H146592   4.463   0.309  14.662 -0.1844 -0.8937 -1.8715
 8367TIP3    H246593   4.328   0.325  14.595 -1.3317  0.8821  0.7071
 8368TIP3   OH246594   2.106   1.297  13.687  0.1853 -0.5593  0.0805
 8368TIP3    H146595   2.174   1.315  13.622  0.8923 -0.2094  0.8871
 8368TIP3    H246596   2.095   1.381  13.733 -1.3980 -0.3758 -0.5684
 8369TIP3   OH246597   4.596   0.092   2.827  0.5150 -0.3924  0.9516
 8369TIP3    H146598   4.624   0.150   2.897 -0.0155  0.1487  0.7268
 8369TIP3    H246599   4.675   0.047   2.800  0.8806  0.0141  1.3244
 8370TIP3   OH246600   0.127   6.599  13.637 -0.3836 -0.1097  0.6306
 8370TIP3    H146601   0.212   6.556  13.636 -1.0725 -1.5414  0.3989
 8370TIP3    H246602   0.086   6.573  13.555 -1.1576  0.3014  0.8768
 8371TIP3   OH246603   6.616   5.858   2.230  0.1276  0.5723  0.4972
 8371TIP3    H146604   6.584   5.929   2.173  0.5113  0.8934  0.6753
 8371TIP3    H246605   6.690   5.821   2.182 -0.3884 -0.0543  0.1671
 8372TIP3   OH246606   2.421   6.001  12.125  0.5075  0.4506 -0.6496
 8372TIP3    H146607   2.473   6.006  12.045  3.5132  0.0525  1.1208
 8372TIP3    H246608   2.439   6.083  12.171 -0.1895  0.1633  0.1755
 8373TIP3   OH246609   6.369   6.301  14.575  0.3877 -0.6054 -0.0460
 8373TIP3    H146610   6.279   6.334  14.575  1.0826  1.5025 -1.4257
 8373TIP3    H246611   6.364   6.218  14.622 -1.9998  0.1710  1.2494
 8374TIP3   OH246612   0.273   4.943   2.473 -0.0682  0.3929  0.4288
 8374TIP3    H146613   0.351   4.998   2.480  0.2176 -0.1184  1.4686
 8374TIP3    H246614   0.223   4.961   2.553 -1.3397  1.1726 -0.5031
 8375TIP3   OH246615   5.758   7.004  14.214 -0.6559 -0.6789  0.2114
 8375TIP3    H146616   5.699   7.065  14.170  0.7512  2.3202  2.0730
 8375TIP3    H246617   5.826   6.985  14.150 -0.7026  0.4229 -0.1777
 8376TIP3   OH246618   1.958   3.303  11.506  0.1191  0.0815 -0.0041
 8376TIP3    H146619   1.940   3.347  11.589 -1.9800  0.2394 -0.4864
 8376TIP3    H246620   1.937   3.211  11.521  1.8394 -0.3073  0.2179
 8377TIP3   OH246621   5.549   2.984  12.620 -0.4837 -0.2018  0.2897
 8377TIP3    H146622   5.458   2.964  12.645 -0.3592  0.0304  0.9478
 8377TIP3    H246623   5.592   2.899  12.618  0.0310 -0.1100  3.0147
 8378TIP3   OH246624   2.367   5.640   4.935 -0.0719 -0.0996  0.0549
 8378TIP3    H146625   2.403   5.553   4.915 -0.2445 -0.5909  1.7277
 8378TIP3    H246626   2.427   5.701   4.892  0.9456 -0.9996  0.1400
 8379TIP3   OH246627   4.453   4.345  12.174 -0.3347 -0.0824 -0.2281
 8379TIP3    H146628   4.549   4.349  12.176 -0.3553  0.5774  1.8176
 8379TIP3    H246629   4.425   4.432  12.203 -1.6002 -0.0000 -1.5545
 8380TIP3   OH246630   1.198   1.450  14.750  0.2567 -0.5794 -0.4585
 8380TIP3    H146631   1.129   1.506  14.715 -0.3580  0.2748  1.8942
 8380TIP3    H246632   1.246   1.506  14.810 -1.7012 -2.8715  3.7230
 8381TIP3   OH246633   1.730   4.628  10.922 -0.7309 -0.0504 -0.4073
 8381TIP3    H146634   1.733   4.723  10.910 -2.1040 -0.0459 -0.9384
 8381TIP3    H246635   1.638   4.609  10.941 -0.1896 -1.1111  1.3345
 8382TIP3   OH246636   3.534   1.083   2.757 -0.1859 -0.4562  0.4030
 8382TIP3    H146637   3.462   1.104   2.816 -0.4258  2.0729 -0.6435
 8382TIP3    H246638   3.491   1.058   2.675  0.1188 -0.6531  0.3029
 8383TIP3   OH246639   5.206   2.047  12.790 -0.0417  0.0464 -0.4077
 8383TIP3    H146640   5.185   2.048  12.883  0.5391  0.5337 -0.2809
 8383TIP3    H246641   5.121   2.054  12.746 -0.1642  2.1932  0.0923
 8384TIP3   OH246642   2.883   0.654   0.983  0.1367  0.0208  0.0381
 8384TIP3    H146643   2.902   0.733   0.932 -0.3980  1.6941  2.2708
 8384TIP3    H246644   2.812   0.611   0.935 -0.0912  1.3089 -0.8471
 8385TIP3   OH246645   2.639   3.348   5.002 -0.1186 -0.3149 -0.0759
 8385TIP3    H146646   2.615   3.408   4.932  0.0285 -1.2149 -0.9131
 8385TIP3    H246647   2.555   3.325   5.044 -0.1930  0.3149  0.1259
 8386TIP3   OH246648   2.319   2.104  15.410  0.0651  0.0108  0.2572
 8386TIP3    H146649   2.248   2.120  15.472 -0.7077  0.6920 -0.7455
 8386TIP3    H246650   2.399   2.108  15.462 -0.5449  0.7663  1.1690
 8387TIP3   OH246651   4.193   5.531  15.548 -0.2318  0.0388 -0.3432
 8387TIP3    H146652   4.155   5.464  15.605  0.4896  0.9381  1.2762
 8387TIP3    H246653   4.121   5.593  15.534 -0.5629 -0.4591 -0.8524
 8388TIP3   OH246654   3.395   3.882  14.756 -0.4548 -0.6350 -0.3288
 8388TIP3    H146655   3.354   3.911  14.675  0.7217 -0.8777 -1.0371
 8388TIP3    H246656   3.473   3.834  14.728 -0.8809 -2.1448  0.8912
 8389TIP3   OH246657   5.574   5.118   9.925 -0.0478  0.4704  0.3418
 8389TIP3    H146658   5.526   5.195   9.955 -0.7456  0.5820 -0.9879
 8389TIP3    H246659   5.510   5.070   9.872  1.4558  0.9389 -2.0197
 8390TIP3   OH246660   0.014   6.125  11.837 -0.2558  0.3423 -0.1670
 8390TIP3    H146661  -0.079   6.115  11.860 -0.0190  1.0363  1.1758
 8390TIP3    H246662   0.032   6.218  11.850  0.5801  0.2521 -0.6367
 8391TIP3   OH246663   2.438   0.836   2.787 -0.0144 -0.4051 -0.2045
 8391TIP3    H146664   2.442   0.804   2.697  0.9556 -0.2945 -0.2110
 8391TIP3    H246665   2.347   0.822   2.813 -0.2866 -0.5111 -1.1706
 8392TIP3   OH246666   5.055   3.244   1.919  0.5412  0.2958 -0.0988
 8392TIP3    H146667   5.151   3.245   1.921  0.5541  1.6325 -0.1151
 8392TIP3    H246668   5.032   3.274   1.831  0.1015 -0.2380 -0.1703
 8393TIP3   OH246669   7.065   5.434   0.316 -0.7097  0.6166  0.4545
 8393TIP3    H146670   7.015   5.495   0.260  0.3082  0.6770 -0.4218
 8393TIP3    H246671   7.110   5.377   0.254  1.7686  1.7227  1.1129
 8394TIP3   OH246672   5.809   5.139   0.838  0.3518  0.0925 -0.4738
 8394TIP3    H146673   5.887   5.162   0.788  1.8844  0.0054  1.7367
 8394TIP3    H246674   5.757   5.220   0.841  1.5962  0.8846  0.1507
 8395TIP3   OH246675   3.945   1.352   5.359  0.4222 -0.2339  0.2262
 8395TIP3    H146676   4.028   1.400   5.348 -0.0677  0.5040 -0.2996
 8395TIP3    H246677   3.933   1.348   5.454  1.4726 -1.0846  0.3538
 8396TIP3   OH246678   2.478   2.492   0.747  0.1386  0.3239 -0.5722
 8396TIP3    H146679   2.462   2.452   0.833 -0.5962 -0.1850 -0.9383
 8396TIP3    H246680   2.398   2.541   0.728 -1.3387 -2.6174 -2.6347
 8397TIP3   OH246681   4.143   5.487  13.573  0.4330 -1.1775 -0.4795
 8397TIP3    H146682   4.142   5.397  13.543  0.8001 -1.7060  1.0197
 8397TIP3    H246683   4.222   5.494  13.627  1.0468  0.3670 -1.4973
 8398TIP3   OH246684   1.653   3.505  11.810  0.4414 -0.0461 -0.5904
 8398TIP3    H146685   1.739   3.501  11.768  0.4594  0.5992 -0.6253
 8398TIP3    H246686   1.657   3.440  11.880  0.5177 -0.9354 -1.3881
 8399TIP3   OH246687   4.898   3.758  13.824 -0.6453  0.3129 -0.1327
 8399TIP3    H146688   4.955   3.829  13.853 -1.4622  2.3662 -3.0628
 8399TIP3    H246689   4.817   3.770  13.874 -0.0885  0.1707  0.8201
 8400TIP3   OH246690   6.406   2.074  13.557  0.0938 -0.4080 -0.9923
 8400TIP3    H146691   6.380   2.137  13.490  0.9390 -0.0523 -0.9922
 8400TIP3    H246692   6.327   2.062  13.610  0.0913  1.1404 -0.6077
 8401TIP3   OH246693   1.992   6.890  13.942 -0.7586  0.3404  0.4099
 8401TIP3    H146694   2.078   6.872  13.979 -1.4915  1.7042  3.0045
 8401TIP3    H246695   2.007   6.892  13.847  2.3088  1.5798  0.7943
 8402TIP3   OH246696   5.836   2.730   2.278  0.2273  0.0047 -0.1375
 8402TIP3    H146697   5.849   2.741   2.184  0.0493  2.8602  0.0890
 8402TIP3    H246698   5.844   2.818   2.314 -1.2853 -0.7681  2.3529
 8403TIP3   OH246699   0.041   0.794   5.516 -0.1771  0.5852 -0.1384
 8403TIP3    H146700   0.024   0.849   5.440 -1.8823  1.4245  0.7770
 8403TIP3    H246701   0.117   0.834   5.558 -1.5310  2.5037  0.6527
 8404TIP3   OH246702   5.938   4.444   0.722  0.1639  1.1023  0.0908
 8404TIP3    H146703   6.012   4.481   0.676  1.3356  0.0945  1.0873
 8404TIP3    H246704   5.959   4.456   0.815 -1.1940  1.3043  0.3962
 8405TIP3   OH246705   3.158   4.925  11.930 -0.0390 -0.0503 -0.2271
 8405TIP3    H146706   3.144   4.849  11.874 -1.2450  0.4438 -0.6307
 8405TIP3    H246707   3.146   4.891  12.019  2.8803 -1.0612 -0.1059
 8406TIP3   OH246708   0.658   0.742   4.673 -0.0785  0.2324  0.2406
 8406TIP3    H146709   0.648   0.755   4.579 -0.0212 -2.6728 -0.2601
 8406TIP3    H246710   0.723   0.673   4.681 -1.7781 -1.2589  2.2924
 8407TIP3   OH246711   3.971   3.150  11.960 -0.1910  0.4262 -0.0711
 8407TIP3    H146712   3.876   3.162  11.968 -0.6575 -2.1330 -0.8834
 8407TIP3    H246713   3.992   3.086  12.027  1.3682  2.3330  1.3746
 8408TIP3   OH246714   6.372   5.940   3.265 -0.5142 -0.0315 -0.3076
 8408TIP3    H146715   6.429   6.004   3.223  1.5438  0.7598  3.2646
 8408TIP3    H246716   6.298   5.991   3.298  0.1869  0.2680  0.8903
 8409TIP3   OH246717   4.411   4.970  10.725  0.1467 -0.4853  0.2371
 8409TIP3    H146718   4.485   4.934  10.774  2.1799  2.2407 -0.5678
 8409TIP3    H246719   4.451   5.008  10.647 -2.4428 -0.7513 -1.3250
 8410TIP3   OH246720   3.293   4.158   1.391  0.0570  0.0764 -0.1999
 8410TIP3    H146721   3.299   4.226   1.323  0.8124  0.2244  0.0003
 8410TIP3    H246722   3.199   4.148   1.407 -0.0627  1.2432 -0.0676
 8411TIP3   OH246723   4.906   0.113   5.091 -0.1761  0.2281 -0.6900
 8411TIP3    H146724   4.834   0.051   5.094 -1.0479  1.2593  0.9356
 8411TIP3    H246725   4.984   0.060   5.105 -0.7558 -0.6754 -0.7913
 8412TIP3   OH246726   4.763   4.185  11.170  0.0273  0.2471  0.3468
 8412TIP3    H146727   4.768   4.161  11.077 -1.7696 -0.5693  0.4294
 8412TIP3    H246728   4.832   4.131  11.211 -0.8966 -1.4047 -0.1620
 8413TIP3   OH246729   4.746   4.389   5.826  0.1598  0.7788 -0.4396
 8413TIP3    H146730   4.839   4.404   5.812  0.4020  0.0309  0.2690
 8413TIP3    H246731   4.739   4.295   5.844 -0.6904  0.8741 -0.1938
 8414TIP3   OH246732   4.159   5.060  12.061  0.0162 -0.5329 -0.0407
 8414TIP3    H146733   4.150   5.061  11.966 -0.9031 -0.4674  0.0396
 8414TIP3    H246734   4.089   5.117  12.093  1.0205  0.3698  0.6377
 8415TIP3   OH246735   2.966   4.023  12.385  0.1709 -0.0106 -0.2730
 8415TIP3    H146736   2.962   3.937  12.343 -1.1483 -0.8187  1.4158
 8415TIP3    H246737   3.044   4.019  12.440  0.3488  0.0496 -0.5162
 8416TIP3   OH246738   3.769   2.001   3.091 -0.7666 -0.2375  0.1734
 8416TIP3    H146739   3.843   1.980   3.033 -2.1168  0.3818 -1.8967
 8416TIP3    H246740   3.753   1.920   3.140  1.3815 -0.3102  0.8456
 8417TIP3   OH246741   6.465   2.846  15.334  0.0583 -0.4374  0.2474
 8417TIP3    H146742   6.434   2.907  15.401  0.6456  1.1276 -0.8548
 8417TIP3    H246743   6.552   2.820  15.365  0.0908 -0.1746  0.3792
 8418TIP3   OH246744   2.177   1.084  13.235 -0.3945  0.0327  0.3601
 8418TIP3    H146745   2.245   1.141  13.270  1.5232 -0.8680 -1.6955
 8418TIP3    H246746   2.102   1.142  13.220  0.0368  1.1404  2.1992
 8419TIP3   OH246747   4.472   0.264  12.680  0.3486  0.3936  0.3788
 8419TIP3    H146748   4.474   0.233  12.589 -1.5187 -1.7926  0.9789
 8419TIP3    H246749   4.561   0.251  12.712  1.0400  1.2158 -1.1097
 8420TIP3   OH246750   4.469   6.347  10.812 -0.1879  0.1650  0.1860
 8420TIP3    H146751   4.445   6.324  10.722 -0.8030 -0.7815  0.5797
 8420TIP3    H246752   4.530   6.420  10.802  1.0586 -0.9863 -1.0719
 8421TIP3   OH246753   3.419   6.561  11.911 -0.7428 -0.4118  0.8119
 8421TIP3    H146754   3.425   6.652  11.885 -0.0451  0.1323  2.6854
 8421TIP3    H246755   3.338   6.530  11.872 -0.2944  0.5771 -1.0134
 8422TIP3   OH246756   1.187   6.458   9.971  0.0058  0.7664  0.5899
 8422TIP3    H146757   1.273   6.486  10.001  1.0144 -0.5641 -0.8972
 8422TIP3    H246758   1.178   6.499   9.885 -0.5846  0.4122  0.4793
 8423TIP3   OH246759   6.027   2.414  13.779  0.2945 -0.2029  0.0717
 8423TIP3    H146760   6.108   2.372  13.808  0.5790 -1.2665 -2.0402
 8423TIP3    H246761   5.973   2.420  13.858  2.2163  0.1014  1.4340
 8424TIP3   OH246762   2.272   6.634   5.524  0.1810  0.3874 -0.3522
 8424TIP3    H146763   2.355   6.598   5.495 -0.0184  1.1277 -1.9349
 8424TIP3    H246764   2.217   6.557   5.540  1.3736 -0.1469  1.5394
 8425TIP3   OH246765   3.179   2.904  11.986 -0.4093 -0.3873 -0.4073
 8425TIP3    H146766   3.217   2.945  11.909 -2.1232 -1.4226 -1.8592
 8425TIP3    H246767   3.132   2.975  12.030  0.9467  0.3065 -0.0034
 8426TIP3   OH246768   0.192   6.650   9.643  0.1867  0.5111 -0.3402
 8426TIP3    H146769   0.148   6.669   9.560 -0.7931 -0.5930 -0.1160
 8426TIP3    H246770   0.272   6.702   9.641 -1.3328  2.9576 -0.5757
 8427TIP3   OH246771   5.671   6.235   1.194 -0.0187  0.1357  0.3286
 8427TIP3    H146772   5.701   6.304   1.136  0.2216 -1.7931 -1.9686
 8427TIP3    H246773   5.751   6.202   1.236  0.5836 -1.7045 -2.0565
 8428TIP3   OH246774   2.818   3.642  11.992 -0.3893  0.3677 -0.4285
 8428TIP3    H146775   2.837   3.736  11.985 -1.4903  0.5600 -1.0084
 8428TIP3    H246776   2.747   3.627  11.930  0.3276 -1.0275 -0.9486
 8429TIP3   OH246777   3.527   2.132  12.064 -0.3901  0.3490  0.2234
 8429TIP3    H146778   3.619   2.108  12.071  0.1664  2.4754  1.0068
 8429TIP3    H246779   3.512   2.191  12.138 -2.2184  0.5322 -0.2527
 8430TIP3   OH246780   7.098   5.345   1.631  0.0830  0.3931  0.3369
 8430TIP3    H146781   7.190   5.337   1.604  0.2335 -0.7873  1.1548
 8430TIP3    H246782   7.094   5.428   1.677  0.7048  0.5240  0.1683
 8431TIP3   OH246783   2.345   2.603   3.110  0.0884  0.3807 -0.3704
 8431TIP3    H146784   2.416   2.663   3.086 -0.0869  0.5140 -0.5689
 8431TIP3    H246785   2.268   2.640   3.066  0.1156 -0.3740 -1.0626
 8432TIP3   OH246786   0.947   2.763  13.168  0.4205 -0.2742  0.4705
 8432TIP3    H146787   1.006   2.798  13.101 -0.3562 -0.2472 -0.2170
 8432TIP3    H246788   0.877   2.722  13.118 -0.3429  0.0361  1.2775
 8433TIP3   OH246789   1.637   6.744   3.430 -0.3047 -0.1467  0.5204
 8433TIP3    H146790   1.618   6.717   3.340 -0.9589 -0.7372  0.8258
 8433TIP3    H246791   1.712   6.691   3.456 -1.3716 -1.4698  1.0012
 8434TIP3   OH246792   4.824   7.083   1.589  0.0629 -0.3149 -0.2185
 8434TIP3    H146793   4.802   7.176   1.589 -1.2398 -0.5123 -2.7835
 8434TIP3    H246794   4.747   7.039   1.624  0.3073 -0.4825  0.1139
 8435TIP3   OH246795   3.870   2.369   9.950  0.4703  0.4122  0.0215
 8435TIP3    H146796   3.895   2.371  10.043  0.5785  1.7938 -0.0304
 8435TIP3    H246797   3.789   2.318   9.949  0.8365 -0.2216  0.7710
 8436TIP3   OH246798   6.456   1.555  10.492  0.0126 -0.1439  0.1466
 8436TIP3    H146799   6.524   1.571  10.558 -0.6365 -0.9443  1.0436
 8436TIP3    H246800   6.504   1.521  10.416  0.7749  0.7835  0.1867
 8437TIP3   OH246801   4.650   6.605  15.054  0.0553  0.2135  0.0622
 8437TIP3    H146802   4.629   6.618  15.147  0.2165  0.7571  0.0278
 8437TIP3    H246803   4.701   6.524  15.052 -0.4066 -0.0904  0.3807
 8438TIP3   OH246804   5.914   0.965   3.682 -0.3340 -0.0711 -0.8691
 8438TIP3    H146805   5.921   1.061   3.682  0.9093 -0.1385 -0.0811
 8438TIP3    H246806   5.886   0.943   3.771 -1.6611 -0.4051 -1.3428
 8439TIP3   OH246807   4.335   1.624   4.567  0.1065 -0.2446  0.4574
 8439TIP3    H146808   4.412   1.568   4.576  0.6433  0.7041  2.0184
 8439TIP3    H246809   4.370   1.707   4.534 -0.1779  0.3016  1.4975
 8440TIP3   OH246810   4.047   4.936  11.370  0.1275  0.2222  0.1449
 8440TIP3    H146811   4.024   4.963  11.458 -0.5126 -1.3997  0.5078
 8440TIP3    H246812   4.110   4.865  11.382  0.6592  0.5142 -0.7369
 8441TIP3   OH246813   0.770   5.199   9.663  0.0718  0.3881  0.4818
 8441TIP3    H146814   0.762   5.257   9.739  0.4682  0.1975  0.6765
 8441TIP3    H246815   0.857   5.219   9.627  0.9601 -1.2402  1.5502
 8442TIP3   OH246816   5.425   2.252   1.381 -0.5151  0.5159  0.2754
 8442TIP3    H146817   5.379   2.205   1.450  2.2583 -0.4771  1.5839
 8442TIP3    H246818   5.392   2.214   1.300 -1.3834 -0.7292  1.1788
 8443TIP3   OH246819   4.706   1.802  13.131 -0.3626  0.0493  0.2226
 8443TIP3    H146820   4.644   1.864  13.169 -0.0637  0.2594  0.3668
 8443TIP3    H246821   4.768   1.784  13.201  0.8910  1.3566 -0.5127
 8444TIP3   OH246822   2.605   6.706  13.848  0.1944 -0.3652  0.5854
 8444TIP3    H146823   2.677   6.708  13.785  0.4535  0.8162  0.8973
 8444TIP3    H246824   2.527   6.722  13.796  0.4233  0.7534  0.5643
 8445TIP3   OH246825   6.919   4.994  15.731  0.3819 -0.5823  0.1071
 8445TIP3    H146826   6.900   4.954  15.647  1.8141 -0.8264 -0.1311
 8445TIP3    H246827   6.941   4.920  15.788 -1.6487 -0.5303  1.0404
 8446TIP3   OH246828   2.548   5.324  15.017  0.1197  0.4078  0.1489
 8446TIP3    H146829   2.485   5.385  14.978 -1.3681 -2.2099 -1.8463
 8446TIP3    H246830   2.621   5.322  14.956  0.2371  0.3420  0.2913
 8447TIP3   OH246831   2.485   1.532  15.200  0.3564 -0.4961  0.2267
 8447TIP3    H146832   2.496   1.542  15.106 -0.4257  1.9617  0.3149
 8447TIP3    H246833   2.504   1.619  15.235 -1.7968 -0.6776  2.0594
 8448TIP3   OH246834   4.639   3.131   0.558 -0.1949  0.2840  0.0076
 8448TIP3    H146835   4.733   3.148   0.559 -0.1369  0.1028 -1.1351
 8448TIP3    H246836   4.621   3.094   0.644  0.4184  2.1559  1.0049
 8449TIP3   OH246837   2.107   2.045   1.190 -0.2702 -0.3429 -0.1496
 8449TIP3    H146838   2.037   2.107   1.169 -0.0943  0.1840  0.7581
 8449TIP3    H246839   2.064   1.978   1.244 -0.0436  0.0839  0.5697
 8450TIP3   OH246840   1.232   5.823  13.376  0.0655  0.2433  0.1083
 8450TIP3    H146841   1.166   5.892  13.384  0.1464  0.3883 -0.4563
 8450TIP3    H246842   1.243   5.810  13.282  1.3348  0.7053  0.1659
 8451TIP3   OH246843   6.271   2.704  11.755 -0.2410 -0.5136  0.2040
 8451TIP3    H146844   6.266   2.744  11.668 -0.0094 -0.1897  0.3382
 8451TIP3    H246845   6.200   2.641  11.756  0.5923 -1.5124 -0.7251
 8452TIP3   OH246846   6.226   6.648  12.956 -0.1905  0.2190  0.5712
 8452TIP3    H146847   6.297   6.623  13.015  0.1653  1.6638  0.7817
 8452TIP3    H246848   6.211   6.570  12.903  1.5703 -0.1167  0.4997
 8453TIP3   OH246849   4.219   2.429  11.696  0.6663  0.2057 -0.0042
 8453TIP3    H146850   4.311   2.454  11.691  0.3987  1.7222  1.5708
 8453TIP3    H246851   4.205   2.406  11.788 -0.4586 -0.3212 -0.2809
 8454TIP3   OH246852   5.059   2.234  13.717 -0.0311 -0.6834 -0.2894
 8454TIP3    H146853   4.971   2.227  13.754 -0.1555 -1.7805 -0.7576
 8454TIP3    H246854   5.116   2.245  13.794 -0.6895  1.5965 -0.0753
 8455TIP3   OH246855   1.750   4.910  11.536 -0.3194  0.0867 -0.4592
 8455TIP3    H146856   1.820   4.844  11.537 -1.3214 -1.4464 -5.3621
 8455TIP3    H246857   1.796   4.993  11.525  0.8376 -0.5856 -0.9223
 8456TIP3   OH246858   0.890   5.264  14.235 -0.6446  0.2264  0.3929
 8456TIP3    H146859   0.883   5.181  14.187 -0.5550  0.8876 -0.7744
 8456TIP3    H246860   0.804   5.275  14.276 -0.3757 -0.8822  1.3085
 8457TIP3   OH246861   3.268   5.711  14.358  0.0446 -0.2994  0.0457
 8457TIP3    H146862   3.248   5.638  14.299  1.5162 -1.4498  0.8877
 8457TIP3    H246863   3.187   5.724  14.407 -0.0699 -1.8543  0.3334
 8458TIP3   OH246864   5.544   2.828  14.274 -0.0976 -0.4501  0.0654
 8458TIP3    H146865   5.513   2.750  14.228 -0.9398 -0.2509  0.2719
 8458TIP3    H246866   5.639   2.829  14.260 -0.0916 -1.4666  0.0072
 8459TIP3   OH246867   4.751   5.278   1.173  0.6669 -0.1985  0.5264
 8459TIP3    H146868   4.840   5.291   1.140  0.4601 -0.6244 -0.2428
 8459TIP3    H246869   4.741   5.183   1.174 -0.0284 -0.1333 -0.0936
 8460TIP3   OH246870   6.524   0.590  14.719  0.0363  0.1613  0.1559
 8460TIP3    H146871   6.495   0.619  14.633  3.0160 -0.4606 -1.1766
 8460TIP3    H246872   6.595   0.651  14.742  0.4002 -0.6984  1.3989
 8461TIP3   OH246873   6.441   2.455  11.128  0.5291 -0.8767  0.1948
 8461TIP3    H146874   6.509   2.461  11.061  0.1703  1.3978 -0.0661
 8461TIP3    H246875   6.435   2.544  11.164 -1.6791 -1.2163  0.8307
 8462TIP3   OH246876   0.198   3.898   2.518 -0.2003 -0.3742 -0.3540
 8462TIP3    H146877   0.147   3.880   2.598  0.2293 -0.2697 -0.0508
 8462TIP3    H246878   0.139   3.949   2.463 -0.4631 -0.3402 -0.0462
 8463TIP3   OH246879   3.030   3.127  12.038  0.0945  0.3680  0.5656
 8463TIP3    H146880   3.026   3.183  11.961 -1.0569  0.7586  0.8832
 8463TIP3    H246881   3.118   3.142  12.074  0.4065  0.6710 -0.3004
 8464TIP3   OH246882   0.272   2.268   0.898 -0.5314 -0.2112 -0.3613
 8464TIP3    H146883   0.190   2.310   0.871 -1.3181 -0.6549  1.2269
 8464TIP3    H246884   0.338   2.308   0.842 -1.6018  1.3741 -0.5741
 8465TIP3   OH246885   6.089   2.907  13.140  0.7378  0.5216 -0.3579
 8465TIP3    H146886   6.119   2.852  13.068 -0.5027 -0.1014 -0.4397
 8465TIP3    H246887   6.160   2.969  13.156  0.9948  0.7242 -2.1679
 8466TIP3   OH246888   5.489   3.723  12.163  0.1639 -0.4386  0.1758
 8466TIP3    H146889   5.449   3.800  12.203  3.0207  1.2591 -0.0346
 8466TIP3    H246890   5.522   3.753  12.079  2.0567 -1.6426  0.4240
 8467TIP3   OH246891   1.405   5.405   0.238  0.0022  0.3419  0.4473
 8467TIP3    H146892   1.333   5.466   0.226 -1.1641 -0.8803  0.9215
 8467TIP3    H246893   1.382   5.329   0.184  1.9679  0.7197 -1.0358
 8468TIP3   OH246894   5.273   2.646   4.754  0.0514 -0.3642  0.7781
 8468TIP3    H146895   5.259   2.679   4.843  0.6377  1.8049  0.1384
 8468TIP3    H246896   5.364   2.670   4.734  0.6682 -2.8085  0.3459
 8469TIP3   OH246897   6.495   2.230  11.294 -0.0460 -0.3175 -0.3739
 8469TIP3    H146898   6.523   2.303  11.239  0.5385 -0.5534 -0.3934
 8469TIP3    H246899   6.470   2.270  11.377  0.2489 -0.0916 -0.3942
 8470TIP3   OH246900   3.532   1.530  12.352  0.0565 -0.4946 -0.3644
 8470TIP3    H146901   3.512   1.513  12.260 -0.1198  0.8077 -0.5779
 8470TIP3    H246902   3.625   1.555  12.353  1.2394 -4.2692  0.3399
 8471TIP3   OH246903   2.298   3.093   0.034 -0.0876  0.1458  0.1358
 8471TIP3    H146904   2.235   3.023   0.016  0.4332 -0.8514  1.9388
 8471TIP3    H246905   2.261   3.170  -0.009 -1.5438 -0.8477 -0.4684
 8472TIP3   OH246906   1.279   5.347   2.162  0.1366  0.3245 -0.0975
 8472TIP3    H146907   1.334   5.303   2.097 -0.7127 -1.3487  0.2618
 8472TIP3    H246908   1.207   5.286   2.178  0.5790  0.4263  2.7976
 8473TIP3   OH246909   4.607   2.637  12.396 -0.5141  0.1095  1.0307
 8473TIP3    H146910   4.661   2.713  12.372 -3.9605  2.0626 -1.2806
 8473TIP3    H246911   4.620   2.575  12.324 -2.2037  1.1206 -0.1904
 8474TIP3   OH246912   2.445   6.361  10.643 -0.2904  0.1522 -0.2231
 8474TIP3    H146913   2.471   6.449  10.670 -0.2905  0.1585 -0.2429
 8474TIP3    H246914   2.507   6.303  10.687 -1.1201  0.0632  0.8642
 8475TIP3   OH246915   3.915   6.260  12.861 -0.2773 -0.8748  0.0414
 8475TIP3    H146916   3.944   6.183  12.810  2.7565  0.3327 -0.2714
 8475TIP3    H246917   3.987   6.276  12.922 -1.2694  1.1761  0.7385
 8476TIP3   OH246918   5.608   3.807   2.177  0.0453 -0.3022 -0.5656
 8476TIP3    H146919   5.642   3.724   2.209  0.4304  0.6619  1.7480
 8476TIP3    H246920   5.676   3.839   2.117  1.3894 -0.2573  0.9115
 8477TIP3   OH246921   0.215   0.842  14.214  0.2531  0.4269  0.8088
 8477TIP3    H146922   0.284   0.783  14.242  0.5804  0.2982 -0.2267
 8477TIP3    H246923   0.199   0.819  14.122 -0.7776  0.8226  0.8716
 8478TIP3   OH246924   4.459   4.248  14.339  0.1618 -0.0294 -0.0194
 8478TIP3    H146925   4.456   4.153  14.343  1.1143 -0.1893 -1.8601
 8478TIP3    H246926   4.553   4.269  14.333 -0.0771  0.7639 -2.6240
 8479TIP3   OH246927   0.220   0.026  13.485 -1.0575  0.0721  0.0978
 8479TIP3    H146928   0.277   0.092  13.446 -2.1971  0.5550 -0.8072
 8479TIP3    H246929   0.278  -0.024  13.543  0.1281  0.9600 -0.2710
 8480TIP3   OH246930   4.265   0.548  12.061 -0.1527  0.1633 -0.2433
 8480TIP3    H146931   4.237   0.627  12.107 -1.1783 -0.2658 -0.1130
 8480TIP3    H246932   4.187   0.492  12.058  0.5935 -0.9131 -0.1963
 8481TIP3   OH246933   1.469   4.193  12.860 -0.0610 -0.3238 -0.0424
 8481TIP3    H146934   1.400   4.257  12.877  0.7054  0.8106 -1.0096
 8481TIP3    H246935   1.506   4.175  12.946 -0.1721  0.7010  0.2365
 8482TIP3   OH246936   1.991   2.512   9.597 -1.2058 -0.4240 -0.2926
 8482TIP3    H146937   2.015   2.562   9.519 -0.9717 -0.4822 -0.2586
 8482TIP3    H246938   1.916   2.559   9.634  0.0306  0.8716  0.6681
 8483TIP3   OH246939   6.566   4.746  13.367  0.2424  0.0255 -0.4782
 8483TIP3    H146940   6.544   4.839  13.357  1.6950  0.3043 -1.5358
 8483TIP3    H246941   6.493   4.700  13.327 -1.7246  0.5456  2.2371
 8484TIP3   OH246942   3.439   3.794  14.079 -0.8493  0.7777 -0.2169
 8484TIP3    H146943   3.498   3.869  14.088 -0.6034  0.4503  1.1792
 8484TIP3    H246944   3.391   3.792  14.162 -1.1657 -0.3485 -0.4164
 8485TIP3   OH246945   6.900   3.165  13.982  0.1454  0.4028  0.1405
 8485TIP3    H146946   6.978   3.115  14.008 -1.0231 -0.8016  1.5374
 8485TIP3    H246947   6.904   3.168  13.887  1.2490 -0.7320  0.1237
 8486TIP3   OH246948   5.898   5.451   1.520 -0.0710  0.6379  0.2489
 8486TIP3    H146949   5.860   5.454   1.608  1.5652 -1.4818  1.1454
 8486TIP3    H246950   5.828   5.480   1.462 -1.1568  2.2634  2.2466
 8487TIP3   OH246951   2.063   3.916  11.420 -0.1527  0.5709 -0.3829
 8487TIP3    H146952   2.032   4.005  11.407 -2.8945 -0.4927 -1.8180
 8487TIP3    H246953   2.005   3.880  11.487 -1.0959 -1.0255 -1.9961
 8488TIP3   OH246954   4.445   0.755   1.121 -0.1120  0.4644  0.2218
 8488TIP3    H146955   4.359   0.728   1.089 -0.2870 -2.3927  2.6332
 8488TIP3    H246956   4.431   0.773   1.214  1.9567 -0.6991  0.8213
 8489TIP3   OH246957   6.257   7.034  12.435 -0.3508 -0.1206 -1.0287
 8489TIP3    H146958   6.168   7.039  12.469 -0.3011  0.5794 -0.9927
 8489TIP3    H246959   6.291   6.951  12.468 -1.0167 -0.4285 -1.1145
 8490TIP3   OH246960   6.597   2.434   2.046 -0.3036  0.8382 -0.1821
 8490TIP3    H146961   6.656   2.403   1.977 -1.9533 -0.0590 -1.2283
 8490TIP3    H246962   6.653   2.490   2.101  1.2736  0.8421 -1.7000
 8491TIP3   OH246963   1.078   0.572   3.885  0.2699  0.4907 -0.0905
 8491TIP3    H146964   1.074   0.623   3.966  1.1914 -0.1975  0.4163
 8491TIP3    H246965   1.121   0.490   3.911 -0.8496 -0.4011 -0.9533
 8492TIP3   OH246966   1.334   3.259  13.860 -0.2302  0.0994 -0.0753
 8492TIP3    H146967   1.395   3.296  13.924 -0.8622  0.3333  0.4030
 8492TIP3    H246968   1.248   3.290  13.888 -0.5390  0.0699 -0.9481
 8493TIP3   OH246969   7.005   4.016   4.152  0.1276 -0.5195  0.4127
 8493TIP3    H146970   6.977   4.083   4.214  1.5410  0.2093  0.3120
 8493TIP3    H246971   6.939   4.018   4.083 -0.5837 -0.1962  1.0949
 8494TIP3   OH246972   2.724   6.352  11.159  0.1205 -0.3515 -0.3589
 8494TIP3    H146973   2.817   6.376  11.158  0.3590 -1.2558 -0.5499
 8494TIP3    H246974   2.723   6.260  11.134 -0.6253 -0.9778  1.7416
 8495TIP3   OH246975   0.255   4.673   1.422 -0.1080  0.2336 -0.6329
 8495TIP3    H146976   0.247   4.585   1.386 -0.1598 -0.4424  0.9605
 8495TIP3    H246977   0.286   4.726   1.349  0.0619 -1.1268 -1.5820
 8496TIP3   OH246978   5.571   0.214   1.988 -0.2709 -0.0778 -0.5755
 8496TIP3    H146979   5.599   0.224   1.897 -1.1807 -0.0224 -0.8615
 8496TIP3    H246980   5.475   0.212   1.984 -0.3060 -1.9890  0.1946
 8497TIP3   OH246981   2.681   3.236  11.731  0.4644  0.2926 -0.1297
 8497TIP3    H146982   2.703   3.144  11.746 -0.1590  0.1214 -0.2232
 8497TIP3    H246983   2.725   3.283  11.801  0.6481 -0.0948  0.0195
 8498TIP3   OH246984   5.473   3.362   2.489 -0.1575 -0.6206 -0.1031
 8498TIP3    H146985   5.528   3.440   2.483  1.0020 -1.3836  0.1507
 8498TIP3    H246986   5.419   3.363   2.410 -0.2836  0.5188 -0.0123
 8499TIP3   OH246987   2.869   1.942   2.256 -0.1924  0.4898 -0.1090
 8499TIP3    H146988   2.919   1.923   2.335 -1.5260  2.5033  1.3353
 8499TIP3    H246989   2.791   1.887   2.263  0.3418 -0.3735 -0.7796
 8500TIP3   OH246990   3.959   2.661  11.471 -0.5892  0.2663  0.2111
 8500TIP3    H146991   4.009   2.580  11.477 -0.2871  0.2884 -1.5695
 8500TIP3    H246992   4.026   2.729  11.461 -0.9084  0.4727 -0.5709
 8501TIP3   OH246993   1.974   4.761   0.423 -0.5597 -0.1838  0.0423
 8501TIP3    H146994   2.035   4.821   0.379 -1.0493  0.8564  0.7217
 8501TIP3    H246995   2.013   4.675   0.413  1.4704  0.5378  1.1728
 8502TIP3   OH246996   0.426   4.613  10.522  0.4898  0.3572 -0.3368
 8502TIP3    H146997   0.492   4.594  10.456 -0.1662 -0.8907 -0.6594
 8502TIP3    H246998   0.356   4.657  10.474  1.1170  1.8445  0.0365
 8503TIP3   OH246999   0.533   1.956  13.172 -0.2280 -0.6024 -0.6807
 8503TIP3    H147000   0.501   1.991  13.089 -0.4909 -0.9587 -0.7307
 8503TIP3    H247001   0.512   2.023  13.237 -0.4597 -0.5365 -0.8246
 8504TIP3   OH247002   4.427   1.573   1.839  0.6731  0.0042 -0.0560
 8504TIP3    H147003   4.465   1.497   1.795 -0.4199  0.3316 -1.6323
 8504TIP3    H247004   4.345   1.589   1.793  0.0924  1.1614  1.3088
 8505TIP3   OH247005   2.870   4.620   3.839  0.4807 -0.5128  0.0232
 8505TIP3    H147006   2.900   4.679   3.771 -1.8747  0.1773 -0.4988
 8505TIP3    H247007   2.943   4.616   3.901  1.5701  1.0983 -1.0793
 8506TIP3   OH247008   4.282   3.252   3.349 -0.8389 -0.5204  0.1406
 8506TIP3    H147009   4.207   3.223   3.400 -0.9467 -1.0438 -0.3026
 8506TIP3    H247010   4.254   3.335   3.310 -0.5613  0.1709  1.3407
 8507TIP3   OH247011   2.787   0.266   0.719 -0.3886 -0.3192  0.4003
 8507TIP3    H147012   2.811   0.294   0.807 -1.7693 -2.2780  1.4633
 8507TIP3    H247013   2.857   0.206   0.692 -1.2510 -1.7649  1.2736
 8508TIP3   OH247014   4.899   6.571   0.672  0.5728 -0.3431  0.1947
 8508TIP3    H147015   4.941   6.487   0.686 -0.4743 -0.9556 -0.2606
 8508TIP3    H247016   4.967   6.626   0.633  2.2546  0.0397  3.3378
 8509TIP3   OH247017   1.820   3.158  13.243  0.3089  0.3807 -0.1786
 8509TIP3    H147018   1.889   3.116  13.294 -0.1703 -0.5159 -0.2530
 8509TIP3    H247019   1.762   3.086  13.217 -1.3753  1.2590  0.9718
 8510TIP3   OH247020   6.773   2.717   5.072 -0.3458  0.2531 -0.3558
 8510TIP3    H147021   6.750   2.659   5.145 -0.2920 -0.1289 -0.6343
 8510TIP3    H247022   6.689   2.748   5.038 -0.3496  0.8751  0.2167
 8511TIP3   OH247023   2.075   3.272  10.933 -0.1176 -0.1808  0.5521
 8511TIP3    H147024   2.141   3.275  10.864 -0.4106  1.2154  0.3122
 8511TIP3    H247025   2.124   3.281  11.014  0.0212  0.5159  0.3928
 8512TIP3   OH247026   5.657   2.513   1.698  0.0552 -0.3343 -0.2931
 8512TIP3    H147027   5.576   2.552   1.664 -0.4185 -0.5515  0.5498
 8512TIP3    H247028   5.726   2.574   1.673 -0.3018 -0.3496 -1.3955
 8513TIP3   OH247029   4.993   1.173   1.712  0.8099 -0.2837 -1.1949
 8513TIP3    H147030   5.050   1.098   1.696  0.7590 -0.8199  0.8470
 8513TIP3    H247031   4.916   1.135   1.755  1.2859  1.0186  0.9264
 8514TIP3   OH247032   1.178   0.522  10.450  0.1309 -0.1583  0.1149
 8514TIP3    H147033   1.257   0.489  10.408  0.7636 -0.6211  1.5976
 8514TIP3    H247034   1.171   0.613  10.420  2.1217  0.3917  1.1291
 8515TIP3   OH247035   3.147   3.226   0.391 -0.8365  0.2440 -0.8084
 8515TIP3    H147036   3.156   3.312   0.433 -0.9398 -0.6675  1.1959
 8515TIP3    H247037   3.065   3.232   0.342 -0.2632  1.6406 -1.6815
 8516TIP3   OH247038   1.217   6.269   1.309 -0.0041 -0.6667  0.4779
 8516TIP3    H147039   1.160   6.338   1.346  0.4274 -0.0894  0.0878
 8516TIP3    H247040   1.297   6.315   1.286 -0.1148 -1.1005 -0.8103
 8517TIP3   OH247041   6.663   5.452   3.543 -0.8610  0.0367 -0.1842
 8517TIP3    H147042   6.754   5.431   3.563 -0.6050  1.1241 -0.1037
 8517TIP3    H247043   6.613   5.412   3.614 -0.4910 -0.8808 -0.4279
 8518TIP3   OH247044   5.328   4.371  15.173 -0.2447 -0.4906 -0.1665
 8518TIP3    H147045   5.250   4.318  15.159 -0.2229 -1.2895  2.2492
 8518TIP3    H247046   5.345   4.364  15.267  2.0977  0.5657 -0.4415
 8519TIP3   OH247047   4.546   3.844   4.689  0.1242 -0.0393  0.4735
 8519TIP3    H147048   4.478   3.910   4.706 -0.0389  0.1831 -0.9704
 8519TIP3    H247049   4.525   3.809   4.603  1.5626 -0.3163  0.2151
 8520TIP3   OH247050   6.363   6.863   1.710  0.1278  0.5812 -0.0221
 8520TIP3    H147051   6.311   6.943   1.714 -0.1259  0.4361 -0.4073
 8520TIP3    H247052   6.435   6.879   1.772 -0.8363  0.4339  1.1777
 8521TIP3   OH247053   1.336   1.829  15.547  0.3682  0.1072 -0.2253
 8521TIP3    H147054   1.304   1.745  15.514  0.0379 -0.3297  1.1347
 8521TIP3    H247055   1.427   1.810  15.573  0.4915  0.3409 -0.4798
 8522TIP3   OH247056   6.791   5.098  10.366 -0.0422  0.2794  0.3421
 8522TIP3    H147057   6.700   5.071  10.365 -0.3759  1.3401  0.8470
 8522TIP3    H247058   6.836   5.028  10.415 -0.2960 -1.0216 -1.2041
 8523TIP3   OH247059   0.571   4.096  13.657 -0.0026 -0.2273  0.0565
 8523TIP3    H147060   0.493   4.149  13.668 -2.0137 -2.8656 -0.3677
 8523TIP3    H247061   0.591   4.063  13.744 -0.5764 -1.0779 -0.1199
 8524TIP3   OH247062   5.752   4.745  12.134  0.4004 -0.5631  0.0122
 8524TIP3    H147063   5.737   4.817  12.194 -1.0305 -1.6706  1.0492
 8524TIP3    H247064   5.795   4.678  12.188  1.4388 -0.6276 -0.8569
 8525TIP3   OH247065   3.779   4.824  11.361  0.2646  0.1417  0.4572
 8525TIP3    H147066   3.860   4.796  11.317  0.1904  0.2973  0.2223
 8525TIP3    H247067   3.722   4.854  11.290 -0.3842 -0.8936  0.5156
 8526TIP3   OH247068   1.543   0.228  12.952  0.0792  0.5120 -1.1450
 8526TIP3    H147069   1.489   0.177  13.012  1.7099  0.7268  0.6189
 8526TIP3    H247070   1.483   0.257  12.883 -1.5774 -0.9101 -0.3634
 8527TIP3   OH247071   0.891   0.694  10.099 -0.7749 -0.2107  0.4353
 8527TIP3    H147072   0.931   0.635  10.036 -1.9514  0.4993 -1.0440
 8527TIP3    H247073   0.938   0.777  10.088 -0.0251 -0.4649  1.5464
 8528TIP3   OH247074   6.438   5.699  14.501 -0.4366  0.4037  0.4397
 8528TIP3    H147075   6.500   5.657  14.560  0.5431 -0.2223 -0.9796
 8528TIP3    H247076   6.469   5.790  14.493 -0.0672  0.2626  0.2398
 8529TIP3   OH247077   5.893   4.098  14.577 -0.6715  0.5705 -0.0018
 8529TIP3    H147078   5.915   4.031  14.513 -0.2060  0.7246 -0.0060
 8529TIP3    H247079   5.798   4.093  14.585 -0.4929 -1.8892  1.9490
 8530TIP3   OH247080   0.522   3.478  10.026 -0.1063 -0.2760  0.0027
 8530TIP3    H147081   0.532   3.419   9.951  2.4723 -0.0288  0.0749
 8530TIP3    H247082   0.569   3.557  10.001 -1.2600  0.7514  0.9673
 8531TIP3   OH247083   6.356   0.379   3.077 -0.3759  0.2219  0.2085
 8531TIP3    H147084   6.312   0.397   2.994  0.4794  0.4828 -0.2000
 8531TIP3    H247085   6.291   0.333   3.129 -0.2918 -1.8065 -1.3587
 8532TIP3   OH247086   3.388   5.916  13.054  0.0432 -0.5013 -0.1280
 8532TIP3    H147087   3.331   5.843  13.077  1.2477 -1.4506 -0.0936
 8532TIP3    H247088   3.409   5.903  12.962  0.9902 -0.7262  0.1048
 8533TIP3   OH247089   5.399   2.791  15.167 -0.3936  0.4391  0.0605
 8533TIP3    H147090   5.437   2.703  15.178 -0.9803 -0.1130 -1.9331
 8533TIP3    H247091   5.419   2.836  15.249  3.3964 -0.2475 -0.2992
 8534TIP3   OH247092   6.792   2.349   1.876 -0.5029 -0.5792  0.6607
 8534TIP3    H147093   6.850   2.276   1.893 -0.4187 -0.4987  0.7160
 8534TIP3    H247094   6.765   2.338   1.784  2.3979  1.3337 -0.5591
 8535TIP3   OH247095   7.040   0.090   2.749 -0.2318 -0.5044  0.1858
 8535TIP3    H147096   6.997   0.175   2.759 -0.9012 -0.6414 -1.3501
 8535TIP3    H247097   7.030   0.048   2.834 -0.7665  0.5531  0.6646
 8536TIP3   OH247098   0.080   0.631  13.610 -0.4232 -0.9049 -0.1387
 8536TIP3    H147099   0.036   0.597  13.688 -0.2782 -2.0092 -0.5194
 8536TIP3    H247100   0.086   0.725  13.625  0.4014 -1.1975  1.5874
 8537TIP3   OH247101   2.913   2.243   2.314  0.1898 -0.4551 -0.9113
 8537TIP3    H147102   2.889   2.152   2.295 -1.7030 -0.1672 -0.1491
 8537TIP3    H247103   2.885   2.291   2.235  1.6759 -0.5766 -1.5366
 8538TIP3   OH247104   1.312   0.502  11.268  0.2733  0.4419 -0.3391
 8538TIP3    H147105   1.222   0.531  11.278 -0.3834 -1.5583  0.1706
 8538TIP3    H247106   1.315   0.461  11.182  0.8965  1.1151 -0.6463
 8539TIP3   OH247107   6.822   6.259   4.462  0.6556 -0.3949  0.3235
 8539TIP3    H147108   6.893   6.320   4.441 -0.4293  0.4906 -0.9680
 8539TIP3    H247109   6.799   6.218   4.379 -2.7604  2.0718 -0.1887
 8540TIP3   OH247110   5.710   3.657  13.787 -0.5818 -0.0669  0.2609
 8540TIP3    H147111   5.766   3.581  13.771 -0.4428 -0.1346  1.0191
 8540TIP3    H247112   5.687   3.689  13.700  1.4483  0.5411 -0.1281
 8541TIP3   OH247113   1.211   1.085  11.418  0.0389  0.4907  0.3478
 8541TIP3    H147114   1.263   1.089  11.499 -3.0306  0.8628  2.4562
 8541TIP3    H247115   1.193   1.177  11.397 -0.8384  0.3435  0.4211
 8542TIP3   OH247116   3.683   3.617   5.683 -0.2685  0.4940 -0.0634
 8542TIP3    H147117   3.742   3.545   5.705 -1.3280 -0.5624 -0.5231
 8542TIP3    H247118   3.741   3.688   5.655  0.7721 -0.7769 -1.3020
 8543TIP3   OH247119   2.582   0.584   1.194 -1.0218  0.1920 -0.2650
 8543TIP3    H147120   2.668   0.622   1.211 -0.6321 -0.8570  0.2208
 8543TIP3    H247121   2.601   0.492   1.173 -2.1621 -0.6163  1.9389
 8544TIP3   OH247122   5.152   1.965  10.651 -0.4646  0.6230  0.5371
 8544TIP3    H147123   5.102   1.886  10.670  2.9217 -1.5168  1.4232
 8544TIP3    H247124   5.149   2.015  10.733  0.5019 -0.5276  1.3080
 8545TIP3   OH247125   3.594   5.179  14.680  0.1643 -0.1139 -0.4607
 8545TIP3    H147126   3.622   5.225  14.602  1.4525  0.0866  0.1010
 8545TIP3    H247127   3.579   5.088  14.652  1.0267 -0.1369 -0.8493
 8546TIP3   OH247128   6.069   5.014   0.487  0.3459 -0.3970 -0.0654
 8546TIP3    H147129   6.076   5.080   0.556  0.7586 -1.8226  1.2902
 8546TIP3    H247130   6.049   5.065   0.408 -1.4123  1.1853  1.2980
 8547TIP3   OH247131   1.037   1.323  12.480 -0.0068  0.0372 -0.5233
 8547TIP3    H147132   0.980   1.308  12.405  0.1537 -0.3579 -0.5698
 8547TIP3    H247133   1.121   1.350  12.441  0.3611 -1.0949 -0.5268
 8548TIP3   OH247134   2.956   4.885   4.098 -0.0936 -0.3871 -0.5173
 8548TIP3    H147135   3.026   4.825   4.073  0.6539  0.4721 -0.5100
 8548TIP3    H247136   2.937   4.864   4.189 -0.2667 -1.0227 -0.6955
 8549TIP3   OH247137   2.858   5.142  13.586 -0.1124 -0.1115 -0.8549
 8549TIP3    H147138   2.776   5.151  13.633  0.5120  0.5810  0.1598
 8549TIP3    H247139   2.883   5.050  13.597 -0.5076 -0.2047 -0.7409
 8550TIP3   OH247140   5.333   2.222   4.670  0.7516  0.4157  0.3794
 8550TIP3    H147141   5.274   2.206   4.596  1.0270 -0.6491  0.3659
 8550TIP3    H247142   5.277   2.260   4.738 -0.0450 -0.8728  0.4827
 8551TIP3   OH247143   2.503   7.019  15.001  0.8158 -0.1374 -0.1669
 8551TIP3    H147144   2.417   7.000  15.038 -0.3132  0.8843 -2.0842
 8551TIP3    H247145   2.498   7.110  14.973  2.4917 -0.0918 -0.4589
 8552TIP3   OH247146   5.365   6.963   3.294  0.0867 -0.6514  0.3440
 8552TIP3    H147147   5.443   6.955   3.239  0.1976 -3.5263  0.7402
 8552TIP3    H247148   5.328   6.875   3.295 -0.7406 -0.4002  3.6530
 8553TIP3   OH247149   4.126   5.049   5.281  0.2863  0.2565 -0.3402
 8553TIP3    H147150   4.180   5.054   5.360 -0.0442 -0.0437 -0.0899
 8553TIP3    H247151   4.038   5.069   5.312  0.0465 -0.5022 -0.5183
 8554TIP3   OH247152   6.776   5.042   3.110 -0.0242 -0.0930  0.7615
 8554TIP3    H147153   6.747   5.122   3.065 -1.9022 -1.1597 -0.0449
 8554TIP3    H247154   6.699   5.014   3.160  0.8390 -1.0061  1.6144
 8555TIP3   OH247155   7.075   1.661  14.426  0.1713  0.2018  0.7061
 8555TIP3    H147156   7.140   1.603  14.387 -1.2039 -1.3177  0.5515
 8555TIP3    H247157   6.993   1.611  14.422 -1.4964  2.8355 -1.0960
 8556TIP3   OH247158   6.950   4.030   2.600  0.3543 -0.5994 -0.0635
 8556TIP3    H147159   6.861   4.032   2.567  0.5695  1.7427 -0.6496
 8556TIP3    H247160   6.985   4.117   2.583  3.0570 -1.6739 -0.6121
 8557TIP3   OH247161   2.368   4.252   2.358  0.8163  0.2470  0.1418
 8557TIP3    H147162   2.306   4.312   2.398  0.4390 -0.2842  0.3693
 8557TIP3    H247163   2.346   4.252   2.265  1.4271  1.1695 -0.0106
 8558TIP3   OH247164   1.986   2.005  12.579 -0.0865 -0.1712  0.0487
 8558TIP3    H147165   1.916   1.970  12.635  0.2365  0.7271  1.0413
 8558TIP3    H247166   1.943   2.025  12.496 -0.7734 -0.6495  0.2832
 8559TIP3   OH247167   5.119   5.815  13.367  0.7832 -0.5814  0.1797
 8559TIP3    H147168   5.162   5.900  13.374 -0.2138 -0.1524  1.5685
 8559TIP3    H247169   5.026   5.835  13.380  0.6877 -2.0533  2.1511
 8560TIP3   OH247170   1.690   5.192   2.654  0.4109 -0.2201  0.3380
 8560TIP3    H147171   1.765   5.132   2.645  1.1298  0.4649  1.5137
 8560TIP3    H247172   1.627   5.143   2.707  0.1711 -0.6628 -0.3475
 8561TIP3   OH247173   6.331   4.094  10.640 -0.2401 -0.3419 -0.5897
 8561TIP3    H147174   6.236   4.081  10.636 -0.1698 -0.7383 -1.0589
 8561TIP3    H247175   6.345   4.142  10.721 -0.8027 -0.6545 -0.3014
 8562TIP3   OH247176   1.655   1.481  13.309  0.4559  0.1133  0.6410
 8562TIP3    H147177   1.645   1.389  13.283 -2.1973  0.1064  1.4324
 8562TIP3    H247178   1.628   1.483  13.401 -1.3425  1.9307  0.1400
 8563TIP3   OH247179   3.868   1.435  12.889  0.3559  0.7953 -0.0454
 8563TIP3    H147180   3.951   1.413  12.932 -0.1532  0.5044  0.8130
 8563TIP3    H247181   3.824   1.494  12.951 -0.1095  0.8900 -0.4598
 8564TIP3   OH247182   7.137   4.200  11.515  0.3202  0.3399 -0.1756
 8564TIP3    H147183   7.187   4.154  11.583  0.0654 -0.5026 -0.5404
 8564TIP3    H247184   7.055   4.151  11.510  0.3409  0.3892 -1.0967
 8565TIP3   OH247185   3.805   5.097  10.803 -0.0584  0.0132 -0.1427
 8565TIP3    H147186   3.871   5.035  10.771 -0.8522 -0.7001 -0.4525
 8565TIP3    H247187   3.752   5.046  10.863  0.4505  0.9325  1.1239
 8566TIP3   OH247188   1.685   1.601  10.793  0.0016 -0.3182 -0.1004
 8566TIP3    H147189   1.733   1.653  10.857  0.3920 -1.1389  0.2948
 8566TIP3    H247190   1.753   1.551  10.747 -0.4120 -1.1106  0.1208
 8567TIP3   OH247191   0.436   0.697  14.930  0.5360 -0.1630 -0.4108
 8567TIP3    H147192   0.510   0.637  14.915  0.1740 -0.9745  0.9417
 8567TIP3    H247193   0.376   0.647  14.984 -0.2473  1.0970 -0.1015
 8568TIP3   OH247194   4.644   2.542   2.110  0.0411  0.3492 -0.0420
 8568TIP3    H147195   4.573   2.576   2.163  0.6344 -1.5325  2.1343
 8568TIP3    H247196   4.717   2.532   2.171  0.2611 -3.5474 -0.6566
 8569TIP3   OH247197   3.784   1.721  11.855 -0.0395 -0.2240  0.0423
 8569TIP3    H147198   3.865   1.741  11.808  0.6860 -2.8553 -0.0073
 8569TIP3    H247199   3.790   1.771  11.936  0.8255  0.9070 -0.6913
 8570TIP3   OH247200   1.479   3.039  10.909  0.0464  0.1228  0.5454
 8570TIP3    H147201   1.487   3.133  10.926  1.5049  0.4769 -1.6658
 8570TIP3    H247202   1.448   3.033  10.819  0.5521 -1.5149  0.4439
 8571TIP3   OH247203   1.557   1.842  12.792 -0.1027 -0.3835  0.1375
 8571TIP3    H147204   1.469   1.880  12.792  0.2720  0.5979 -1.3183
 8571TIP3    H247205   1.572   1.818  12.700  1.8474  1.2387 -0.0389
 8572TIP3   OH247206   1.748   6.538  11.343 -0.0711 -0.3762  0.1283
 8572TIP3    H147207   1.760   6.631  11.361  1.7190  0.0898 -2.8043
 8572TIP3    H247208   1.836   6.501  11.348 -0.6277 -1.7445  0.3263
 8573TIP3   OH247209   3.197   3.575  11.023  0.0850  0.1216  0.3729
 8573TIP3    H147210   3.232   3.500  10.975  1.3431  0.4628  0.7098
 8573TIP3    H247211   3.114   3.544  11.060 -0.1020 -0.6426 -0.6663
 8574TIP3   OH247212   2.981   7.124  13.514  0.0817  0.5217  0.0058
 8574TIP3    H147213   3.032   7.104  13.436 -1.7955 -0.1777 -1.1009
 8574TIP3    H247214   3.037   7.184  13.564  0.8344  2.0110 -2.4636
 8575TIP3   OH247215   4.984   4.944  10.447  0.0228 -0.0995  0.4498
 8575TIP3    H147216   5.055   5.005  10.470  1.1753 -1.1526 -0.1743
 8575TIP3    H247217   4.943   4.984  10.370 -0.4226  0.7799  1.1250
 8576TIP3   OH247218   3.609   4.778   4.350  0.2850 -0.4032 -0.2558
 8576TIP3    H147219   3.701   4.761   4.332  0.2482  0.0488 -0.8944
 8576TIP3    H247220   3.608   4.860   4.399  0.0980  0.8977 -2.3062
 8577TIP3   OH247221   2.921   6.215  12.641  0.2731 -0.1396  0.3747
 8577TIP3    H147222   2.834   6.253  12.656  1.4110  3.8277 -1.7353
 8577TIP3    H247223   2.972   6.240  12.718  0.4383  0.6733  0.0058
 8578TIP3   OH247224   0.310   6.341  13.668  0.1391  0.3701 -0.0862
 8578TIP3    H147225   0.400   6.325  13.698  0.1700  0.4351 -0.1417
 8578TIP3    H247226   0.321   6.380  13.581  0.0088 -1.6507 -1.0658
 8579TIP3   OH247227   4.627   6.138   1.099 -0.5166 -0.3633 -0.7508
 8579TIP3    H147228   4.677   6.124   1.179 -0.1001  0.3358 -0.8773
 8579TIP3    H247229   4.668   6.214   1.058 -2.1496  0.7099 -0.4825
 8580TIP3   OH247230   4.300   3.352  14.840  0.6278  0.6246 -0.3266
 8580TIP3    H147231   4.268   3.262  14.831 -1.0894  0.8533  2.2643
 8580TIP3    H247232   4.237   3.405  14.792 -1.0035  0.7416  1.7740
 8581TIP3   OH247233   3.964   0.045  12.723 -0.3060 -0.1147  0.4881
 8581TIP3    H147234   3.876   0.010  12.733 -1.1180  1.5997 -0.3021
 8581TIP3    H247235   4.021  -0.027  12.749 -1.9129 -1.4538  0.4778
 8582TIP3   OH247236   4.943   7.113  10.534 -0.1984 -0.5807  0.5885
 8582TIP3    H147237   4.873   7.058  10.568 -0.3489 -0.1589  0.9665
 8582TIP3    H247238   5.021   7.085  10.582 -0.3607 -0.1651  1.1049
 8583TIP3   OH247239   0.085   6.354   2.628 -0.0550  0.5296 -0.2168
 8583TIP3    H147240   0.055   6.279   2.680 -0.0977 -0.4274 -1.5415
 8583TIP3    H247241   0.132   6.410   2.690  0.0636 -0.6514  0.8012
 8584TIP3   OH247242   3.800   6.172  10.540  0.5292  0.1178 -1.1031
 8584TIP3    H147243   3.812   6.153  10.633  1.4822  2.5527 -0.6705
 8584TIP3    H247244   3.736   6.107  10.511 -0.4814 -0.1569  1.4443
 8585TIP3   OH247245   4.834   5.209  14.082 -0.3517  0.6587  0.2612
 8585TIP3    H147246   4.800   5.120  14.075  1.7124 -0.1216 -0.5964
 8585TIP3    H247247   4.757   5.265  14.069 -1.3864 -0.9792 -1.0783
 8586TIP3   OH247248   6.666   0.679  10.261  0.5417  0.1687  0.0422
 8586TIP3    H147249   6.749   0.639  10.289  0.2334  0.7352  1.8813
 8586TIP3    H247250   6.683   0.773  10.264 -0.1250  0.2820  0.2941
 8587TIP3   OH247251   1.262   4.998   4.130  0.1518  0.0010 -0.2232
 8587TIP3    H147252   1.210   5.020   4.208 -1.2619 -2.9587 -0.2082
 8587TIP3    H247253   1.335   5.060   4.132 -1.8891  2.5876  1.2671
 8588TIP3   OH247254   3.072   4.351   3.319  0.3858 -0.2243 -0.1900
 8588TIP3    H147255   3.106   4.441   3.319 -2.2754  0.8681 -0.0173
 8588TIP3    H247256   3.065   4.328   3.411 -0.2613 -0.0526 -0.1937
 8589TIP3   OH247257   2.266   1.556  10.080 -0.2411  0.2490 -0.0751
 8589TIP3    H147258   2.352   1.596  10.093  0.5430 -1.4400  0.1514
 8589TIP3    H247259   2.266   1.528   9.989  0.2057 -1.4228  0.4153
 8590TIP3   OH247260   1.995   5.724   0.916  0.0693 -0.2058  0.9285
 8590TIP3    H147261   2.056   5.651   0.929 -1.1427 -1.6727 -1.1814
 8590TIP3    H247262   2.032   5.774   0.843 -1.3766 -1.3783 -0.6963
 8591TIP3   OH247263   3.863   4.088  15.590 -0.1815  0.6972  0.0410
 8591TIP3    H147264   3.855   3.996  15.566  0.8046  0.3092  1.1032
 8591TIP3    H247265   3.950   4.113  15.558 -1.7288  2.3111 -3.4230
 8592TIP3   OH247266   6.725   6.313   0.551  0.1363  0.3047 -0.0620
 8592TIP3    H147267   6.750   6.303   0.643  0.8266  0.1482 -0.2622
 8592TIP3    H247268   6.631   6.295   0.550  0.1566  0.1381  0.5870
 8593TIP3   OH247269   5.490   5.159   2.594  0.5524  0.1318  0.0940
 8593TIP3    H147270   5.520   5.163   2.685 -0.8675 -2.5570  0.7749
 8593TIP3    H247271   5.566   5.130   2.545  0.6595 -0.9755  0.8725
 8594TIP3   OH247272   2.416   6.266   4.487  0.0673 -0.5651 -0.1381
 8594TIP3    H147273   2.468   6.287   4.409 -0.0244 -2.0125 -0.6266
 8594TIP3    H247274   2.441   6.176   4.508 -0.7203 -0.5616  0.8558
 8595TIP3   OH247275   3.207   1.431  11.509  0.2845 -0.6345  0.5461
 8595TIP3    H147276   3.152   1.507  11.487 -1.4199 -1.7949  0.5804
 8595TIP3    H247277   3.263   1.419  11.433 -0.2520 -0.0512  0.0457
 8596TIP3   OH247278   3.057   2.279   0.877  0.0189  0.1461  0.6589
 8596TIP3    H147279   2.964   2.297   0.862  0.2470  1.5050  0.7149
 8596TIP3    H247280   3.090   2.358   0.921  1.0619 -0.5829  1.2441
 8597TIP3   OH247281   6.429   1.088  12.890  0.2369  0.1678 -0.2459
 8597TIP3    H147282   6.409   1.000  12.922  1.0334 -0.5628 -1.6583
 8597TIP3    H247283   6.345   1.135  12.893  0.1206 -0.0784  2.0817
 8598TIP3   OH247284   2.845   6.565  14.060 -0.1529 -0.1993 -0.2091
 8598TIP3    H147285   2.809   6.651  14.082 -0.6591 -0.3446 -0.4421
 8598TIP3    H247286   2.858   6.521  14.144 -0.9917 -0.3278 -0.1431
 8599TIP3   OH247287   1.463   5.123  15.700 -0.9636 -1.0411  0.6064
 8599TIP3    H147288   1.396   5.123  15.767 -0.8909 -1.4538  0.6793
 8599TIP3    H247289   1.531   5.182  15.733 -1.5824 -0.1011  0.2310
 8600TIP3   OH247290   6.203   2.814   2.237  0.0159  0.6857  0.1547
 8600TIP3    H147291   6.227   2.810   2.330 -0.0742 -0.2658  0.1474
 8600TIP3    H247292   6.134   2.880   2.233 -1.0336 -0.3181  1.0085
 8601TIP3   OH247293   1.898   6.550   0.212  0.5532  0.9672  0.5852
 8601TIP3    H147294   1.894   6.626   0.270  1.2497  1.5774 -0.1445
 8601TIP3    H247295   1.817   6.503   0.229  0.4746  1.4464  1.6219
 8602TIP3   OH247296   4.616   5.396  14.027  0.8227 -0.9403 -0.2663
 8602TIP3    H147297   4.635   5.483  14.062  0.1857 -0.9168  0.0286
 8602TIP3    H247298   4.521   5.393  14.018  0.6752 -2.1952  1.3020
 8603TIP3   OH247299   6.182   2.028   0.087 -0.0608  0.2776  0.7428
 8603TIP3    H147300   6.120   2.049   0.157 -1.5482  1.1112 -0.7659
 8603TIP3    H247301   6.183   1.932   0.084 -1.1811  0.2455  0.8956
 8604TIP3   OH247302   2.616   1.829   2.131  0.4966  0.2204 -0.4877
 8604TIP3    H147303   2.521   1.821   2.145  0.6306 -0.2787  0.1806
 8604TIP3    H247304   2.628   1.920   2.104 -0.1229  0.4249 -0.1035
 8605TIP3   OH247305   1.582   5.826  11.939 -0.2594 -0.3942 -0.2135
 8605TIP3    H147306   1.546   5.865  11.859  0.4704 -1.0319 -0.8755
 8605TIP3    H247307   1.586   5.732  11.920  1.4915 -0.3760 -0.0847
 8606TIP3   OH247308   0.640   3.934  13.453 -0.0377 -0.1165  0.2418
 8606TIP3    H147309   0.646   3.973  13.541  0.3173  0.6139 -0.1024
 8606TIP3    H247310   0.554   3.894  13.451 -1.0968  2.0367  0.0497
 8607TIP3   OH247311   6.629   0.059  15.156  0.4014  0.0207  0.5703
 8607TIP3    H147312   6.584   0.064  15.071 -0.9010  0.0159  1.2333
 8607TIP3    H247313   6.584   0.123  15.211  1.6230  0.4553  1.1048
 8608TIP3   OH247314   0.553   6.851   3.398  0.1757  0.5347 -0.5094
 8608TIP3    H147315   0.542   6.943   3.374  1.1743  0.8005  0.0065
 8608TIP3    H247316   0.511   6.844   3.484 -1.1348  0.1681 -1.1497
 8609TIP3   OH247317   5.783   2.337  10.322  0.2965  0.2458 -0.2579
 8609TIP3    H147318   5.829   2.421  10.331  0.0866  0.4442 -0.9596
 8609TIP3    H247319   5.691   2.358  10.340  0.3722 -0.0186  0.4735
 8610TIP3   OH247320   4.243   4.243   4.696 -0.3896 -0.0027  0.7311
 8610TIP3    H147321   4.309   4.191   4.650 -3.6154 -2.9770 -0.9864
 8610TIP3    H247322   4.234   4.322   4.643  0.7533 -0.1732  0.2422
 8611TIP3   OH247323   7.086   2.170  12.162 -0.4867  0.1294 -0.6270
 8611TIP3    H147324   7.158   2.128  12.208 -0.4373  0.1612 -0.6756
 8611TIP3    H247325   7.083   2.259  12.197 -0.0048  0.3689 -1.1834
 8612TIP3   OH247326   5.256   4.798  14.875 -0.9244  0.6481  0.0494
 8612TIP3    H147327   5.165   4.771  14.862 -1.0174  0.3693  1.2367
 8612TIP3    H247328   5.257   4.891  14.851 -1.0706  0.2000 -1.9153
 8613TIP3   OH247329   2.931   3.916  11.218  0.0851  0.3890 -0.1894
 8613TIP3    H147330   3.015   3.919  11.265  0.2939 -1.7700 -0.3278
 8613TIP3    H247331   2.924   4.003  11.177  0.5794  1.8675  2.5799
 8614TIP3   OH247332   6.657   3.912   5.210 -0.2926 -0.0089 -0.3284
 8614TIP3    H147333   6.656   3.821   5.183 -1.9568  0.2884 -1.4045
 8614TIP3    H247334   6.750   3.935   5.216  0.1389 -1.3862 -1.3667
 8615TIP3   OH247335   2.758   2.297  10.638 -0.1312 -0.1353  0.2714
 8615TIP3    H147336   2.712   2.320  10.719  1.6422  2.9252  0.5827
 8615TIP3    H247337   2.820   2.229  10.664 -1.7838 -1.5742  0.6593
 8616TIP3   OH247338   2.904   2.074  14.250 -0.0781  0.7229 -0.3941
 8616TIP3    H147339   2.863   1.991  14.227 -2.1502  1.0146  1.8995
 8616TIP3    H247340   2.831   2.135  14.261  1.3448  2.7447 -1.4025
 8617TIP3   OH247341   1.027   0.159   2.948  0.3133 -0.1095  0.1793
 8617TIP3    H147342   1.047   0.214   2.873 -0.3692 -1.2021 -0.8471
 8617TIP3    H247343   0.959   0.207   2.996  1.5471  1.1181  0.7595
 8618TIP3   OH247344   1.775   1.552  14.740 -0.0192  0.1138 -0.1672
 8618TIP3    H147345   1.692   1.506  14.730 -0.5511  0.9498  0.2851
 8618TIP3    H247346   1.777   1.613  14.666 -0.4880  1.0928  0.6055
 8619TIP3   OH247347   4.538   5.379   1.568  1.0302  0.2427 -0.4645
 8619TIP3    H147348   4.526   5.414   1.656 -0.3119 -0.1601 -0.4624
 8619TIP3    H247349   4.561   5.287   1.582 -1.8661 -0.5753 -0.5089
 8620TIP3   OH247350   4.530   0.176  14.097  0.0103  0.2305 -0.0523
 8620TIP3    H147351   4.484   0.097  14.124 -0.1967  0.8387  1.4417
 8620TIP3    H247352   4.618   0.146  14.074 -0.0502 -0.4247  0.5467
 8621TIP3   OH247353   4.049   2.730  14.617  0.4689 -0.1275  0.4166
 8621TIP3    H147354   3.996   2.759  14.691 -1.3755 -0.5208 -0.7027
 8621TIP3    H247355   4.069   2.811  14.569 -1.3878 -0.2083 -0.5788
 8622TIP3   OH247356   1.974   6.995  11.149 -0.0027  0.3068 -0.5231
 8622TIP3    H147357   1.896   7.029  11.105 -0.6124 -1.2145 -0.6944
 8622TIP3    H247358   1.964   7.021  11.240 -0.1931  1.0071 -0.7435
 8623TIP3   OH247359   0.556   6.347  13.806 -0.1133 -0.3623  0.2386
 8623TIP3    H147360   0.593   6.429  13.840  0.4003 -0.2415 -0.5957
 8623TIP3    H247361   0.632   6.292  13.789 -0.3014 -0.1601 -1.3817
 8624TIP3   OH247362   3.268   4.296  14.151 -0.4634  0.0650  0.4048
 8624TIP3    H147363   3.362   4.314  14.150 -0.3341 -0.5677 -1.2099
 8624TIP3    H247364   3.228   4.381  14.172  0.3327  1.3250 -2.6781
 8625TIP3   OH247365   7.134   1.790   2.115 -0.3563 -0.1139  0.5813
 8625TIP3    H147366   7.108   1.708   2.158 -2.2098 -0.5892 -1.2755
 8625TIP3    H247367   7.076   1.856   2.152 -0.1702 -0.0163  0.6983
 8626TIP3   OH247368   2.286   0.326  14.876 -0.2499 -0.3983  0.6720
 8626TIP3    H147369   2.221   0.261  14.850 -3.3526  3.0029 -0.9725
 8626TIP3    H247370   2.261   0.350  14.966 -0.3580 -0.1937  0.5901
 8627TIP3   OH247371   0.226   4.500  12.388 -0.6255 -0.3768  0.4037
 8627TIP3    H147372   0.167   4.424  12.379 -0.0973 -0.5490 -4.2717
 8627TIP3    H247373   0.310   4.468  12.356  0.4332  1.4475  1.2349
 8628TIP3   OH247374   3.012   4.710   0.531 -0.5802 -0.5206 -0.3634
 8628TIP3    H147375   3.046   4.673   0.450  1.7607 -0.2034  0.3954
 8628TIP3    H247376   2.984   4.634   0.582 -1.9448 -0.7315 -1.3601
 8629TIP3   OH247377   2.702   4.308   0.605 -0.1359 -0.0204 -0.3502
 8629TIP3    H147378   2.647   4.386   0.600 -0.4020  0.0193  2.1607
 8629TIP3    H247379   2.666   4.249   0.538 -1.9153  0.8232 -0.1882
 8630TIP3   OH247380   6.867   1.786  13.091 -0.2548 -0.2941 -0.0078
 8630TIP3    H147381   6.803   1.725  13.127 -0.5194  0.3064  0.5433
 8630TIP3    H247382   6.815   1.850  13.043  0.1011 -1.2072 -1.6827
 8631TIP3   OH247383   4.520   7.033   0.296 -0.6848  0.0925 -0.4411
 8631TIP3    H147384   4.554   6.985   0.221  1.2410 -1.8829  1.5557
 8631TIP3    H247385   4.426   7.018   0.294 -0.3131 -2.6555 -0.7224
 8632TIP3   OH247386   1.595   6.375  14.644 -0.1459  0.5584 -0.1833
 8632TIP3    H147387   1.632   6.427  14.572 -1.3592 -1.1139 -2.1171
 8632TIP3    H247388   1.619   6.285  14.623 -2.5312 -0.2275  0.1707
 8633TIP3   OH247389   2.024   1.683   0.208  0.2300  0.2599  0.4697
 8633TIP3    H147390   2.060   1.757   0.258  0.9541  0.3895 -0.2098
 8633TIP3    H247391   2.097   1.621   0.202 -0.5602 -0.8408  1.6033
 8634TIP3   OH247392   5.560   4.749   9.693  0.7137  0.1857 -1.0145
 8634TIP3    H147393   5.626   4.751   9.625 -0.8635  0.3751 -2.6215
 8634TIP3    H247394   5.563   4.660   9.727  1.3799  0.0245 -1.4819
 8635TIP3   OH247395   0.563   7.113   1.857 -0.2104 -0.0884 -0.6073
 8635TIP3    H147396   0.600   7.028   1.835  0.5039 -0.4837  1.7974
 8635TIP3    H247397   0.621   7.147   1.925 -1.4726  1.5459 -0.2891
 8636TIP3   OH247398   4.268   4.544   4.417  0.5204  0.0292  0.2300
 8636TIP3    H147399   4.197   4.483   4.396  0.1759  0.5814 -0.2415
 8636TIP3    H247400   4.256   4.564   4.510  0.3049 -0.2069  0.2532
 8637TIP3   OH247401   1.607   1.923   0.037  0.0095 -0.5411 -0.1232
 8637TIP3    H147402   1.617   1.909   0.131 -1.2199 -1.2093 -0.0759
 8637TIP3    H247403   1.557   2.004   0.030  0.5588 -0.2047 -0.2247
 8638TIP3   OH247404   6.620   7.130   1.742 -0.3352  0.1750  0.3455
 8638TIP3    H147405   6.551   7.183   1.703  0.4854  1.2775  0.3448
 8638TIP3    H247406   6.692   7.134   1.679 -0.1741 -0.7544  0.4583
 8639TIP3   OH247407   5.764   4.646   3.021 -0.0303  0.0667  0.2061
 8639TIP3    H147408   5.780   4.632   3.115  0.1294  0.2329  0.2043
 8639TIP3    H247409   5.834   4.596   2.978 -0.4958 -0.5505  0.1593
 8640TIP3   OH247410   3.157   3.393  15.220 -0.3926  0.5536  0.3248
 8640TIP3    H147411   3.164   3.306  15.260  1.4102  0.8858  0.8081
 8640TIP3    H247412   3.151   3.376  15.126 -0.2436 -0.0992  0.4280
 8641TIP3   OH247413   6.630   0.005  13.007 -0.3173 -0.3658  0.6092
 8641TIP3    H147414   6.626   0.047  13.092 -0.9092 -0.3691  0.5883
 8641TIP3    H247415   6.630   0.078  12.944 -0.1194 -0.3688  0.6046
 8642TIP3   OH247416   3.778   3.445  12.152 -0.5302  0.1834  0.0132
 8642TIP3    H147417   3.748   3.466  12.063  2.0064 -1.7377 -1.4663
 8642TIP3    H247418   3.741   3.358  12.170  2.1583 -1.3144 -1.0273
 8643TIP3   OH247419   3.564   2.469   3.182  0.1989 -0.0213  0.6576
 8643TIP3    H147420   3.619   2.535   3.224 -0.1262  0.0620  0.9487
 8643TIP3    H247421   3.626   2.400   3.157  0.7214  0.9061 -0.7252
 8644TIP3   OH247422   0.069   1.373  14.136 -0.2456 -0.6742  0.3357
 8644TIP3    H147423   0.132   1.426  14.186 -0.4821 -0.0826  0.0147
 8644TIP3    H247424   0.003   1.436  14.106  0.3103 -0.8594 -1.4103
 8645TIP3   OH247425   6.176   1.445  10.327 -0.4425 -0.3447  0.5181
 8645TIP3    H147426   6.172   1.534  10.291 -1.6249 -0.4511  0.3662
 8645TIP3    H247427   6.213   1.392  10.257  0.1844  0.0069  0.5768
 8646TIP3   OH247428   3.220   2.808  10.432 -0.2751  0.1733 -0.2456
 8646TIP3    H147429   3.263   2.723  10.429 -1.4287 -0.4876  0.8836
 8646TIP3    H247430   3.160   2.808  10.358  1.2337  0.9003 -1.5272
 8647TIP3   OH247431   5.012   2.528  15.414  0.0962  0.7218 -0.1013
 8647TIP3    H147432   4.922   2.496  15.423  1.0715 -1.9690  1.5076
 8647TIP3    H247433   5.019   2.599  15.478 -0.8157  0.7960 -0.0680
 8648TIP3   OH247434   4.483   6.798  14.003 -0.6143  0.4047 -0.6470
 8648TIP3    H147435   4.540   6.732  14.043  0.5352  0.2708 -2.4249
 8648TIP3    H247436   4.501   6.793  13.909  0.1287  3.7751 -0.8391
 8649TIP3   OH247437   2.394   3.476  14.244  0.1674  0.1975  0.5832
 8649TIP3    H147438   2.442   3.546  14.290  1.4678 -0.9388  1.0119
 8649TIP3    H247439   2.302   3.496  14.261  0.5514 -0.0743  3.6601
 8650TIP3   OH247440   6.864   4.792   3.002  0.0879  0.0905  0.2498
 8650TIP3    H147441   6.904   4.760   3.083 -0.9208 -0.1602  0.6601
 8650TIP3    H247442   6.826   4.876   3.026  0.2678  0.2760 -0.1112
 8651TIP3   OH247443   1.034   0.327   4.548 -0.4634 -0.0531  0.3971
 8651TIP3    H147444   1.084   0.386   4.604  0.0832 -1.5610  1.5925
 8651TIP3    H247445   1.096   0.299   4.481 -0.8602  1.0574 -0.4620
 8652TIP3   OH247446   0.737   3.552  11.540 -0.4491 -0.0507  0.1662
 8652TIP3    H147447   0.801   3.496  11.496 -0.0110 -0.6610  1.5323
 8652TIP3    H247448   0.789   3.611  11.594 -0.9737  0.8242 -0.2492
 8653TIP3   OH247449   0.792   0.427  11.464  0.0655  0.1088 -0.1901
 8653TIP3    H147450   0.731   0.500  11.474 -0.1435 -0.0252 -0.4781
 8653TIP3    H247451   0.879   0.467  11.476 -0.1247  0.0934  1.3393
 8654TIP3   OH247452   2.920   5.228   4.931  0.1522  0.1335  0.0986
 8654TIP3    H147453   3.015   5.235   4.942  0.2767 -0.8409 -0.2570
 8654TIP3    H247454   2.907   5.145   4.885 -0.8891  0.1351  0.3609
 8655TIP3   OH247455   5.241   4.848  13.592  0.1956 -0.5213  0.3733
 8655TIP3    H147456   5.237   4.755  13.612 -0.5913 -0.7737 -0.8396
 8655TIP3    H247457   5.246   4.891  13.677  0.4855 -1.6664  0.9449
 8656TIP3   OH247458   0.490   5.319  13.308  0.5472 -0.1303 -0.5409
 8656TIP3    H147459   0.543   5.344  13.232 -1.5233  2.2995 -1.3526
 8656TIP3    H247460   0.400   5.318  13.275 -0.2993 -0.1452  1.6100
 8657TIP3   OH247461   0.823   6.965   9.648 -0.1154  0.1086 -0.3631
 8657TIP3    H147462   0.830   7.059   9.667 -1.1214 -0.0504  0.8916
 8657TIP3    H247463   0.731   6.944   9.664  0.1402 -1.1436 -0.4486
 8658TIP3   OH247464   4.383   2.172   3.052 -0.2544 -0.6769 -0.1039
 8658TIP3    H147465   4.417   2.195   3.139  0.7353  2.7330 -1.2236
 8658TIP3    H247466   4.294   2.208   3.051  0.4351  1.1764 -1.0554
 8659TIP3   OH247467   1.709   3.535  11.480  0.2722 -0.1319  0.4558
 8659TIP3    H147468   1.761   3.506  11.556  0.8803  1.7746  0.8272
 8659TIP3    H247469   1.772   3.539  11.408 -0.1851 -1.3830 -0.0366
 8660TIP3   OH247470   4.487   7.008   3.930  0.0920  0.0872 -0.2426
 8660TIP3    H147471   4.395   7.022   3.950  0.2918  0.6532  0.3207
 8660TIP3    H247472   4.517   6.951   4.001 -0.3100 -1.8784 -1.5748
 8661TIP3   OH247473   0.890   1.128   0.365  0.6143 -0.3871  0.4502
 8661TIP3    H147474   0.966   1.151   0.418  0.2641  3.3304 -0.3996
 8661TIP3    H247475   0.913   1.155   0.276 -0.3626 -2.7164 -0.6169
 8662TIP3   OH247476   1.157   5.150  13.580 -0.3470  0.1880 -0.1005
 8662TIP3    H147477   1.070   5.188  13.573 -0.0793  1.2076  1.5678
 8662TIP3    H247478   1.142   5.061  13.610 -0.9112 -0.6632 -2.6560
 8663TIP3   OH247479   0.263   0.330  10.204 -0.1160  0.5985  0.5641
 8663TIP3    H147480   0.221   0.258  10.156 -0.4433 -0.5655  2.4702
 8663TIP3    H247481   0.201   0.403  10.197 -0.0165  0.5648 -0.9810
 8664TIP3   OH247482   4.917   0.929  10.111  0.0562 -0.2311  0.0058
 8664TIP3    H147483   4.919   0.839  10.144 -2.1285 -0.8158 -1.2181
 8664TIP3    H247484   4.853   0.974  10.166  0.2654  0.2438 -0.1306
 8665TIP3   OH247485   1.243   6.886  12.776 -0.0343 -0.0810  0.2909
 8665TIP3    H147486   1.297   6.956  12.813 -0.5236  1.2359 -1.3424
 8665TIP3    H247487   1.174   6.873  12.841 -0.6226  1.8454  0.1206
 8666TIP3   OH247488   3.183   3.931   1.651  0.1230 -0.3833 -0.0095
 8666TIP3    H147489   3.254   3.881   1.691  0.5798  0.8471  0.7951
 8666TIP3    H247490   3.209   4.023   1.662 -2.4232  0.2421  2.0909
 8667TIP3   OH247491   0.341   1.527   0.295  0.3705 -0.0342  0.3089
 8667TIP3    H147492   0.323   1.482   0.377  0.1821 -1.0549 -0.2696
 8667TIP3    H247493   0.391   1.463   0.243  0.7765  0.7127 -0.2479
 8668TIP3   OH247494   0.580   2.925  12.587  0.3898 -0.3797  0.2884
 8668TIP3    H147495   0.506   2.967  12.631 -0.0869  1.0439 -1.7295
 8668TIP3    H247496   0.649   2.991  12.587 -0.0402  0.1706 -2.0757
 8669TIP3   OH247497   6.356   6.032  15.673  0.2461 -0.4674 -0.4119
 8669TIP3    H147498   6.363   6.054  15.766  0.0820  0.2507 -0.5646
 8669TIP3    H247499   6.438   5.986  15.653  1.4731  1.6078 -0.5046
 8670TIP3   OH247500   1.186   2.338   3.511 -0.0980 -0.2583 -0.5551
 8670TIP3    H147501   1.157   2.317   3.423  0.1424 -1.2969 -0.3967
 8670TIP3    H247502   1.161   2.262   3.564 -0.3462  0.3960  0.3029
 8671TIP3   OH247503   0.772   2.268   5.442  0.3634 -0.5122 -0.3604
 8671TIP3    H147504   0.834   2.335   5.414  2.1678 -1.8357  0.2856
 8671TIP3    H247505   0.744   2.296   5.530 -1.3454  0.9633 -1.3032
 8672TIP3   OH247506   0.468   1.721   0.437  0.1860 -0.3554 -0.7713
 8672TIP3    H147507   0.427   1.805   0.419  2.6313  1.0634 -0.1916
 8672TIP3    H247508   0.417   1.657   0.387 -1.6839  1.4635 -1.2780
 8673TIP3   OH247509   0.126   0.414   2.987 -0.6688 -0.0232 -0.0883
 8673TIP3    H147510   0.107   0.364   2.908  1.2073 -0.7421 -0.1372
 8673TIP3    H247511   0.084   0.365   3.058 -2.6727  0.8217 -0.6304
 8674TIP3   OH247512   3.969   5.280  14.913  0.1794  0.1247 -0.4079
 8674TIP3    H147513   4.057   5.282  14.951  0.7357 -0.6968 -1.5868
 8674TIP3    H247514   3.912   5.313  14.982  1.2233 -0.6830  0.8790
 8675TIP3   OH247515   4.737   5.103  13.029  0.3968  0.4362 -0.0580
 8675TIP3    H147516   4.725   5.138  13.117 -3.6959 -0.3688 -0.0728
 8675TIP3    H247517   4.748   5.181  12.974  0.0699  1.1392  0.8324
 8676TIP3   OH247518   2.493   4.406   1.337  0.1167  0.6442  1.0100
 8676TIP3    H147519   2.552   4.455   1.395  0.3184  0.5380  0.8979
 8676TIP3    H247520   2.541   4.326   1.318  0.3302  0.9619  0.1771
 8677TIP3   OH247521   0.992   6.879   3.634  0.3058 -0.4740 -0.3402
 8677TIP3    H147522   1.056   6.808   3.627  3.7510  2.3752 -0.6119
 8677TIP3    H247523   1.007   6.915   3.722 -2.3569 -0.8285  0.3377
 8678TIP3   OH247524   5.526   1.322  10.437 -0.1091 -0.0637  0.1949
 8678TIP3    H147525   5.577   1.343  10.360 -0.0707 -2.0858 -0.3889
 8678TIP3    H247526   5.590   1.317  10.508  0.2371 -0.6465 -0.1483
 8679TIP3   OH247527   6.421   6.383  15.387  0.0739  0.1534  0.7124
 8679TIP3    H147528   6.335   6.426  15.385  0.4323  0.8563 -0.3456
 8679TIP3    H247529   6.484   6.456  15.387  0.7003 -0.3374 -0.9838
 8680TIP3   OH247530   0.383   4.983  13.097  0.2044  0.0238 -0.6288
 8680TIP3    H147531   0.436   4.984  13.177 -0.1506  0.1823 -0.3886
 8680TIP3    H247532   0.295   5.006  13.127 -0.2259 -1.2228 -0.8577
 8681TIP3   OH247533   0.819   0.119   0.167  0.3144  0.0154  0.3587
 8681TIP3    H147534   0.913   0.112   0.179  0.3395 -0.8381 -0.2495
 8681TIP3    H247535   0.807   0.128   0.072 -0.1845  0.8503  0.4854
 8682TIP3   OH247536   3.515   0.779  13.248 -0.4955  0.1019 -0.1680
 8682TIP3    H147537   3.533   0.868  13.278 -1.7289  0.9131 -1.7042
 8682TIP3    H247538   3.582   0.762  13.182 -1.1794  0.5152 -0.9902
 8683TIP3   OH247539   6.782   3.677  13.452 -0.3449 -0.0201 -0.1436
 8683TIP3    H147540   6.806   3.747  13.391 -1.6181  0.5151 -0.0637
 8683TIP3    H247541   6.710   3.630  13.408  0.7427 -1.5554 -0.3775
 8684TIP3   OH247542   5.764   0.907   1.383 -0.4704  0.1246 -0.1944
 8684TIP3    H147543   5.855   0.922   1.411  0.4209  0.3317 -2.8614
 8684TIP3    H247544   5.756   0.812   1.376 -0.3122  0.1233 -0.3635
 8685TIP3   OH247545   0.834   6.362  14.819 -0.5797 -0.1207 -0.3233
 8685TIP3    H147546   0.838   6.401  14.732  1.3153  0.7143  0.0675
 8685TIP3    H247547   0.919   6.319  14.830 -1.7635 -2.4841  0.1485
 8686TIP3   OH247548   1.723   4.914   0.979 -0.3764  0.0291  0.3639
 8686TIP3    H147549   1.658   4.872   0.923  0.6270  2.1410 -2.6493
 8686TIP3    H247550   1.740   4.851   1.048 -3.2699 -1.8877 -0.5234
 8687TIP3   OH247551   0.394   4.075  14.218 -0.1874 -0.1046  0.1411
 8687TIP3    H147552   0.370   3.989  14.184  1.2095 -0.5514  0.2292
 8687TIP3    H247553   0.313   4.126  14.213 -0.5058 -0.7160 -2.0446
 8688TIP3   OH247554   0.577   2.667  13.743 -0.5498  0.0998  0.5404
 8688TIP3    H147555   0.565   2.583  13.698  1.0514 -1.4837  2.8429
 8688TIP3    H247556   0.605   2.728  13.674 -0.6547 -1.5456 -1.0104
 8689TIP3   OH247557   0.611   2.401  11.551  0.0843  0.0175 -0.5297
 8689TIP3    H147558   0.642   2.329  11.605 -0.5318  0.0483 -0.1284
 8689TIP3    H247559   0.640   2.378  11.462 -1.8833 -1.8072 -0.7894
 8690TIP3   OH247560   0.736   0.569  13.664 -0.6029 -0.0189  0.3182
 8690TIP3    H147561   0.766   0.606  13.581 -0.8906 -1.5018 -0.4908
 8690TIP3    H247562   0.798   0.601  13.729  0.7141 -0.2844 -0.7760
 8691TIP3   OH247563   1.419   6.703  12.682 -0.0972  0.3074  0.1103
 8691TIP3    H147564   1.468   6.740  12.608 -2.9099 -1.4061 -2.8585
 8691TIP3    H247565   1.354   6.770  12.703  0.9174  0.9376  1.3676
 8692TIP3   OH247566   1.001   4.194  13.721  0.3409  0.0562 -0.1509
 8692TIP3    H147567   1.090   4.189  13.687  0.5112 -0.3902  0.3582
 8692TIP3    H247568   1.006   4.254  13.795  0.7434 -1.8600  1.4652
 8693TIP3   OH247569   2.744   1.842  12.817 -0.2384  0.8851  0.0653
 8693TIP3    H147570   2.655   1.875  12.831 -1.6793 -2.1427 -1.0478
 8693TIP3    H247571   2.758   1.849  12.723 -0.1230 -0.4052 -0.0378
 8694TIP3   OH247572   4.613   2.352  11.652 -0.7396  0.2215  0.0760
 8694TIP3    H147573   4.567   2.385  11.729 -1.1600  0.8502 -0.4311
 8694TIP3    H247574   4.573   2.266  11.635  0.6539 -0.8081  1.6517
 8695TIP3   OH247575   6.946   6.403  11.385  0.1348  0.8000  0.2043
 8695TIP3    H147576   6.893   6.347  11.328 -1.9934  1.4646  1.4344
 8695TIP3    H247577   6.887   6.473  11.411  1.6813  1.6517  1.5747
 8696TIP3   OH247578   1.496   0.259  11.141  0.0906 -0.1458 -0.5687
 8696TIP3    H147579   1.523   0.180  11.096 -0.0126  0.0184 -0.9186
 8696TIP3    H247580   1.442   0.228  11.214 -0.6806 -0.3529 -1.2211
 8697TIP3   OH247581   5.249   6.210  14.586  0.1299  0.0163  0.2901
 8697TIP3    H147582   5.250   6.289  14.640  2.3151  1.0681 -1.1172
 8697TIP3    H247583   5.302   6.147  14.635 -0.9037 -0.3224  1.0104
 8698TIP3   OH247584   2.477   2.793   4.626 -0.0187  0.0527  0.5907
 8698TIP3    H147585   2.429   2.713   4.606 -0.6281  0.5969 -0.1802
 8698TIP3    H247586   2.566   2.764   4.646 -0.3107 -0.8378  0.6344
 8699TIP3   OH247587   2.572   6.613  14.488  0.0228 -0.2410  0.1843
 8699TIP3    H147588   2.575   6.628  14.582  1.9955 -1.7447  0.4269
 8699TIP3    H247589   2.607   6.693  14.449 -2.0424  0.9424  0.5652
 8700TIP3   OH247590   5.613   5.434   2.427  0.2809  0.1846  0.3335
 8700TIP3    H147591   5.649   5.521   2.410 -0.4213  0.4570  0.1722
 8700TIP3    H247592   5.677   5.392   2.483  0.0235  1.2859  1.5026
 8701TIP3   OH247593   1.148   5.462  14.771 -0.1225 -0.4304  0.3406
 8701TIP3    H147594   1.054   5.461  14.788 -0.3833  1.1997 -0.8397
 8701TIP3    H247595   1.174   5.370  14.776 -1.5503 -0.8093  1.7706
 8702TIP3   OH247596   1.354   0.866   4.755 -0.4254  0.7200 -0.7024
 8702TIP3    H147597   1.382   0.775   4.744 -3.0595 -0.2577 -0.1826
 8702TIP3    H247598   1.286   0.878   4.689 -1.0795  1.8588  0.1385
 8703TIP3   OH247599   2.236   1.617  10.491 -0.2726  0.4958 -0.6645
 8703TIP3    H147600   2.239   1.624  10.587  2.0977 -0.2478 -0.6227
 8703TIP3    H247601   2.228   1.708  10.462 -0.8628  0.7478  0.2141
 8704TIP3   OH247602   1.529   3.044   5.272  0.0059 -0.1638 -0.3377
 8704TIP3    H147603   1.533   3.122   5.217 -0.1609  0.1655  0.1100
 8704TIP3    H247604   1.479   3.071   5.348  0.0988 -0.6602 -0.0967
 8705TIP3   OH247605   1.187   0.583  12.973  0.1286  0.1025 -0.2743
 8705TIP3    H147606   1.254   0.571  13.041 -0.4805 -0.9273  0.1547
 8705TIP3    H247607   1.220   0.535  12.898  0.0737 -0.0361 -0.2089
 8706TIP3   OH247608   0.987   6.595  13.041  0.2353 -0.1405 -0.0988
 8706TIP3    H147609   0.999   6.598  12.946  1.4482 -0.9874  0.0058
 8706TIP3    H247610   0.915   6.533  13.055  0.9879 -1.0993 -0.4097
 8707TIP3   OH247611   3.215   5.717   9.952 -0.0420  0.7210  0.5761
 8707TIP3    H147612   3.273   5.686   9.883 -0.0575 -1.9599  1.6202
 8707TIP3    H247613   3.273   5.759  10.016  0.9008 -1.9872  1.6473
 8708TIP3   OH247614   5.995   4.138   4.628  0.0519 -0.4590  0.1646
 8708TIP3    H147615   5.918   4.172   4.673 -1.7645 -3.2457 -0.6053
 8708TIP3    H247616   6.039   4.084   4.693  2.0074  1.8004  0.8819
 8709TIP3   OH247617   2.029   5.650  14.800  0.1955 -0.0173 -0.0062
 8709TIP3    H147618   1.952   5.675  14.749 -0.8255 -1.3889  0.7829
 8709TIP3    H247619   2.100   5.647  14.736 -0.4141  1.1306 -0.7779
 8710TIP3   OH247620   4.670   1.174   2.444 -0.3209 -0.2830 -0.5580
 8710TIP3    H147621   4.671   1.225   2.363 -3.1665 -0.9134 -1.0975
 8710TIP3    H247622   4.713   1.092   2.420 -0.0644 -0.0096 -1.0746
 8711TIP3   OH247623   6.678   2.236   5.545 -0.2789 -0.5435  0.4399
 8711TIP3    H147624   6.615   2.282   5.490 -0.3388  0.7288  1.5239
 8711TIP3    H247625   6.763   2.258   5.508 -0.3894 -0.9992 -0.0939
 8712TIP3   OH247626   1.512   3.892  10.379 -0.4925  0.2227  0.2870
 8712TIP3    H147627   1.496   3.931  10.464 -0.3155  0.5474  0.1707
 8712TIP3    H247628   1.430   3.904  10.331 -0.3665  0.6472  0.1754
 8713TIP3   OH247629   6.309   6.355  10.322  0.9681  0.9386  0.2362
 8713TIP3    H147630   6.288   6.304  10.400  3.3542  1.7032  1.4771
 8713TIP3    H247631   6.267   6.307  10.251 -1.2169  0.1582  1.9184
 8714TIP3   OH247632   5.836   6.809  12.205  0.3978 -0.1785  0.6428
 8714TIP3    H147633   5.905   6.872  12.183 -0.5952  1.0115  0.7937
 8714TIP3    H247634   5.754   6.858  12.193 -0.4199 -1.4983  0.6250
 8715TIP3   OH247635   2.893   4.091  10.102  0.1414  0.2831  0.2559
 8715TIP3    H147636   2.839   4.014  10.120 -0.0702  0.4207  0.2130
 8715TIP3    H247637   2.832   4.154  10.063  0.6850 -0.1804 -1.3863
 8716TIP3   OH247638   1.798   6.764   4.123  0.4442  0.6427 -0.7549
 8716TIP3    H147639   1.808   6.669   4.118  0.5913  0.6737 -1.0417
 8716TIP3    H247640   1.862   6.799   4.061  1.0304  0.9698  0.0154
 8717TIP3   OH247641   0.198   6.070  10.249 -0.2267 -0.5938  0.3813
 8717TIP3    H147642   0.117   6.094  10.203 -0.0281 -0.8620 -0.1154
 8717TIP3    H247643   0.182   6.094  10.340 -1.3086 -1.7126  0.5034
 8718TIP3   OH247644   0.581   4.684  13.099 -0.4580  0.5587  0.4174
 8718TIP3    H147645   0.610   4.743  13.168  2.8801  0.0547 -0.4046
 8718TIP3    H247646   0.642   4.698  13.027 -2.2582 -0.7729 -1.5042
 8719TIP3   OH247647   3.290   3.218   5.321  0.3440 -0.3635  0.4447
 8719TIP3    H147648   3.381   3.236   5.299 -0.2958  1.0438 -1.3240
 8719TIP3    H247649   3.261   3.157   5.253 -0.4563  0.5022 -0.0142
 8720TIP3   OH247650   4.638   0.535   1.108  0.6722 -0.3840  0.7924
 8720TIP3    H147651   4.622   0.521   1.015  2.5605 -1.7633  0.6244
 8720TIP3    H247652   4.569   0.596   1.135 -0.3205 -0.4695 -1.3354
 8721TIP3   OH247653   2.680   1.792   1.212 -0.3063  0.3269  0.0195
 8721TIP3    H147654   2.636   1.717   1.172 -0.4479 -0.4546  1.5634
 8721TIP3    H247655   2.650   1.867   1.162 -3.0550 -0.2199  0.6683
 8722TIP3   OH247656   2.325   6.710  14.872 -0.0771  0.0007  0.2267
 8722TIP3    H147657   2.372   6.639  14.915  0.3061 -0.3972 -0.8191
 8722TIP3    H247658   2.376   6.728  14.793 -0.9310  0.4958 -0.2262
 8723TIP3   OH247659   4.884   0.382  12.291  0.3525 -1.1120  0.2064
 8723TIP3    H147660   4.906   0.347  12.377  0.8091 -0.5341  0.3313
 8723TIP3    H247661   4.880   0.477  12.304  0.5084 -1.0136 -0.4271
 8724TIP3   OH247662   3.244   5.421  15.170  0.3031  0.0692 -0.4422
 8724TIP3    H147663   3.284   5.489  15.225 -0.4083  0.5153 -0.4585
 8724TIP3    H247664   3.244   5.459  15.082  2.6216 -1.1604 -1.0236
 8725TIP3   OH247665   1.966   5.555  14.118 -0.0111 -0.2048 -0.0369
 8725TIP3    H147666   1.888   5.578  14.068  0.3134 -0.8983 -0.8821
 8725TIP3    H247667   2.022   5.508  14.056  1.3903  0.8664  0.3533
 8726TIP3   OH247668   4.590   2.549   4.856 -0.4627 -0.1552 -0.1032
 8726TIP3    H147669   4.545   2.617   4.806 -1.5188 -0.5594  0.2553
 8726TIP3    H247670   4.677   2.542   4.817 -0.7655  0.5563 -0.9132
 8727TIP3   OH247671   3.090   3.719  11.698  0.2651  0.6375  0.4735
 8727TIP3    H147672   2.999   3.701  11.721  0.2687  0.4755  0.3589
 8727TIP3    H247673   3.105   3.808  11.729 -1.0852  2.2215 -2.8484
 8728TIP3   OH247674   0.929   3.392  12.907  0.6080  0.8341  0.1188
 8728TIP3    H147675   0.922   3.301  12.938 -1.0475  1.1973  0.9116
 8728TIP3    H247676   0.846   3.408  12.860  0.2127  2.3773  1.2700
 8729TIP3   OH247677   3.897   2.287  10.221  0.0524 -0.4248  0.3017
 8729TIP3    H147678   3.915   2.218  10.285  1.0648  1.2901  1.9726
 8729TIP3    H247679   3.876   2.364  10.274  0.0440  0.8517 -1.4552
 8730TIP3   OH247680   4.723   5.243   9.998 -0.5075  0.4419 -0.7265
 8730TIP3    H147681   4.691   5.168   9.949 -1.1203  0.1008  0.1606
 8730TIP3    H247682   4.790   5.282   9.942  0.7558 -1.5031 -0.6609
 8731TIP3   OH247683   3.290   3.104   0.647  0.0331 -0.2935  0.5518
 8731TIP3    H147684   3.201   3.099   0.683 -0.5017 -1.5995 -0.8249
 8731TIP3    H247685   3.343   3.141   0.718 -1.7680  1.4611  1.0627
 8732TIP3   OH247686   6.088   4.634   3.119  0.0137  0.5956  0.2654
 8732TIP3    H147687   6.152   4.659   3.186  2.1044  1.9846 -2.0420
 8732TIP3    H247688   6.131   4.563   3.071 -0.7640  0.6223 -0.4860
 8733TIP3   OH247689   1.864   5.979  10.626 -0.1846 -0.5040 -0.1649
 8733TIP3    H147690   1.804   6.042  10.667 -0.2469 -0.5418 -0.1982
 8733TIP3    H247691   1.881   5.914  10.694 -0.8640 -0.9660 -0.4298
 8734TIP3   OH247692   1.419   0.669   5.850 -0.3478  0.1184  0.1119
 8734TIP3    H147693   1.447   0.760   5.845 -0.9289  0.2979  0.0101
 8734TIP3    H247694   1.338   0.666   5.800 -0.3815 -0.4381  0.1890
 8735TIP3   OH247695   3.830   3.847  11.505  0.0331 -0.0323 -0.3758
 8735TIP3    H147696   3.897   3.877  11.566 -0.2785 -1.9616  1.0178
 8735TIP3    H247697   3.835   3.751  11.509 -0.4760 -0.2494 -2.8896
 8736TIP3   OH247698   1.450   4.840  13.418  0.8584  0.1312  0.5303
 8736TIP3    H147699   1.534   4.857  13.377  1.1689 -0.4543  0.9080
 8736TIP3    H247700   1.439   4.911  13.482  1.0961  0.1667  0.5312
 8737TIP3   OH247701   5.753   0.868   1.032  0.2214 -0.1181 -0.0508
 8737TIP3    H147702   5.766   0.841   0.941  0.2336 -1.2416  0.2650
 8737TIP3    H247703   5.839   0.857   1.073  0.1073 -0.0624  0.2070
 8738TIP3   OH247704   5.855   2.485   3.787 -0.0482  0.6092 -0.5647
 8738TIP3    H147705   5.784   2.443   3.836  1.2131  1.9307  2.6757
 8738TIP3    H247706   5.923   2.418   3.782 -0.0865  0.5516 -0.3117
 8739TIP3   OH247707   4.807   6.092  12.669 -0.0652  0.1819 -0.1468
 8739TIP3    H147708   4.775   6.101  12.579  2.9718 -0.6616 -1.4515
 8739TIP3    H247709   4.880   6.154  12.674  2.1820 -2.3134  0.4057
 8740TIP3   OH247710   3.809   0.393   4.505 -0.3502  0.1416  0.1263
 8740TIP3    H147711   3.800   0.450   4.582  0.4954  0.6596 -0.1400
 8740TIP3    H247712   3.821   0.454   4.432  2.1607 -0.3203  0.0354
 8741TIP3   OH247713   6.650   0.644  12.148  0.8373 -0.2711  0.0653
 8741TIP3    H147714   6.735   0.665  12.187  1.2997  0.8879 -1.4850
 8741TIP3    H247715   6.611   0.729  12.128 -1.7037 -0.6539  2.6917
 8742TIP3   OH247716   4.764   1.194  15.660 -0.0316  0.1962 -0.0360
 8742TIP3    H147717   4.852   1.201  15.622 -0.9609  1.6033 -2.1246
 8742TIP3    H247718   4.751   1.276  15.707 -0.7244  0.6351 -0.9587
 8743TIP3   OH247719   4.014   1.692  14.336  0.8692  0.4155 -0.4018
 8743TIP3    H147720   3.924   1.674  14.362  1.2148  1.1126  1.4167
 8743TIP3    H247721   4.066   1.626  14.382  1.3663  0.5507 -0.7648
 8744TIP3   OH247722   4.240   3.012   1.281 -0.2010  0.7279  0.1645
 8744TIP3    H147723   4.151   3.018   1.316 -0.7036  0.4541 -1.0296
 8744TIP3    H247724   4.240   3.070   1.205  0.7386  0.9644  0.3279
 8745TIP3   OH247725   1.360   1.933   4.241  0.1838 -0.6880 -0.4397
 8745TIP3    H147726   1.270   1.912   4.268  0.9411 -0.6846  2.3286
 8745TIP3    H247727   1.379   2.017   4.282  1.0115  0.0451 -2.2066
 8746TIP3   OH247728   7.056   4.639   4.690 -0.5749  0.6582  0.4532
 8746TIP3    H147729   7.150   4.646   4.708 -0.6958  1.3863  0.8500
 8746TIP3    H247730   7.023   4.579   4.758 -0.0214 -1.6236 -1.1648
 8747TIP3   OH247731   4.212   3.736  12.584 -0.1757 -0.1097  0.1331
 8747TIP3    H147732   4.270   3.799  12.541 -0.4074 -0.3526 -0.5465
 8747TIP3    H247733   4.242   3.734  12.675 -0.5744  1.4728  0.3289
 8748TIP3   OH247734   4.422   3.929  14.923 -0.1771 -0.3519  0.5094
 8748TIP3    H147735   4.343   3.877  14.937 -0.0258 -1.0246 -0.8754
 8748TIP3    H247736   4.404   3.976  14.841  0.7650 -0.3583  0.2944
 8749TIP3   OH247737   5.013   6.383   3.226  0.1392  0.1629 -0.0484
 8749TIP3    H147738   4.990   6.461   3.176 -0.8287  0.1807  0.3916
 8749TIP3    H247739   4.935   6.327   3.219  0.5862 -0.4924  0.1546
 8750TIP3   OH247740   4.812   5.690  14.458 -0.4894 -0.1308  0.4147
 8750TIP3    H147741   4.728   5.710  14.498  0.1939  0.6276  1.5125
 8750TIP3    H247742   4.877   5.715  14.524  0.6107 -0.2912 -0.5741
 8751TIP3   OH247743   1.313   1.297  10.817  0.4913 -0.3468  0.5583
 8751TIP3    H147744   1.387   1.302  10.878 -0.4373  0.4281  1.6568
 8751TIP3    H247745   1.267   1.216  10.841  0.6968 -0.5750  0.1967
 8752TIP3   OH247746   4.279   6.095  12.784 -0.1491 -0.1299  0.2418
 8752TIP3    H147747   4.350   6.141  12.741 -0.4392  0.8349  0.7682
 8752TIP3    H247748   4.285   6.005  12.752  1.3721 -0.0915  0.3727
 8753TIP3   OH247749   4.188   5.806  12.574  0.3277  0.3618 -0.4023
 8753TIP3    H147750   4.178   5.817  12.669  0.6380 -1.0122 -0.2004
 8753TIP3    H247751   4.179   5.712  12.559 -0.5335  0.6485 -1.8461
 8754TIP3   OH247752   5.546   2.491   4.434  0.7853 -0.1443 -0.3651
 8754TIP3    H147753   5.596   2.419   4.396  0.4444 -0.7941  0.3940
 8754TIP3    H247754   5.461   2.453   4.454 -0.4069  1.1715 -2.4911
 8755TIP3   OH247755   3.214   4.376   1.873  0.5226  0.2849  0.2380
 8755TIP3    H147756   3.238   4.366   1.965  2.0115  0.7048 -0.0771
 8755TIP3    H247757   3.130   4.424   1.875  0.1606 -0.3600  1.3716
 8756TIP3   OH247758   3.095   2.063  13.459 -0.2310  0.2564 -0.3447
 8756TIP3    H147759   3.108   2.098  13.371 -0.7667 -0.2349 -0.6322
 8756TIP3    H247760   3.112   1.969  13.450 -2.9816 -0.3165 -0.5917
 8757TIP3   OH247761   0.387   2.541   0.224  0.4104 -0.1505 -0.1774
 8757TIP3    H147762   0.364   2.557   0.132 -1.0128 -1.5260 -0.1162
 8757TIP3    H247763   0.320   2.589   0.273  0.2575 -0.6472  0.1037
 8758TIP3   OH247764   2.137   3.527  15.063  0.3467  0.0956 -0.1089
 8758TIP3    H147765   2.073   3.539  14.993  1.9021 -0.5336 -1.6885
 8758TIP3    H247766   2.104   3.452  15.113 -0.6929  0.4564 -0.2257
 8759TIP3   OH247767   1.864   5.759   4.190  0.0326  0.0313  0.1980
 8759TIP3    H147768   1.928   5.689   4.180 -0.6220 -0.7434  1.2145
 8759TIP3    H247769   1.838   5.780   4.100  1.8245  0.5177 -0.2556
 8760TIP3   OH247770   3.229   3.845  13.909 -0.7778 -0.6137 -0.0966
 8760TIP3    H147771   3.294   3.817  13.973  1.2693 -0.5812 -2.0352
 8760TIP3    H247772   3.241   3.940  13.903 -2.9939 -0.1314  1.4848
 8761TIP3   OH247773   3.553   4.203  11.778 -0.2060 -0.0661 -0.1478
 8761TIP3    H147774   3.550   4.282  11.725  0.1268 -1.4207 -2.3156
 8761TIP3    H247775   3.606   4.142  11.727 -1.2607 -2.0255  0.9770
 8762TIP3   OH247776   3.905   6.195   4.976  0.4305  0.6744 -0.2035
 8762TIP3    H147777   3.863   6.213   5.061 -0.8892  1.1739 -0.9284
 8762TIP3    H247778   3.890   6.102   4.962 -0.8070  0.9090 -0.6098
 8763TIP3   OH247779   0.578   5.259  15.102 -0.0552 -0.6726  0.3255
 8763TIP3    H147780   0.497   5.226  15.139 -0.3353  1.5198  1.8464
 8763TIP3    H247781   0.647   5.213  15.150 -0.4284  1.2112  2.9023
 8764TIP3   OH247782   3.062   6.568   4.277 -0.1532  0.2390 -0.6131
 8764TIP3    H147783   2.968   6.557   4.291 -0.1972 -0.0579 -1.1051
 8764TIP3    H247784   3.101   6.487   4.309 -0.0702  0.3257 -0.4911
 8765TIP3   OH247785   3.241   0.258   2.489 -0.4035 -0.3755 -0.5265
 8765TIP3    H147786   3.235   0.189   2.423  0.4637 -1.3581  0.3779
 8765TIP3    H247787   3.309   0.317   2.456 -0.4276 -0.5052 -0.8158
 8766TIP3   OH247788   1.345   4.184   3.758  0.4736  0.0574 -0.2251
 8766TIP3    H147789   1.329   4.158   3.849  0.9952 -0.1656 -0.1929
 8766TIP3    H247790   1.352   4.101   3.711  0.9829  0.1580 -0.3290
 8767TIP3   OH247791   3.297   6.553   4.851  0.5843 -0.1871  0.6551
 8767TIP3    H147792   3.243   6.485   4.891  0.8795 -1.5101 -1.0660
 8767TIP3    H247793   3.298   6.624   4.916 -3.1221 -0.0889  0.8080
 8768TIP3   OH247794   1.713   3.603   2.217 -0.2539  0.6248  0.0895
 8768TIP3    H147795   1.675   3.623   2.132 -1.6478  1.4798  0.8579
 8768TIP3    H247796   1.694   3.681   2.270  1.0185  0.3189  1.0510
 8769TIP3   OH247797   5.732   2.139   5.530 -0.0857  0.1551  0.3018
 8769TIP3    H147798   5.721   2.052   5.567 -1.2986 -1.2003 -2.8962
 8769TIP3    H247799   5.689   2.197   5.592  0.8528 -1.4493  2.5755
 8770TIP3   OH247800   4.923   1.093  15.387  0.3970  0.0026 -0.0138
 8770TIP3    H147801   4.941   1.119  15.297 -0.7275  1.9010  0.2491
 8770TIP3    H247802   5.002   1.116  15.435  0.6157 -0.0592 -0.3435
 8771TIP3   OH247803   2.263   4.810   3.821 -0.4570  0.1823 -0.4428
 8771TIP3    H147804   2.295   4.829   3.733 -0.1401  1.7429 -0.0270
 8771TIP3    H247805   2.217   4.727   3.812  0.1368 -0.0247 -1.9347
 8772TIP3   OH247806   0.238   2.961   5.125 -0.6103 -0.0086 -0.6923
 8772TIP3    H147807   0.327   2.932   5.144 -0.5910  1.1892  1.4239
 8772TIP3    H247808   0.249   3.034   5.064 -0.2198 -0.4602 -1.1666
 8773TIP3   OH247809   6.740   0.694   3.672  0.0376 -0.5220  0.1348
 8773TIP3    H147810   6.733   0.716   3.765  0.2986 -3.3271  0.8818
 8773TIP3    H247811   6.667   0.636   3.655  0.4299 -0.6481 -1.2528
 8774TIP3   OH247812   3.887   0.980  13.163  0.5845  0.0153  0.0967
 8774TIP3    H147813   3.846   1.067  13.160 -0.8183 -0.6075  0.5346
 8774TIP3    H247814   3.890   0.958  13.256 -0.3723 -0.9809 -0.0851
 8775TIP3   OH247815   6.839   0.757   1.774 -0.0876  0.0729 -0.0399
 8775TIP3    H147816   6.765   0.697   1.783  0.9303 -0.8849  5.6318
 8775TIP3    H247817   6.899   0.713   1.714 -2.0556 -1.4093 -1.0327
 8776TIP3   OH247818   6.584   4.669  11.815 -0.1785 -0.0678 -0.1642
 8776TIP3    H147819   6.623   4.581  11.818  1.6494  0.6832 -0.8855
 8776TIP3    H247820   6.578   4.695  11.906 -1.8355 -1.3710  0.1502
 8777TIP3   OH247821   0.889   0.304   3.139 -0.1742 -0.5501  0.0288
 8777TIP3    H147822   0.850   0.261   3.215 -0.2610  1.2607  1.0725
 8777TIP3    H247823   0.924   0.386   3.174  2.6185 -1.0887 -1.2943
 8778TIP3   OH247824   1.330   5.066   4.579  0.4403 -0.4391 -0.1254
 8778TIP3    H147825   1.421   5.057   4.549  1.2925  1.0588  1.7723
 8778TIP3    H247826   1.330   5.027   4.667 -0.6643 -0.0737  0.0518
 8779TIP3   OH247827   4.621   6.582   3.620  0.4701 -0.5810  0.2622
 8779TIP3    H147828   4.591   6.604   3.532  0.1056 -3.4889 -0.4472
 8779TIP3    H247829   4.562   6.511   3.648  1.6514 -0.8940  2.1367
 8780TIP3   OH247830   4.532   6.223   2.514 -0.1384  0.1463  0.1172
 8780TIP3    H147831   4.508   6.314   2.532 -1.6711 -0.1294 -0.4672
 8780TIP3    H247832   4.485   6.200   2.435  1.3506 -0.7419 -0.5613
 8781TIP3   OH247833   4.677   5.484   5.174 -0.4888  0.2141 -0.0959
 8781TIP3    H147834   4.633   5.569   5.172 -0.7655  0.1674  1.9767
 8781TIP3    H247835   4.606   5.420   5.174 -0.3402  0.0470  0.3893
 8782TIP3   OH247836   0.379   2.691   5.739 -0.3011 -0.2232 -0.8328
 8782TIP3    H147837   0.307   2.755   5.737 -0.3124 -0.2115 -0.0636
 8782TIP3    H247838   0.444   2.727   5.679  0.3032  1.2399  0.6393
 8783TIP3   OH247839   5.446   0.450   2.523 -0.3785  0.0850  0.5872
 8783TIP3    H147840   5.411   0.535   2.496  0.5084  0.3139  0.1009
 8783TIP3    H247841   5.486   0.415   2.443 -0.1600 -0.4960  0.9482
 8784TIP3   OH247842   5.803   0.108  10.058  0.0539  1.2078 -0.1437
 8784TIP3    H147843   5.757   0.048  10.000 -1.9387  2.5559 -0.0290
 8784TIP3    H247844   5.810   0.060  10.141  1.2473  0.0085 -0.8845
 8785TIP3   OH247845   0.650   6.796   0.404  0.0052  0.0193 -0.3794
 8785TIP3    H147846   0.708   6.722   0.390 -0.6944 -0.5076 -0.5790
 8785TIP3    H247847   0.680   6.864   0.344  0.3183 -0.3004 -0.5795
 8786TIP3   OH247848   1.379   5.260   2.710 -0.1406  0.9119 -0.1008
 8786TIP3    H147849   1.446   5.192   2.700  0.8403  1.8752 -0.2421
 8786TIP3    H247850   1.312   5.220   2.765  0.0758 -0.4096 -0.7535
 8787TIP3   OH247851   5.857   1.533  12.271 -0.0944  0.5121  0.5524
 8787TIP3    H147852   5.895   1.601  12.326  1.6890  0.0407 -0.0175
 8787TIP3    H247853   5.929   1.472  12.255 -1.6605 -1.6004  1.1442
 8788TIP3   OH247854   5.785   3.021  14.871 -0.2148 -0.5549  0.7051
 8788TIP3    H147855   5.878   3.003  14.886  0.3399  0.1326 -1.4326
 8788TIP3    H247856   5.783   3.065  14.786 -2.4833 -0.2336  0.8588
 8789TIP3   OH247857   3.976   1.345  11.350  0.0309 -0.6986  0.1537
 8789TIP3    H147858   3.991   1.305  11.265  0.0028 -0.5209  0.0642
 8789TIP3    H247859   3.884   1.329  11.370 -0.9320  2.1754 -1.4155
 8790TIP3   OH247860   3.939   4.848  12.657  1.0494  0.1158  0.3681
 8790TIP3    H147861   3.998   4.774  12.670 -0.8108 -1.2363  1.8546
 8790TIP3    H247862   3.919   4.878  12.746  0.1881  1.0806 -0.1263
 8791TIP3   OH247863   5.939   6.357  10.664  0.6250 -0.3947 -0.3998
 8791TIP3    H147864   5.846   6.371  10.681  0.6914 -0.5906  0.1471
 8791TIP3    H247865   5.948   6.367  10.569 -0.2372 -1.9328 -0.6727
 8792TIP3   OH247866   4.150   4.773  12.090  0.2113 -0.2150  0.0193
 8792TIP3    H147867   4.163   4.868  12.094  0.8657 -0.2520 -0.8242
 8792TIP3    H247868   4.239   4.737  12.093 -0.0488 -0.8247  0.7098
 8793TIP3   OH247869   0.417   3.206   5.292 -0.0433 -0.3243  0.2206
 8793TIP3    H147870   0.398   3.119   5.327 -2.5928 -1.1965 -2.8788
 8793TIP3    H247871   0.355   3.263   5.338 -0.7442 -0.7895 -0.1226
 8794TIP3   OH247872   2.901   3.249  15.512  0.1076  0.1364 -0.6092
 8794TIP3    H147873   2.859   3.281  15.592 -1.3557 -0.5906 -1.0551
 8794TIP3    H247874   2.920   3.328  15.462  2.0372  0.7085  0.8588
 8795TIP3   OH247875   4.249   4.406  14.300 -0.0283 -0.5186  0.3856
 8795TIP3    H147876   4.212   4.360  14.224  0.9168  1.1935 -1.1954
 8795TIP3    H247877   4.333   4.363  14.316  0.4347  0.0311 -0.4953
 8796TIP3   OH247878   3.980   2.944   0.197 -0.1185 -0.2854 -0.4828
 8796TIP3    H147879   3.969   3.035   0.226 -1.4659  0.4774 -3.0470
 8796TIP3    H247880   4.049   2.949   0.131 -0.2742 -1.1087 -0.7139
 8797TIP3   OH247881   4.540   1.363   0.993  1.1467 -0.3026 -0.1269
 8797TIP3    H147882   4.448   1.390   0.991  0.6999 -1.7772 -1.9260
 8797TIP3    H247883   4.537   1.268   1.004  2.5111 -0.2663  0.8016
 8798TIP3   OH247884   2.067   6.740  10.031 -0.0533 -0.1137 -0.6824
 8798TIP3    H147885   1.971   6.746  10.033 -0.0833 -0.6859  0.2991
 8798TIP3    H247886   2.088   6.737   9.938 -1.1283 -1.7021 -0.9177
 8799TIP3   OH247887   4.799   1.289   4.528  0.1008 -0.4119  0.5531
 8799TIP3    H147888   4.797   1.196   4.551  1.2131 -0.5615  0.1284
 8799TIP3    H247889   4.752   1.294   4.445  2.1295 -1.0318 -0.7097
 8800TIP3   OH247890   6.621   1.935   5.900  0.6152 -0.1980 -0.1858
 8800TIP3    H147891   6.595   1.905   5.987  0.6725  0.6425  0.1267
 8800TIP3    H247892   6.698   1.990   5.915  1.6034 -1.3003 -0.9370
 8801TIP3   OH247893   3.631   4.877  11.154  0.1635 -0.3578  0.0306
 8801TIP3    H147894   3.662   4.841  11.071 -0.4657  1.2315 -0.9197
 8801TIP3    H247895   3.589   4.960  11.131  1.4443  0.9605  2.1161
 8802TIP3   OH247896   5.599   2.176   4.609 -0.0546  0.4888  0.2379
 8802TIP3    H147897   5.518   2.210   4.646 -0.8172 -2.2948  1.4632
 8802TIP3    H247898   5.588   2.081   4.610  2.4485  0.0554 -1.4563
 8803TIP3   OH247899   6.451   3.064  11.526  0.1633 -0.1348 -0.1314
 8803TIP3    H147900   6.442   3.066  11.622  0.4135  1.1811 -0.1067
 8803TIP3    H247901   6.511   2.992  11.508  0.3804 -0.1798  0.7294
 8804TIP3   OH247902   1.373   7.114  12.821 -0.0590 -0.2473  0.3825
 8804TIP3    H147903   1.450   7.162  12.790  0.0443  0.3970  1.5704
 8804TIP3    H247904   1.306   7.181  12.832 -0.9863 -0.8715 -1.1202
 8805TIP3   OH247905   6.538   5.351   9.796 -0.1218 -0.2473  1.0692
 8805TIP3    H147906   6.622   5.308   9.809  0.5318  1.0460  1.2182
 8805TIP3    H247907   6.507   5.317   9.711  2.0440  1.6036 -0.5956
 8806TIP3   OH247908   2.513   1.987  13.996  0.4169  0.1476  0.0975
 8806TIP3    H147909   2.533   2.014  13.907  0.4295  0.7062  0.2690
 8806TIP3    H247910   2.591   2.011  14.046  0.6937 -0.7779  0.1452
 8807TIP3   OH247911   4.475   0.338   1.208 -0.2807  0.2377  0.3208
 8807TIP3    H147912   4.539   0.386   1.156 -0.0754 -0.3724 -0.0012
 8807TIP3    H247913   4.403   0.320   1.147 -1.0124  1.3570  0.8059
 8808TIP3   OH247914   2.061   3.366   4.631  0.0037  0.3011 -0.1148
 8808TIP3    H147915   2.003   3.294   4.655  0.0910  0.1923 -0.2298
 8808TIP3    H247916   2.070   3.417   4.711  0.2375 -0.0209  0.0695
 8809TIP3   OH247917   4.370   2.114  10.914  0.4507 -0.5629  0.6970
 8809TIP3    H147918   4.356   2.199  10.956  1.3095 -0.7039  1.3089
 8809TIP3    H247919   4.395   2.136  10.824  2.5694 -0.0287  1.3422
 8810TIP3   OH247920   6.190   1.861   9.199  0.2461  0.5431 -0.6973
 8810TIP3    H147921   6.146   1.784   9.164  0.5692  0.0191  0.0306
 8810TIP3    H247922   6.120   1.925   9.212 -0.4742 -0.5342  1.1455
 8811TIP3   OH247923   1.690   5.711  10.511 -0.1902 -0.1676 -0.2851
 8811TIP3    H147924   1.619   5.671  10.462  0.4142 -0.6301 -0.8016
 8811TIP3    H247925   1.696   5.660  10.592 -3.1005  2.3526  1.7332
 8812TIP3   OH247926   3.943   0.623   3.470  0.8686  0.5734 -0.2808
 8812TIP3    H147927   3.955   0.666   3.385  0.8074  0.9288 -0.1121
 8812TIP3    H247928   3.923   0.532   3.449 -0.1220  0.8742 -0.6809
 8813TIP3   OH247929   1.076   0.582   9.684 -0.0834  0.3250  0.3076
 8813TIP3    H147930   1.114   0.642   9.748  1.3146 -0.3152  0.1228
 8813TIP3    H247931   0.999   0.629   9.650 -0.0289  1.2627  1.4031
 8814TIP3   OH247932   6.254   3.394   2.071 -0.4232  0.3176  0.3003
 8814TIP3    H147933   6.256   3.357   1.982  0.5413 -0.2557  0.5457
 8814TIP3    H247934   6.324   3.349   2.117 -0.3568  1.2262  1.1188
 8815TIP3   OH247935   1.122   3.292   1.700  0.7279 -0.2982  0.9605
 8815TIP3    H147936   1.082   3.371   1.664  0.4625 -0.5670  0.6551
 8815TIP3    H247937   1.155   3.245   1.623  2.6982  0.4774  1.2938
 8816TIP3   OH247938   5.330   6.025   0.347  0.0366 -0.5222 -0.7531
 8816TIP3    H147939   5.271   6.072   0.288 -0.8206 -0.9092 -0.2303
 8816TIP3    H247940   5.414   6.069   0.338 -0.4563  0.3531 -1.1633
 8817TIP3   OH247941   6.882   3.547   0.326  0.5427  0.3717 -0.1451
 8817TIP3    H147942   6.838   3.600   0.259  1.9303  1.9899  0.1412
 8817TIP3    H247943   6.965   3.522   0.285  1.4188  1.3965  0.9357
 8818TIP3   OH247944   2.217   3.146   2.182  0.4190 -0.2250  0.2736
 8818TIP3    H147945   2.151   3.196   2.134 -0.2100  0.6667  1.9831
 8818TIP3    H247946   2.275   3.112   2.114 -2.4153 -2.0581 -1.4320
 8819TIP3   OH247947   2.734   1.710  12.331 -1.0219 -0.1429  0.3576
 8819TIP3    H147948   2.775   1.764  12.399 -1.2579 -1.7079  1.8022
 8819TIP3    H247949   2.724   1.624  12.371  1.6606 -2.1053 -2.6012
 8820TIP3   OH247950   2.518   3.339   1.969 -0.4287  0.2891  0.2740
 8820TIP3    H147951   2.602   3.384   1.978 -0.6292  1.0897 -1.3842
 8820TIP3    H247952   2.540   3.258   1.923 -0.5282  0.4283 -0.0236
 8821TIP3   OH247953   6.079   6.860  13.093  0.1330 -0.1467 -0.1290
 8821TIP3    H147954   6.144   6.912  13.141  1.0207 -1.5414  0.2426
 8821TIP3    H247955   6.130   6.790  13.052 -0.9492 -0.4027 -1.0893
 8822TIP3   OH247956   1.756   5.459  13.499  0.0747 -0.4372 -0.0032
 8822TIP3    H147957   1.828   5.521  13.489 -1.2221  1.0372 -0.5698
 8822TIP3    H247958   1.766   5.398  13.426 -0.0501  0.6228 -0.9349
 8823TIP3   OH247959   3.294   3.298  12.893 -0.0591 -0.1935  0.3078
 8823TIP3    H147960   3.344   3.256  12.822  0.9325 -1.1034  1.4890
 8823TIP3    H247961   3.323   3.389  12.893  2.3811 -0.8786  1.5249
 8824TIP3   OH247962   2.400   2.267  12.475  0.0161  0.2745  0.4189
 8824TIP3    H147963   2.354   2.345  12.446 -0.5477 -0.3956 -0.5599
 8824TIP3    H247964   2.439   2.230  12.395 -0.1430 -0.7000  0.7713
 8825TIP3   OH247965   5.961   5.143   2.976  0.3365 -0.7432  0.2581
 8825TIP3    H147966   5.936   5.235   2.969 -1.4670 -1.2607 -0.8502
 8825TIP3    H247967   5.886   5.095   2.941  0.3709 -2.7504  2.6363
 8826TIP3   OH247968   1.196   4.360  14.358  0.4895  0.2565  0.7980
 8826TIP3    H147969   1.288   4.335  14.346  0.1468 -0.1813 -1.3521
 8826TIP3    H247970   1.159   4.290  14.412  0.3292 -2.4092 -2.4112
 8827TIP3   OH247971   4.096   3.808   3.532 -0.6439 -0.0450  0.0887
 8827TIP3    H147972   4.040   3.752   3.586 -2.0266  2.4305  1.3912
 8827TIP3    H247973   4.136   3.869   3.594  0.5120  0.6906 -1.3093
 8828TIP3   OH247974   0.204   3.907   3.211  0.3794  0.3712  0.2443
 8828TIP3    H147975   0.240   3.983   3.259  0.1939  1.2602 -0.9770
 8828TIP3    H247976   0.164   3.945   3.133 -1.8107 -0.7633  0.7340
 8829TIP3   OH247977   2.798   6.296  14.533 -0.4820  0.0077  0.5439
 8829TIP3    H147978   2.860   6.251  14.591 -1.0864  0.3102  1.4478
 8829TIP3    H247979   2.765   6.369  14.586  0.5376  1.6024 -0.8981
 8830TIP3   OH247980   1.245   1.089  12.854 -0.1062  0.1719  1.0923
 8830TIP3    H147981   1.308   1.156  12.882 -1.1400  1.5679  0.2170
 8830TIP3    H247982   1.203   1.061  12.935  0.2076  0.7203  1.4589
 8831TIP3   OH247983   6.875   5.520   9.644 -0.1766 -0.4416 -0.0440
 8831TIP3    H147984   6.827   5.462   9.703 -0.4216  0.7069  0.9086
 8831TIP3    H247985   6.921   5.460   9.585 -1.4828 -1.5901  0.0373
 8832TIP3   OH247986   4.605   2.271   4.126  0.6059  0.2376 -0.0761
 8832TIP3    H147987   4.656   2.190   4.122  0.5470  0.1742  0.4280
 8832TIP3    H247988   4.606   2.304   4.036  1.6226  0.2814 -0.0643
 8833TIP3   OH247989   4.305   5.223  10.548 -0.4104  0.1179  0.0574
 8833TIP3    H147990   4.279   5.268  10.467  2.5542  2.1364  0.0656
 8833TIP3    H247991   4.299   5.290  10.616  1.8507 -0.1018  0.5452
 8834TIP3   OH247992   2.685   0.510   4.605  0.3361 -0.3953  0.6954
 8834TIP3    H147993   2.607   0.561   4.629 -1.0846 -1.7477 -0.7696
 8834TIP3    H247994   2.744   0.574   4.566 -0.5846  0.4633  0.6750
 8835TIP3   OH247995   3.468   0.914   3.580  0.1294  0.4442 -0.2970
 8835TIP3    H147996   3.411   0.918   3.503 -0.7102  0.3360  0.2936
 8835TIP3    H247997   3.456   0.825   3.613  0.3536  0.5399  0.0425
 8836TIP3   OH247998   6.036   0.961  10.842  0.3095  0.0224  0.7738
 8836TIP3    H147999   5.976   0.893  10.871  1.2995 -1.7458 -1.0336
 8836TIP3    H248000   6.017   0.972  10.749  1.0223  1.3442  0.7540
 8837TIP3   OH248001   6.133   3.406  14.602  0.6875  0.4329  0.2480
 8837TIP3    H148002   6.053   3.366  14.636 -0.6802  1.4979 -1.5136
 8837TIP3    H248003   6.187   3.424  14.679 -1.0343  0.2313  1.5382
 8838TIP3   OH248004   3.220   0.497  13.133 -0.2075 -0.1388  0.3417
 8838TIP3    H148005   3.191   0.494  13.224 -0.4477 -1.9380  0.2371
 8838TIP3    H248006   3.268   0.415  13.121 -1.9921 -0.9659 -1.7122
 8839TIP3   OH248007   3.069   2.749   3.053 -0.3310  0.1189  0.3997
 8839TIP3    H148008   3.123   2.690   3.105  1.7728  1.4057 -0.1865
 8839TIP3    H248009   3.052   2.701   2.972  0.9151  0.0652  0.1414
 8840TIP3   OH248010   5.586   6.408  14.575 -0.4008  0.0326  0.5438
 8840TIP3    H148011   5.598   6.389  14.668  0.3453 -1.8397  0.1271
 8840TIP3    H248012   5.492   6.423  14.565 -1.1366 -3.4095  1.0908
 8841TIP3   OH248013   6.420   3.152  14.146  0.1611  0.3360  0.3614
 8841TIP3    H148014   6.463   3.194  14.221  0.9465  0.4246 -0.1390
 8841TIP3    H248015   6.421   3.059  14.168 -0.2308  0.4199  0.7704
 8842TIP3   OH248016   5.186   5.592  13.233 -0.0963 -0.2869  0.3628
 8842TIP3    H148017   5.173   5.664  13.295  2.4929  0.5306  0.1061
 8842TIP3    H248018   5.223   5.635  13.155 -0.1128 -1.6947 -0.4496
 8843TIP3   OH248019   7.013   4.043  14.057 -0.1257 -0.4934 -0.9193
 8843TIP3    H148020   6.921   4.050  14.079 -0.4859  0.3461 -2.5429
 8843TIP3    H248021   7.022   3.955  14.020 -0.3707 -0.4206 -1.1551
 8844TIP3   OH248022   5.651   1.488  10.177 -0.5804 -0.1498 -0.0214
 8844TIP3    H148023   5.612   1.557  10.231  0.7966  0.7442 -0.1145
 8844TIP3    H248024   5.680   1.534  10.098 -0.5002 -1.0284 -0.5118
 8845TIP3   OH248025   4.972   3.263  10.303 -0.1193 -0.2627 -0.2253
 8845TIP3    H148026   4.961   3.328  10.233  2.0542  1.1198  0.5740
 8845TIP3    H248027   4.947   3.180  10.263 -0.5967  0.7149 -2.0969
 8846TIP3   OH248028   2.823   3.115  14.735 -0.1584  0.7624 -0.3992
 8846TIP3    H148029   2.776   3.121  14.651 -0.0029  0.0333 -0.5405
 8846TIP3    H248030   2.810   3.202  14.775  0.7562  1.5251 -1.6921
 8847TIP3   OH248031   0.764   2.196   0.908 -0.5503 -0.2907  0.5923
 8847TIP3    H148032   0.837   2.177   0.849 -1.3145 -1.6374  0.0251
 8847TIP3    H248033   0.778   2.140   0.984 -0.9729 -0.5337  0.4951
 8848TIP3   OH248034   6.548   2.516  14.616 -0.2906 -0.0781  0.3770
 8848TIP3    H148035   6.616   2.550  14.674 -0.6440 -0.0561  0.7838
 8848TIP3    H248036   6.583   2.433  14.584  0.6346  0.7082 -0.7325
 8849TIP3   OH248037   0.636   5.448  13.114 -0.2832 -0.3969  0.0081
 8849TIP3    H148038   0.731   5.442  13.106 -0.2931 -1.2832  0.4924
 8849TIP3    H248039   0.615   5.535  13.079  0.6715 -0.2966 -0.3472
 8850TIP3   OH248040   7.025   5.212   0.101  0.1755 -0.2971 -0.3131
 8850TIP3    H148041   6.993   5.123   0.090 -1.3639  0.3104 -0.9796
 8850TIP3    H248042   7.033   5.246   0.012  2.4376 -0.2936 -0.1701
 8851TIP3   OH248043   7.010   5.155  11.643 -0.2523  0.5408  0.3509
 8851TIP3    H148044   7.082   5.191  11.695  0.4629 -2.4499  1.6152
 8851TIP3    H248045   7.008   5.062  11.665 -4.3135  0.3939  0.0813
 8852TIP3   OH248046   4.623   0.962   0.326  0.7195 -0.0335 -0.3478
 8852TIP3    H148047   4.533   0.948   0.296 -0.1027 -0.1279  1.9353
 8852TIP3    H248048   4.614   0.985   0.419  3.1463 -1.9459  0.4881
 8853TIP3   OH248049   4.829   5.944  10.932 -0.1488  0.0616  0.2985
 8853TIP3    H148050   4.761   6.007  10.909  0.2506  0.4447  0.1684
 8853TIP3    H248051   4.897   5.954  10.865  0.2547  0.0148  0.6915
 8854TIP3   OH248052   0.735   5.164  13.359 -0.1590 -0.5409  0.3536
 8854TIP3    H148053   0.782   5.168  13.442 -0.2585  0.7026  0.3652
 8854TIP3    H248054   0.713   5.255  13.339 -5.6199 -1.1054  2.0818
 8855TIP3   OH248055   0.752   2.579   3.187 -1.0260 -0.0931 -0.2280
 8855TIP3    H148056   0.805   2.503   3.210  1.5025  1.5924 -0.0068
 8855TIP3    H248057   0.668   2.543   3.159 -0.6794 -2.7979  1.8514
 8856TIP3   OH248058   6.299   3.462  11.537 -1.1955 -0.8498 -0.2091
 8856TIP3    H148059   6.246   3.461  11.457 -0.9217  0.8718 -0.4552
 8856TIP3    H248060   6.264   3.535  11.588  0.3536 -0.2325  0.0257
 8857TIP3   OH248061   5.195   1.419  13.516 -0.1890  0.0635  0.4081
 8857TIP3    H148062   5.100   1.415  13.521 -0.1165 -2.2810  1.5593
 8857TIP3    H248063   5.225   1.421  13.607  0.8751  1.5195  0.0589
 8858TIP3   OH248064   5.880   2.886   4.623 -0.3805  0.3944  0.1368
 8858TIP3    H148065   5.963   2.848   4.592 -0.3026  0.2852  0.4797
 8858TIP3    H248066   5.813   2.839   4.573 -0.2422  0.4066 -0.0617
 8859TIP3   OH248067   5.353   7.128  12.705  0.5970  0.1992 -0.4503
 8859TIP3    H148068   5.436   7.176  12.706  1.0682 -0.5988 -0.1669
 8859TIP3    H248069   5.289   7.191  12.672  0.9036  1.4956  1.2867
 8860TIP3   OH248070   0.317   2.266   4.243  0.0755 -0.9118  0.8269
 8860TIP3    H148071   0.334   2.359   4.232 -2.3827 -0.6898 -3.4206
 8860TIP3    H248072   0.381   2.223   4.187 -1.8485 -1.2710 -1.2378
 8861TIP3   OH248073   4.919   4.646  12.840 -0.0741  0.3443 -0.1055
 8861TIP3    H148074   4.878   4.688  12.915  1.0991  1.7844 -0.2146
 8861TIP3    H248075   4.859   4.661  12.767 -1.6489 -1.8295  0.6623
 8862TIP3   OH248076   4.196   6.443   2.316  0.3074  0.1121  0.6753
 8862TIP3    H148077   4.145   6.365   2.335  0.1279 -0.2468 -1.0812
 8862TIP3    H248078   4.278   6.431   2.362  0.6469 -1.5745 -0.2795
 8863TIP3   OH248079   6.492   3.218  11.308  0.2094  0.3563 -1.2778
 8863TIP3    H148080   6.410   3.216  11.258 -0.5988  0.9678 -0.0317
 8863TIP3    H248081   6.475   3.165  11.385  1.1476  0.1266 -1.2185
 8864TIP3   OH248082   0.718   2.775   2.695 -0.1185  0.0156  0.9248
 8864TIP3    H148083   0.711   2.857   2.645  2.6816 -0.3744 -0.2976
 8864TIP3    H248084   0.652   2.718   2.656 -0.8145  1.0753  0.4984
 8865TIP3   OH248085   3.718   4.606   3.699  0.1099  0.3990 -0.1005
 8865TIP3    H148086   3.685   4.519   3.719 -1.7830  0.9224 -0.6402
 8865TIP3    H248087   3.645   4.648   3.652  0.2783  2.8455  1.6415
 8866TIP3   OH248088   1.488   1.951  11.386 -0.3013 -0.3361 -0.5223
 8866TIP3    H148089   1.579   1.939  11.361 -0.2552 -1.5980  0.1849
 8866TIP3    H248090   1.480   1.906  11.470 -1.8796 -1.3939 -1.1901
 8867TIP3   OH248091   5.082   3.671  15.752  0.9426  0.7825 -0.0740
 8867TIP3    H148092   5.054   3.674  15.660 -1.8542  0.6774  0.6873
 8867TIP3    H248093   5.124   3.585  15.761 -1.2830 -0.4508 -0.6771
 8868TIP3   OH248094   2.195   0.577   5.589 -0.0838  0.0029  0.1014
 8868TIP3    H148095   2.217   0.488   5.562  0.9613  0.6605 -1.3589
 8868TIP3    H248096   2.247   0.592   5.669  0.4824 -0.3673 -0.1937
 8869TIP3   OH248097   0.684   1.142   3.282  0.2983 -0.2084  0.2617
 8869TIP3    H148098   0.691   1.206   3.211 -0.6396  0.2706  0.5903
 8869TIP3    H248099   0.722   1.062   3.245  0.9635  0.3743 -0.3455
 8870TIP3   OH248100   5.305   6.298  11.400 -0.4054 -0.1537 -0.1792
 8870TIP3    H148101   5.227   6.352  11.414 -0.8111 -0.8110  0.1445
 8870TIP3    H248102   5.378   6.354  11.426 -0.6958  0.7709 -1.3016
 8871TIP3   OH248103   1.583   1.993   3.053  0.5061  0.2507 -0.3536
 8871TIP3    H148104   1.502   2.032   3.020  0.1781 -0.0659  0.0541
 8871TIP3    H248105   1.597   1.916   2.997 -1.1939 -1.5145  1.4630
 8872TIP3   OH248106   2.580   2.017  14.688  0.0745 -0.2192 -0.2666
 8872TIP3    H148107   2.615   1.930  14.711 -0.4564 -0.1451  0.9543
 8872TIP3    H248108   2.529   2.002  14.608  0.0328 -1.0323 -0.1010
 8873TIP3   OH248109   0.363   0.383   0.588 -0.0359  0.4866  0.1324
 8873TIP3    H148110   0.285   0.384   0.642  0.3483 -0.3691  0.7260
 8873TIP3    H248111   0.425   0.440   0.633 -0.7027  2.1554 -0.9754
 8874TIP3   OH248112   2.726   6.692  14.979  0.2768 -0.0370 -0.6120
 8874TIP3    H148113   2.658   6.668  15.041  1.8588 -1.6552  0.6165
 8874TIP3    H248114   2.773   6.610  14.962  2.0987  1.0529 -1.1404
 8875TIP3   OH248115   6.620   0.321  12.517 -0.8264  0.3544  0.4911
 8875TIP3    H148116   6.528   0.313  12.493 -1.1327 -0.8070  1.8750
 8875TIP3    H248117   6.618   0.349  12.609  0.2349  1.9543  0.0545
 8876TIP3   OH248118   2.958   5.425   9.688 -0.0563  0.4361 -0.1177
 8876TIP3    H148119   2.981   5.472   9.768  2.0620  1.2321 -1.1125
 8876TIP3    H248120   2.868   5.452   9.669 -0.3576  0.7289  1.6240
 8877TIP3   OH248121   0.745   5.540  10.904 -0.6248  0.0797 -0.5580
 8877TIP3    H148122   0.808   5.597  10.860  0.4623 -1.0104 -0.4598
 8877TIP3    H248123   0.735   5.578  10.992  0.6018 -0.2402 -0.2647
 8878TIP3   OH248124   1.623   5.288   0.106 -0.1399  0.2415  0.3348
 8878TIP3    H148125   1.668   5.366   0.073 -1.2721  0.4473 -0.7999
 8878TIP3    H248126   1.580   5.317   0.186  1.0408  0.2434  1.0027
 8879TIP3   OH248127   6.730   1.746  15.220 -0.7223 -0.3351  0.0179
 8879TIP3    H148128   6.692   1.688  15.154  0.0004 -0.3595 -0.3865
 8879TIP3    H248129   6.683   1.829  15.208 -1.2676 -0.6198  0.1280
 8880TIP3   OH248130   2.610   6.851  14.373 -0.1072 -0.0760 -0.5230
 8880TIP3    H148131   2.655   6.859  14.289 -3.2673 -0.0834 -2.4206
 8880TIP3    H248132   2.633   6.930  14.421  1.5987  0.0506 -1.4915
 8881TIP3   OH248133   0.604   6.608   2.133 -0.7710  0.2924  0.0910
 8881TIP3    H148134   0.525   6.622   2.185 -0.0050  0.3436  1.2713
 8881TIP3    H248135   0.676   6.635   2.190  0.1366 -0.1889 -0.7911
 8882TIP3   OH248136   0.964   6.232   2.664  0.2027 -0.1340 -0.0164
 8882TIP3    H148137   0.928   6.284   2.736 -0.1915 -1.7915  1.0417
 8882TIP3    H248138   0.891   6.178   2.635  0.8234 -0.7474 -0.4613
 8883TIP3   OH248139   5.365   1.206  13.481  0.2977  0.0221  0.2536
 8883TIP3    H148140   5.298   1.145  13.511  0.7168 -0.0214  1.1175
 8883TIP3    H248141   5.316   1.285  13.458 -0.0208  0.1286  1.2500
 8884TIP3   OH248142   2.977   3.554  15.594  0.1844 -0.5104  0.3053
 8884TIP3    H148143   2.921   3.542  15.671 -0.3299  0.1500  0.0397
 8884TIP3    H248144   3.066   3.537  15.627 -0.0476 -0.3997  1.0081
 8885TIP3   OH248145   4.838   1.598   4.610 -0.1529 -0.2036  0.1490
 8885TIP3    H148146   4.781   1.549   4.551 -0.3796  1.9646 -1.5759
 8885TIP3    H248147   4.800   1.585   4.697 -1.0287 -1.8315 -0.4501
 8886TIP3   OH248148   5.701   0.661  11.622 -0.1590 -0.5246 -0.1653
 8886TIP3    H148149   5.699   0.640  11.715 -3.0297 -1.3586 -0.3213
 8886TIP3    H248150   5.760   0.597  11.584  0.2501 -0.8210  0.9333
 8887TIP3   OH248151   5.613   1.558  12.656  0.5984  0.0123 -0.0063
 8887TIP3    H148152   5.576   1.644  12.674 -1.2487 -0.6468 -0.4043
 8887TIP3    H248153   5.613   1.551  12.561  0.8184 -0.3899  0.0218
 8888TIP3   OH248154   6.363   0.097  13.311  0.1534 -0.3444  1.0135
 8888TIP3    H148155   6.301   0.076  13.242 -0.3809 -0.1590  1.4283
 8888TIP3    H248156   6.447   0.108  13.266 -0.1776 -0.2660  0.4065
 8889TIP3   OH248157   2.533   1.762   0.297  0.4240 -0.3233 -0.3765
 8889TIP3    H148158   2.618   1.774   0.255  0.4891 -1.5581 -0.6404
 8889TIP3    H248159   2.516   1.668   0.291 -1.1550 -0.0497 -0.7099
 8890TIP3   OH248160   6.586   6.847   5.541 -0.3278  0.2160  0.1701
 8890TIP3    H148161   6.568   6.866   5.633 -0.1506  0.9772  0.0548
 8890TIP3    H248162   6.671   6.888   5.524  1.2602 -2.6566  0.5025
 8891TIP3   OH248163   6.827   3.325  12.039 -0.0184  0.0674  0.1805
 8891TIP3    H148164   6.887   3.251  12.044 -0.0084  0.0694  0.0854
 8891TIP3    H248165   6.879   3.401  12.065  0.4369  0.3129 -1.3547
 8892TIP3   OH248166   1.512   4.866   3.501  0.5145 -0.2509  0.8371
 8892TIP3    H148167   1.484   4.958   3.500 -0.7437 -0.5307 -2.8352
 8892TIP3    H248168   1.595   4.867   3.548 -1.0053  2.1516  3.8349
 8893TIP3   OH248169   5.129   0.669  11.643 -0.2478 -0.2832 -0.9088
 8893TIP3    H148170   5.141   0.755  11.602 -2.6969  0.3369 -0.4865
 8893TIP3    H248171   5.176   0.609  11.585  3.3246  1.4814 -0.1045
 8894TIP3   OH248172   6.615   5.600  10.829 -0.1438 -0.2578 -0.0160
 8894TIP3    H148173   6.597   5.543  10.904 -2.8084  0.2318 -0.1553
 8894TIP3    H248174   6.541   5.661  10.827  2.0264  2.5871 -0.5169
 8895TIP3   OH248175   5.877   3.003   4.295 -0.5636  0.2411  0.2610
 8895TIP3    H148176   5.858   2.909   4.300 -2.1728  0.5592  0.5398
 8895TIP3    H248177   5.956   3.014   4.348 -1.0021 -0.7835  1.1588
 8896TIP3   OH248178   3.356   6.681   3.706  0.0619  0.2256 -0.1107
 8896TIP3    H148179   3.304   6.619   3.756  0.9291  0.6852  1.4508
 8896TIP3    H248180   3.419   6.627   3.658  0.7654 -0.1594  1.1835
 8897TIP3   OH248181   3.904   1.362  13.864  0.1707  0.8395 -0.1193
 8897TIP3    H148182   3.986   1.323  13.836  0.2491  0.6801  0.3279
 8897TIP3    H248183   3.890   1.435  13.803  0.2063  0.3449 -0.7269
 8898TIP3   OH248184   1.696   6.944  14.449  0.0904  0.0567 -0.1729
 8898TIP3    H148185   1.615   6.949  14.398 -0.5207  0.9164  0.8425
 8898TIP3    H248186   1.763   6.978  14.390 -0.7877  2.1517 -0.0456
 8899TIP3   OH248187   4.036   3.269   3.542  0.6336 -0.7385  0.0295
 8899TIP3    H148188   3.983   3.190   3.553  1.0034 -1.8066 -4.1047
 8899TIP3    H248189   3.994   3.334   3.598 -2.0907 -2.8319  0.6223
 8900TIP3   OH248190   1.277   2.845   2.535  0.2447  0.2795 -0.3080
 8900TIP3    H148191   1.336   2.775   2.563  1.2044  0.9547 -0.5611
 8900TIP3    H248192   1.191   2.818   2.565  0.2352 -1.9461 -2.0590
 8901TIP3   OH248193   3.788   7.008  10.588 -0.6546 -0.1768  0.0300
 8901TIP3    H148194   3.795   7.101  10.609 -0.9986 -0.0965 -0.2062
 8901TIP3    H248195   3.724   6.974  10.651 -1.8693  0.1127 -1.0023
 8902TIP3   OH248196   3.298   6.646   4.481 -0.3673 -0.0984 -0.2061
 8902TIP3    H148197   3.377   6.603   4.513  1.0878 -0.0824 -3.4239
 8902TIP3    H248198   3.307   6.737   4.511  1.0289 -0.0196 -0.7871
 8903TIP3   OH248199   3.148   2.895   2.194  0.1341 -0.3196 -0.2739
 8903TIP3    H148200   3.239   2.903   2.166  0.3609 -1.1664  0.1690
 8903TIP3    H248201   3.097   2.918   2.117  0.7225  0.2604 -0.5025
 8904TIP3   OH248202   0.525   2.344  12.327  0.3251  0.0460 -0.2006
 8904TIP3    H148203   0.583   2.325  12.252 -0.2705 -0.4500 -0.5404
 8904TIP3    H248204   0.576   2.316  12.403  1.4286  1.6389 -0.2835
 8905TIP3   OH248205   0.117   0.503   4.011 -0.3709  0.0811  0.3691
 8905TIP3    H148206   0.101   0.454   4.091  1.0720 -0.3639  0.4039
 8905TIP3    H248207   0.164   0.443   3.954  0.2374  0.9880 -0.1092
 8906TIP3   OH248208   2.819   0.117  12.336 -0.0029 -0.5813  0.8409
 8906TIP3    H148209   2.902   0.147  12.299  0.1650 -1.2130  0.6842
 8906TIP3    H248210   2.812   0.161  12.420  0.2818 -0.1896  0.6600
 8907TIP3   OH248211   0.131   4.672   3.634  0.9240 -0.1005  0.0520
 8907TIP3    H148212   0.222   4.673   3.667  1.6324 -1.3270 -1.7137
 8907TIP3    H248213   0.078   4.680   3.713  2.5358  2.2390  1.0226
 8908TIP3   OH248214   5.659   7.075   3.276  0.1942 -0.6476 -0.1480
 8908TIP3    H148215   5.640   7.058   3.368 -0.3258  0.0743 -0.1159
 8908TIP3    H248216   5.653   6.989   3.234 -3.2379 -0.5452 -0.1401
 8909TIP3   OH248217   4.103   5.442  11.200  0.5029 -0.1247  0.0122
 8909TIP3    H148218   4.146   5.504  11.259  0.3428  0.2268 -0.2326
 8909TIP3    H248219   4.152   5.360  11.211  0.9129  0.1296  0.1132
 8910TIP3   OH248220   2.344   7.033  10.385  0.3057 -0.4698  0.1661
 8910TIP3    H148221   2.302   6.982  10.316 -2.3274 -1.0731  2.0590
 8910TIP3    H248222   2.314   7.123  10.371  1.8194 -0.0806 -0.8741
 8911TIP3   OH248223   5.286   6.843  14.932  0.5686  0.9361  0.0662
 8911TIP3    H148224   5.232   6.773  14.969  2.2651  0.0051  0.9279
 8911TIP3    H248225   5.225   6.897  14.882 -0.8903 -0.9320 -0.2997
 8912TIP3   OH248226   3.965   6.582  13.869  0.4496  0.4138  0.1037
 8912TIP3    H148227   4.043   6.527  13.876  1.4586  1.7472 -0.2395
 8912TIP3    H248228   3.998   6.668  13.840 -1.2166  0.8124 -0.7837
 8913TIP3   OH248229   5.079   5.353   0.522  0.1674  0.0716  0.0607
 8913TIP3    H148230   5.128   5.284   0.477  0.2859  0.8360 -1.0169
 8913TIP3    H248231   5.143   5.422   0.537 -0.5841  1.2029 -1.6134
 8914TIP3   OH248232   2.594   5.897  12.695 -0.1314  0.5409 -0.4844
 8914TIP3    H148233   2.580   5.886  12.601  1.8252 -0.0411 -0.7316
 8914TIP3    H248234   2.537   5.831  12.735  0.0654 -0.1541 -1.3151
 8915TIP3   OH248235   0.467   4.544  15.718 -0.4345 -0.4572 -0.0956
 8915TIP3    H148236   0.477   4.450  15.733  0.7595  0.0466  3.2382
 8915TIP3    H248237   0.399   4.571  15.780  0.4122  1.0969  0.2187
 8916TIP3   OH248238   6.083   3.147  11.666 -0.6038  0.3071  0.2175
 8916TIP3    H148239   6.109   3.096  11.743 -0.6649 -0.8443 -0.5024
 8916TIP3    H248240   6.135   3.227  11.672  1.1265 -0.7716  0.2435
 8917TIP3   OH248241   2.491   2.710   2.408 -0.0546 -0.1232 -0.2399
 8917TIP3    H148242   2.409   2.681   2.447  0.9989 -1.2770  1.2647
 8917TIP3    H248243   2.558   2.652   2.447  1.5406  1.1701 -0.9167
 8918TIP3   OH248244   6.432   1.808  13.981  0.1561  0.0168  0.2984
 8918TIP3    H148245   6.445   1.719  13.948 -0.4195 -0.1309  0.4583
 8918TIP3    H248246   6.375   1.797  14.057 -0.6795  0.6060 -0.2259
 8919TIP3   OH248247   0.113   0.863  10.832  0.5767  0.1599  0.1313
 8919TIP3    H148248   0.113   0.858  10.737  1.9013 -1.2980  0.1722
 8919TIP3    H248249   0.141   0.953  10.852  1.5715  0.0932 -0.8662
 8920TIP3   OH248250   4.105   6.837  13.455  0.2834 -0.7523  0.1111
 8920TIP3    H148251   4.115   6.898  13.381 -0.5897 -1.6743 -0.8091
 8920TIP3    H248252   4.011   6.819  13.458  0.2585 -0.4602  1.7003
 8921TIP3   OH248253   3.007   1.542  15.155  0.0466  0.0263 -0.4865
 8921TIP3    H148254   3.031   1.604  15.086 -0.1135  2.3334  1.3820
 8921TIP3    H248255   3.085   1.489  15.169  0.9553  1.2490 -0.7531
 8922TIP3   OH248256   6.433   1.402  12.643  0.1447  0.2594 -0.1195
 8922TIP3    H148257   6.378   1.330  12.675 -0.0494  0.2906 -0.3838
 8922TIP3    H248258   6.518   1.387  12.684 -0.2635  0.6292  0.8902
 8923TIP3   OH248259   6.108   6.455  12.179 -0.2610 -0.0087 -0.0270
 8923TIP3    H148260   6.144   6.499  12.102  0.0084  0.2503  0.2449
 8923TIP3    H248261   6.184   6.440  12.236 -0.1135 -2.0056 -0.6679
 8924TIP3   OH248262   3.536   1.863   4.637  0.0011 -0.1216 -0.3118
 8924TIP3    H148263   3.453   1.893   4.674 -0.5399 -0.4830 -1.1826
 8924TIP3    H248264   3.553   1.779   4.680 -1.2848 -1.1758 -1.7451
 8925TIP3   OH248265   1.067   3.680  13.944  0.0072  0.5383  0.1885
 8925TIP3    H148266   1.099   3.730  13.869 -0.9038  0.8002 -0.0357
 8925TIP3    H248267   0.974   3.664  13.924  0.4012 -1.8168 -0.0851
 8926TIP3   OH248268   2.011   2.618   3.390  0.2876  0.0255 -0.3646
 8926TIP3    H148269   2.088   2.566   3.412 -0.9292 -1.7220 -0.0732
 8926TIP3    H248270   1.978   2.649   3.474 -0.4025 -0.8407 -0.3040
 8927TIP3   OH248271   2.331   2.160   0.135 -0.2341  0.6205 -0.2638
 8927TIP3    H148272   2.322   2.065   0.124 -1.7213  0.3104  2.5963
 8927TIP3    H248273   2.414   2.171   0.181 -0.5061  0.5737  0.2535
 8928TIP3   OH248274   4.696   5.865  11.957  1.0142 -0.3955  0.0641
 8928TIP3    H148275   4.728   5.891  11.870  1.1039 -0.3573  0.1092
 8928TIP3    H248276   4.690   5.948  12.005 -0.8796 -0.1385 -0.5239
 8929TIP3   OH248277   3.661   6.242  11.490  0.4218 -0.6604 -0.0067
 8929TIP3    H148278   3.617   6.300  11.429  0.1810 -0.9964 -0.1570
 8929TIP3    H248279   3.616   6.158  11.480  0.6317 -0.8192  0.3518
 8930TIP3   OH248280   6.997   3.486  13.480 -0.5312 -0.2981 -0.4546
 8930TIP3    H148281   6.928   3.541  13.517 -0.2332 -0.2883  0.1056
 8930TIP3    H248282   6.958   3.399  13.476 -0.2512 -0.4985  0.8194
 8931TIP3   OH248283   1.749   3.980  10.253  0.3813 -0.3236 -0.5493
 8931TIP3    H148284   1.655   3.964  10.258  0.5613 -1.2521  0.2068
 8931TIP3    H248285   1.789   3.903  10.294  1.4411  0.4849  0.0019
 8932TIP3   OH248286   4.652   4.896   2.137 -0.3376 -0.7142  0.0251
 8932TIP3    H148287   4.641   4.991   2.140 -0.5408 -0.7513  0.9463
 8932TIP3    H248288   4.563   4.862   2.124 -0.6546 -0.8311  2.0597
 8933TIP3   OH248289   0.628   4.017   2.737 -0.1543  0.8195 -0.0545
 8933TIP3    H148290   0.637   3.927   2.768  0.2558  1.2600  1.1737
 8933TIP3    H248291   0.667   4.016   2.649  2.4156  0.3457  0.9950
 8934TIP3   OH248292   4.111   6.262   0.342 -0.1183 -0.1819  0.3430
 8934TIP3    H148293   4.045   6.218   0.288 -0.0976 -0.7001  0.7303
 8934TIP3    H248294   4.172   6.299   0.279 -2.2838  2.8555 -0.1801
 8935TIP3   OH248295   0.657   5.555  12.702  0.5696  0.5874  0.0357
 8935TIP3    H148296   0.660   5.647  12.729 -0.4727  0.4209  0.7299
 8935TIP3    H248297   0.591   5.552  12.633 -0.2317  0.1664  0.8050
 8936TIP3   OH248298   3.009   4.164   1.308 -0.4614 -0.0999 -0.1358
 8936TIP3    H148299   3.071   4.237   1.308 -1.7232  1.0315  0.3869
 8936TIP3    H248300   2.964   4.170   1.392 -0.2143 -1.8533  0.1513
 8937TIP3   OH248301   3.996   5.138  15.300 -0.7781 -0.5377  0.0983
 8937TIP3    H148302   3.940   5.206  15.262  0.3508  0.6712  0.5052
 8937TIP3    H248303   3.942   5.097  15.367 -0.9962  1.0688  0.9484
 8938TIP3   OH248304   5.637   1.618  11.743  0.0687  0.7293 -0.0802
 8938TIP3    H148305   5.711   1.672  11.768  0.6702  1.2595 -2.7395
 8938TIP3    H248306   5.651   1.598  11.650 -0.5364 -3.3413  0.5343
 8939TIP3   OH248307   0.476   0.748   2.476  0.1091  0.8424  0.2302
 8939TIP3    H148308   0.485   0.827   2.529 -0.3438  1.0807 -0.0501
 8939TIP3    H248309   0.563   0.734   2.439  0.9377 -0.2795  2.3639
 8940TIP3   OH248310   5.852   3.059   0.606 -0.2778  0.0763  0.4369
 8940TIP3    H148311   5.890   2.985   0.560 -1.2607 -0.7687  0.9278
 8940TIP3    H248312   5.790   3.019   0.668 -1.4301  1.3432  0.1371
 8941TIP3   OH248313   2.744   1.356  13.211 -0.0217 -0.6946  0.5218
 8941TIP3    H148314   2.664   1.379  13.258  0.5053  2.2051  0.1760
 8941TIP3    H248315   2.811   1.349  13.278  0.4671  2.1833  0.4292
 8942TIP3   OH248316   2.951   6.784  10.615 -0.0737  0.2111 -0.0097
 8942TIP3    H148317   2.895   6.763  10.689  0.0379 -1.2633 -0.3195
 8942TIP3    H248318   2.941   6.879  10.603 -1.5077  0.1658  0.7197
 8943TIP3   OH248319   5.912   4.903  14.492  0.2487 -0.6504  0.3096
 8943TIP3    H148320   5.902   4.885  14.399  0.3454 -0.0537  0.1831
 8943TIP3    H248321   5.986   4.848  14.519  2.0575  1.1816 -0.5761
 8944TIP3   OH248322   6.975   6.038  13.842 -0.2065  0.0649  0.1243
 8944TIP3    H148323   7.033   6.113  13.832 -0.6149  0.3912  0.2046
 8944TIP3    H248324   7.031   5.962  13.826  0.1216  0.4010 -0.3412
 8945TIP3   OH248325   1.790   0.339   2.124  0.2226  1.0407  0.4185
 8945TIP3    H148326   1.715   0.303   2.077 -0.1195  1.4585  0.6357
 8945TIP3    H248327   1.859   0.344   2.058  0.3682 -0.2432  0.4338
 8946TIP3   OH248328   6.658   5.218  13.934 -0.4601 -0.4233  0.8452
 8946TIP3    H148329   6.606   5.260  13.866  3.1953  0.3538 -1.8098
 8946TIP3    H248330   6.658   5.281  14.006 -0.9800  0.8067 -0.1819
 8947TIP3   OH248331   4.501   4.974  14.515 -0.5539  0.5876 -0.1608
 8947TIP3    H148332   4.444   4.901  14.542 -1.9014  0.4102 -3.1115
 8947TIP3    H248333   4.506   5.030  14.592 -1.7954 -1.2140  1.3250
 8948TIP3   OH248334   0.859   0.711   5.263  0.7227 -0.6336  0.1157
 8948TIP3    H148335   0.878   0.720   5.169  2.0188 -1.9485  0.2172
 8948TIP3    H248336   0.786   0.771   5.278  1.1883  0.4245 -1.5108
 8949TIP3   OH248337   3.835   4.002  10.326 -0.6195 -0.3125  0.8034
 8949TIP3    H148338   3.862   4.001  10.417 -1.8160 -0.0256  1.1769
 8949TIP3    H248339   3.909   3.963  10.278 -0.8927 -2.5986  2.1156
 8950TIP3   OH248340   1.252   5.646  14.047  0.9041  0.2122  0.1881
 8950TIP3    H148341   1.343   5.645  14.078  1.0918  0.2765 -0.3548
 8950TIP3    H248342   1.258   5.670  13.955  0.4437 -1.2058 -0.2398
 8951TIP3   OH248343   1.828   2.036  11.611 -0.2425  0.7097 -0.3188
 8951TIP3    H148344   1.889   2.038  11.685 -1.1102 -0.3967  0.4700
 8951TIP3    H248345   1.882   2.009  11.537  0.1229 -1.0246  0.5156
 8952TIP3   OH248346   2.371   6.561   0.521  0.2245  1.0606 -0.0656
 8952TIP3    H148347   2.383   6.587   0.613  2.1516  0.8824 -0.2204
 8952TIP3    H248348   2.338   6.472   0.526  0.8316  0.8597  0.4565
 8953TIP3   OH248349   3.033   2.830  12.859 -0.0093  0.3953 -0.1562
 8953TIP3    H148350   3.094   2.766  12.821  0.8323  0.6847  0.6565
 8953TIP3    H248351   2.947   2.802  12.829  0.4137 -0.7084 -0.3941
 8954TIP3   OH248352   0.153   4.010   9.808 -0.2516 -0.5272  0.4828
 8954TIP3    H148353   0.134   4.073   9.879  3.0834  0.0044  1.0560
 8954TIP3    H248354   0.201   4.061   9.743 -0.2503 -1.8169 -0.5658
 8955TIP3   OH248355   5.136   0.159   2.741  0.1939 -0.6903  0.0411
 8955TIP3    H148356   5.147   0.066   2.761  1.6642 -0.1926  1.8369
 8955TIP3    H248357   5.224   0.188   2.715  0.4729  0.7427  2.2684
 8956TIP3   OH248358   4.020   1.725  13.143  0.0965 -0.0451 -0.3459
 8956TIP3    H148359   4.047   1.788  13.076  0.8262  1.5684  1.3687
 8956TIP3    H248360   3.931   1.753  13.167  0.2156  0.0070  0.0417
 8957TIP3   OH248361   5.266   3.894   0.376 -0.2266 -0.5900 -0.1336
 8957TIP3    H148362   5.207   3.938   0.437 -1.1246  1.6571 -2.4286
 8957TIP3    H248363   5.222   3.902   0.291  2.8342  0.2235 -1.7915
 8958TIP3   OH248364   4.585   1.665  12.684  0.0473 -0.2061 -0.0925
 8958TIP3    H148365   4.600   1.663  12.778 -1.1412  1.9102  0.2063
 8958TIP3    H248366   4.560   1.756  12.665 -1.0736 -0.8753 -2.2148
 8959TIP3   OH248367   1.086   6.246  13.008  0.3706  0.2297 -0.5708
 8959TIP3    H148368   1.081   6.267  12.914  1.9357 -2.0944 -1.2554
 8959TIP3    H248369   1.108   6.329  13.050 -3.6548  2.1386 -1.7451
 8960TIP3   OH248370   2.815   3.477   2.432 -0.2201  0.1149  0.1736
 8960TIP3    H148371   2.900   3.483   2.388  0.7192  0.6353  1.9678
 8960TIP3    H248372   2.792   3.384   2.425  1.4558 -0.4340  1.3305
 8961TIP3   OH248373   1.654   4.801   4.091  0.3048 -0.0065  0.6229
 8961TIP3    H148374   1.576   4.762   4.130 -0.1051  0.5779  0.4095
 8961TIP3    H248375   1.668   4.882   4.142 -0.9564  1.4123 -1.1559
 8962TIP3   OH248376   6.355   3.987   3.694 -0.0981 -0.0189 -0.0778
 8962TIP3    H148377   6.436   3.938   3.678 -1.0900 -2.1213  0.8827
 8962TIP3    H248378   6.382   4.058   3.753  1.1473 -0.2456 -0.3306
 8963TIP3   OH248379   2.919   1.556   4.321 -0.2970  0.2721  0.4418
 8963TIP3    H148380   2.897   1.649   4.311 -0.9408  0.2037  1.1482
 8963TIP3    H248381   2.871   1.512   4.251 -1.0102  0.3329  0.8845
 8964TIP3   OH248382   3.483   6.535   0.793 -0.0215 -0.0285  0.3305
 8964TIP3    H148383   3.521   6.572   0.873  0.8457 -1.0227  0.4018
 8964TIP3    H248384   3.389   6.548   0.804  0.1444  0.6772  1.0839
 8965TIP3   OH248385   6.927   2.384  15.047 -0.5578 -0.6325 -0.3051
 8965TIP3    H148386   6.882   2.439  14.983 -0.8955 -1.1843 -0.5414
 8965TIP3    H248387   6.953   2.445  15.117 -1.6825 -0.3141 -0.1519
 8966TIP3   OH248388   1.191   5.169  10.845  0.0842 -0.6476 -0.2595
 8966TIP3    H148389   1.108   5.211  10.824 -1.2721 -2.7700  0.5728
 8966TIP3    H248390   1.211   5.196  10.934  0.2766 -0.1804 -0.4417
 8967TIP3   OH248391   3.042   0.441   4.742 -0.3028 -0.4621 -0.0677
 8967TIP3    H148392   3.047   0.353   4.705  1.3488 -0.9454  1.1522
 8967TIP3    H248393   3.128   0.454   4.783  0.0831  2.3214 -1.5084
 8968TIP3   OH248394   6.024   3.777  11.260  0.4093  0.2737 -0.2604
 8968TIP3    H148395   6.068   3.862  11.259  1.1489 -0.0886 -1.7108
 8968TIP3    H248396   5.991   3.766  11.171 -2.7696  0.5566  0.7347
 8969TIP3   OH248397   5.421   7.141   9.566 -0.2434  0.0809 -0.3471
 8969TIP3    H148398   5.507   7.172   9.592 -0.4773 -0.2360  0.8684
 8969TIP3    H248399   5.436   7.091   9.486  0.8331 -0.6578  0.2954
 8970TIP3   OH248400   4.700   5.064  11.268  0.0912  0.0474 -0.0373
 8970TIP3    H148401   4.763   5.013  11.217  1.5822  1.4533  0.3128
 8970TIP3    H248402   4.630   5.084  11.205  0.7487 -0.2362 -0.8838
 8971TIP3   OH248403   5.110   0.724  12.909  0.1516  0.2639 -0.2557
 8971TIP3    H148404   5.204   0.711  12.892  0.3797 -0.8840  1.6331
 8971TIP3    H248405   5.091   0.667  12.983 -1.7382  1.5921  0.3515
 8972TIP3   OH248406   0.218   6.061   3.883  0.3467  0.2389 -0.3578
 8972TIP3    H148407   0.279   6.130   3.907 -1.0021  0.9112  1.3305
 8972TIP3    H248408   0.182   6.030   3.966 -2.0282  0.2801 -1.2849
 8973TIP3   OH248409   2.728   3.847  10.690 -0.8331  0.0363  0.1044
 8973TIP3    H148410   2.649   3.895  10.664 -0.7054  1.8529  2.6915
 8973TIP3    H248411   2.698   3.785  10.756 -0.1077  0.9183  1.2976
 8974TIP3   OH248412   2.974   2.525   1.938 -0.0713 -0.3798 -0.4797
 8974TIP3    H148413   2.966   2.543   1.844  1.2967 -0.2893 -0.5975
 8974TIP3    H248414   3.068   2.531   1.955 -0.4415  1.5357  1.2859
 8975TIP3   OH248415   6.822   0.016  13.817  0.0896  0.0148 -0.9181
 8975TIP3    H148416   6.775   0.008  13.900  0.2821 -0.8115 -0.8782
 8975TIP3    H248417   6.756   0.048  13.755 -0.0553  0.6363 -0.4547
 8976TIP3   OH248418   2.771   2.447  12.725 -0.1104  0.2168 -0.4120
 8976TIP3    H148419   2.754   2.501  12.803 -1.8800  1.2937 -1.4667
 8976TIP3    H248420   2.713   2.484  12.658 -1.5563 -3.1143 -1.1720
 8977TIP3   OH248421   3.459   0.802  10.728 -0.1169  0.5967  0.3292
 8977TIP3    H148422   3.510   0.754  10.664  1.0136  1.5178  0.5123
 8977TIP3    H248423   3.521   0.828  10.796 -1.3353 -0.6157  1.9943
 8978TIP3   OH248424   2.282   3.199  11.701 -0.2706  0.0915 -0.0705
 8978TIP3    H148425   2.353   3.139  11.725 -2.3578 -1.7362  2.1335
 8978TIP3    H248426   2.247   3.162  11.620  2.0083  1.8159 -1.9833
 8979TIP3   OH248427   3.522   1.785  11.771 -0.0210 -0.3713 -0.0996
 8979TIP3    H148428   3.466   1.745  11.838 -1.7103  0.4768 -0.9659
 8979TIP3    H248429   3.610   1.757  11.795 -0.7105 -1.1198  1.7552
 8980TIP3   OH248430   5.902   4.525  12.258  0.1923 -0.2358  0.2196
 8980TIP3    H148431   5.940   4.596  12.311  0.3072 -0.1541  0.0295
 8980TIP3    H248432   5.949   4.447  12.286  0.1690 -0.2135  0.3239
 8981TIP3   OH248433   5.911   1.740   4.356  0.1909  0.0223  0.2611
 8981TIP3    H148434   5.925   1.665   4.414  0.4880  1.8040  2.6336
 8981TIP3    H248435   5.984   1.736   4.295 -0.1039 -1.9036 -0.0327
 8982TIP3   OH248436   5.316   5.310  10.800  0.5898  0.1787  0.0507
 8982TIP3    H148437   5.394   5.318  10.745 -0.3276  1.3896 -1.1299
 8982TIP3    H248438   5.252   5.369  10.760 -0.3373  0.6050  2.0586
 8983TIP3   OH248439   1.080   0.695  14.039  0.4208 -0.6838  0.2107
 8983TIP3    H148440   1.145   0.632  14.008 -0.4153 -1.9246  0.8820
 8983TIP3    H248441   1.087   0.692  14.134  0.0326 -0.1233  0.2657
 8984TIP3   OH248442   5.967   3.712  10.062  0.3984 -0.7302 -0.2168
 8984TIP3    H148443   5.971   3.746   9.973  0.1906 -0.3415 -0.0812
 8984TIP3    H248444   6.053   3.672  10.077  1.4667  1.6459  0.3608
 8985TIP3   OH248445   5.700   4.839  10.364  0.2027 -0.2808 -0.8241
 8985TIP3    H148446   5.733   4.757  10.327 -0.7835 -0.8480 -0.5040
 8985TIP3    H248447   5.775   4.878  10.408  0.1448 -2.3396  1.3123
 8986TIP3   OH248448   0.502   5.811   3.498  0.6694  0.3001 -0.5460
 8986TIP3    H148449   0.434   5.858   3.547 -1.4497 -1.4113 -1.7041
 8986TIP3    H248450   0.560   5.775   3.565  0.7878  2.2195  0.4475
 8987TIP3   OH248451   6.827   4.724   0.074 -0.4908 -0.6983  0.2129
 8987TIP3    H148452   6.843   4.768   0.158 -1.7237 -1.1163  0.6885
 8987TIP3    H248453   6.735   4.743   0.055  0.0198  0.1891 -1.5451
 8988TIP3   OH248454   6.421   4.230  10.920 -0.0491 -0.1425 -0.2180
 8988TIP3    H148455   6.467   4.314  10.926  0.2897 -0.3414 -0.0057
 8988TIP3    H248456   6.352   4.235  10.986  0.3605 -0.2749  0.2203
 8989TIP3   OH248457   5.679   2.447  12.754  0.2236 -0.2282 -0.3258
 8989TIP3    H148458   5.650   2.527  12.799  1.7289  0.7925 -1.0732
 8989TIP3    H248459   5.616   2.381  12.780 -0.5767  1.0000  1.0235
 8990TIP3   OH248460   1.878   3.617   5.049 -0.0590 -0.1461  0.5368
 8990TIP3    H148461   1.801   3.645   5.000  1.4784  0.9974 -1.3379
 8990TIP3    H248462   1.899   3.690   5.107  1.6771  1.1853 -1.5946
 8991TIP3   OH248463   0.247   7.037  14.437  0.6796  0.5066 -0.4134
 8991TIP3    H148464   0.302   6.967  14.401 -0.1940 -0.1057 -0.5825
 8991TIP3    H248465   0.222   7.006  14.524  1.1614  1.1043 -0.0472
 8992TIP3   OH248466   6.495   0.227   3.527  0.2087  0.0521 -0.7294
 8992TIP3    H148467   6.480   0.162   3.595  0.2436  0.6344 -0.1562
 8992TIP3    H248468   6.429   0.206   3.460  1.1687 -1.4740 -1.2550
 8993TIP3   OH248469   3.964   5.225  10.315  0.1944  0.7230 -0.0444
 8993TIP3    H148470   4.044   5.277  10.318  0.5077  0.2113  2.6775
 8993TIP3    H248471   3.993   5.136  10.334 -0.7666  0.1097 -1.3153
 8994TIP3   OH248472   3.028   2.259   0.562  0.1565  0.0764  0.1896
 8994TIP3    H148473   2.983   2.260   0.478  0.2177 -0.7458  0.1375
 8994TIP3    H248474   2.959   2.243   0.626  0.3464 -1.0762  0.1198
 8995TIP3   OH248475   6.554   5.922   2.734 -0.3995 -0.3689 -0.6347
 8995TIP3    H148476   6.531   5.838   2.774 -0.9447 -1.1509 -2.4435
 8995TIP3    H248477   6.593   5.973   2.805 -3.8025 -0.5626  1.5904
 8996TIP3   OH248478   3.045   4.369   2.742  0.1503 -0.5412 -0.7096
 8996TIP3    H148479   3.084   4.285   2.766 -1.1436 -1.5353 -1.9181
 8996TIP3    H248480   3.120   4.425   2.720  1.2104 -0.4705  2.6339
 8997TIP3   OH248481   0.382   4.674   0.603 -0.4879 -0.0216 -0.8956
 8997TIP3    H148482   0.354   4.751   0.553 -1.9429  0.0864  0.0260
 8997TIP3    H248483   0.335   4.601   0.564 -0.3011 -0.2009 -0.7885
 8998TIP3   OH248484   5.253   2.999  12.231  0.0012  0.0752  0.9204
 8998TIP3    H148485   5.255   3.084  12.275 -2.4456  0.1845  0.9173
 8998TIP3    H248486   5.259   2.935  12.303 -1.1389  0.2699  1.2144
 8999TIP3   OH248487   7.145   2.085   0.290  0.2608 -0.3089 -0.1296
 8999TIP3    H148488   7.232   2.106   0.256  0.2230 -0.2841 -0.2106
 8999TIP3    H248489   7.102   2.038   0.219  0.2469 -0.4175 -0.0487
 9000TIP3   OH248490   5.990   0.886   1.177  0.4945  0.6689  0.1370
 9000TIP3    H148491   6.020   0.905   1.088  1.4837  0.3482  0.3863
 9000TIP3    H248492   6.029   0.802   1.198 -1.3244 -0.2077  0.1846
 9001TIP3   OH248493   1.180   4.605   1.191 -0.6616 -0.2861 -0.0107
 9001TIP3    H148494   1.151   4.568   1.274 -2.4523 -0.3330 -0.6088
 9001TIP3    H248495   1.102   4.603   1.135  0.4172  0.0037 -1.6057
 9002TIP3   OH248496   4.756   5.555  15.541  0.3427 -0.3000 -0.0560
 9002TIP3    H148497   4.758   5.461  15.562 -1.3250 -0.4132 -0.3280
 9002TIP3    H248498   4.848   5.582  15.547  1.1373 -2.3189 -1.6723
 9003TIP3   OH248499   4.928   5.448   3.089  0.3743  0.0629  0.2746
 9003TIP3    H148500   4.865   5.439   3.161 -0.8719  0.6562 -0.7131
 9003TIP3    H248501   4.980   5.525   3.113 -0.4358  0.6269  0.2553
 9004TIP3   OH248502   0.919   5.551  14.257 -0.5021 -0.3335  0.3407
 9004TIP3    H148503   0.940   5.465  14.221 -1.9051 -1.0512  1.1795
 9004TIP3    H248504   0.831   5.571  14.223  0.2844  1.3652 -0.8749
 9005TIP3   OH248505   2.555   1.594  13.111  0.6745 -0.2796 -0.3540
 9005TIP3    H148506   2.649   1.608  13.106  0.4643  0.9996 -1.0547
 9005TIP3    H248507   2.518   1.682  13.123 -0.4664 -0.6804 -0.8084
 9006TIP3   OH248508   3.778   0.143   0.361  0.0473  0.3274 -0.0625
 9006TIP3    H148509   3.775   0.052   0.334 -0.2557  0.5912 -0.9615
 9006TIP3    H248510   3.784   0.193   0.279 -2.2994  1.2150  0.1949
 9007TIP3   OH248511   7.077   0.717   2.081 -0.0507  0.0332  0.5119
 9007TIP3    H148512   7.110   0.641   2.034  0.8760 -0.0677  1.2784
 9007TIP3    H248513   7.079   0.691   2.173 -1.0936  0.4889  0.6711
 9008TIP3   OH248514   0.109   6.148  14.651 -0.0912 -0.5716  0.2506
 9008TIP3    H148515   0.088   6.126  14.742  0.9255 -1.3919  0.3077
 9008TIP3    H248516   0.030   6.124  14.602 -0.3624 -0.8757  0.8190
 9009TIP3   OH248517   4.555   2.698  14.065 -0.0566  0.3018  0.1318
 9009TIP3    H148518   4.497   2.640  14.015  1.0389 -0.4743 -0.2672
 9009TIP3    H248519   4.559   2.659  14.152  1.8894 -1.1747 -0.5410
 9010TIP3   OH248520   6.492   4.060  15.507  0.5539  0.3455  0.2763
 9010TIP3    H148521   6.456   4.035  15.422  0.8889 -1.6913  0.6805
 9010TIP3    H248522   6.415   4.072  15.562  0.3529  1.1378 -0.1672
 9011TIP3   OH248523   0.282   3.212   9.748  0.0319  0.4057 -0.1250
 9011TIP3    H148524   0.205   3.260   9.779  1.4672  2.2704  0.7399
 9011TIP3    H248525   0.356   3.271   9.765  1.6587 -1.2676 -1.0161
 9012TIP3   OH248526   4.870   2.519   2.253  0.0926 -0.6019 -0.1021
 9012TIP3    H148527   4.906   2.607   2.243 -2.1846  0.3659 -0.3740
 9012TIP3    H248528   4.862   2.507   2.348  0.4621 -0.5377 -0.0632
 9013TIP3   OH248529   1.559   4.314   1.510  0.2471 -0.2957 -0.0488
 9013TIP3    H148530   1.482   4.341   1.559 -0.2659 -1.5588 -0.1219
 9013TIP3    H248531   1.570   4.381   1.442  0.0261  0.6068  0.7840
 9014TIP3   OH248532   4.186   1.491   5.330 -0.3963 -0.9040  0.8853
 9014TIP3    H148533   4.252   1.508   5.263 -1.9622 -0.3558 -0.5932
 9014TIP3    H248534   4.236   1.466   5.408  1.5251 -0.4780 -0.1616
 9015TIP3   OH248535   2.862   6.984   5.305  0.4368  0.1933  0.0776
 9015TIP3    H148536   2.768   6.992   5.320  0.2901 -0.5042 -0.4432
 9015TIP3    H248537   2.870   6.922   5.233  1.2103  1.9131 -1.4014
 9016TIP3   OH248538   0.168   2.808  13.057  0.2150  0.5417  0.3382
 9016TIP3    H148539   0.184   2.895  13.092 -2.6815  1.3349 -0.0420
 9016TIP3    H248540   0.226   2.751  13.106 -0.2233  2.2374  3.0164
 9017TIP3   OH248541   3.749   4.921  11.613 -0.1127  0.0866  0.1258
 9017TIP3    H148542   3.828   4.889  11.657  0.5930  0.9757 -0.4417
 9017TIP3    H248543   3.750   4.879  11.527  0.1558  0.6562 -0.1588
 9018TIP3   OH248544   0.708   2.995   0.821  0.1647  0.3868 -0.4907
 9018TIP3    H148545   0.724   2.936   0.747 -0.4950  0.0221 -0.3474
 9018TIP3    H248546   0.796   3.018   0.852  0.4566 -1.2800  0.0302
 9019TIP3   OH248547   6.424   6.267  13.031  0.0763 -0.4541 -0.4540
 9019TIP3    H148548   6.376   6.212  12.970  0.3092 -0.8520 -0.2856
 9019TIP3    H248549   6.358   6.298  13.093  0.1605 -1.6048  0.2198
 9020TIP3   OH248550   3.115   2.022   4.386  0.4081  0.1026 -0.3773
 9020TIP3    H148551   3.185   1.992   4.328 -0.7741 -1.2152 -1.1928
 9020TIP3    H248552   3.133   2.115   4.399  1.3170  0.1956 -2.0018
 9021TIP3   OH248553   3.718   7.056  13.936  0.1248 -0.2688 -0.2452
 9021TIP3    H148554   3.754   6.972  13.908 -0.0329 -0.7508  0.9146
 9021TIP3    H248555   3.757   7.071  14.022 -1.3612 -0.1332  0.4441
 9022TIP3   OH248556   6.084   1.221   9.998 -0.1424 -0.6396  0.6222
 9022TIP3    H148557   6.067   1.315   9.998 -0.5848 -0.7208  0.0811
 9022TIP3    H248558   6.094   1.198   9.906 -0.8029 -1.2621  0.6970
 9023TIP3   OH248559   0.972   4.593  12.271 -0.3370  0.1372  0.0763
 9023TIP3    H148560   0.952   4.500  12.276  0.8622 -0.1108  0.5732
 9023TIP3    H248561   0.960   4.615  12.178  0.1128 -0.6930 -0.1849
 9024TIP3   OH248562   2.471   2.572  10.278 -0.6633  0.0304  0.3506
 9024TIP3    H148563   2.375   2.581  10.282 -0.7179 -0.0129 -0.6676
 9024TIP3    H248564   2.486   2.477  10.282 -0.7094 -0.0024 -0.1330
 9025TIP3   OH248565   6.395   4.335  13.837  0.2898 -0.3382 -0.5834
 9025TIP3    H148566   6.443   4.335  13.920  0.0301 -1.1746 -0.4254
 9025TIP3    H248567   6.339   4.258  13.842 -1.3066  0.7785 -0.6326
 9026TIP3   OH248568   7.083   5.151   4.624 -0.4632 -0.0681  0.3523
 9026TIP3    H148569   6.992   5.183   4.628 -0.2297  1.2059 -2.4614
 9026TIP3    H248570   7.079   5.074   4.567  0.3513  0.6852 -0.7582
 9027TIP3   OH248571   4.645   0.916   9.645  0.0047  0.3359  0.3414
 9027TIP3    H148572   4.654   1.002   9.605 -1.1561  0.0912 -0.5064
 9027TIP3    H248573   4.588   0.867   9.586  1.1276 -1.2387  0.4884
 9028TIP3   OH248574   4.472   6.035  15.031  0.2272  0.1279  0.7446
 9028TIP3    H148575   4.475   6.122  15.070  1.0687  0.2048  0.5248
 9028TIP3    H248576   4.537   5.984  15.080 -0.5114 -0.4849  1.1152
 9029TIP3   OH248577   5.834   1.832   5.689 -0.1873  0.0314  0.1994
 9029TIP3    H148578   5.906   1.814   5.629 -0.1515 -1.5820  0.6792
 9029TIP3    H248579   5.756   1.803   5.643 -0.2980 -0.0979  0.4691
 9030TIP3   OH248580   6.146   4.812  14.920 -0.6448 -0.1300  0.2746
 9030TIP3    H148581   6.199   4.749  14.871 -1.5273 -0.5407 -0.1985
 9030TIP3    H248582   6.111   4.762  14.994 -0.0730  0.2366  0.7942
 9031TIP3   OH248583   0.359   6.839  15.047 -0.1297 -0.1310  0.7256
 9031TIP3    H148584   0.267   6.825  15.067 -0.4302  0.1355 -0.4218
 9031TIP3    H248585   0.392   6.753  15.021 -0.7058  0.2008 -1.3085
 9032TIP3   OH248586   0.099   3.666   3.180 -0.3319 -0.1404  0.0768
 9032TIP3    H148587   0.159   3.598   3.151 -0.5956 -1.3126  2.0599
 9032TIP3    H248588   0.148   3.747   3.172  0.3166 -0.6600 -1.4788
 9033TIP3   OH248589   0.438   5.484  12.508 -0.1284 -0.4501  0.5164
 9033TIP3    H148590   0.347   5.515  12.507 -0.1115 -0.2189  2.1637
 9033TIP3    H248591   0.434   5.403  12.558  0.5178 -0.6444  0.2521
 9034TIP3   OH248592   3.247   2.400   2.418  0.0349 -0.3054 -0.2497
 9034TIP3    H148593   3.185   2.459   2.375  0.6117  0.8630  0.4745
 9034TIP3    H248594   3.214   2.312   2.398  0.0264  0.1688 -2.7059
 9035TIP3   OH248595   6.191   1.431  10.975  0.6089  0.3570 -0.2498
 9035TIP3    H148596   6.112   1.378  10.988  0.5109  0.4197 -0.5749
 9035TIP3    H248597   6.247   1.410  11.049  0.1635  0.5302  0.1409
 9036TIP3   OH248598   5.155   2.326   5.185  0.2227 -0.4097  0.1124
 9036TIP3    H148599   5.239   2.325   5.231 -0.0733  1.7754  0.7694
 9036TIP3    H248600   5.157   2.406   5.132 -0.9502 -0.9831 -0.8487
 9037TIP3   OH248601   2.740   6.751  10.880  0.0941  0.6534  0.5042
 9037TIP3    H148602   2.691   6.834  10.878 -0.2243  0.4673  0.4714
 9037TIP3    H248603   2.680   6.689  10.920  0.2513  0.3859  0.3283
 9038TIP3   OH248604   6.680   6.224  13.600 -0.1691 -0.5792  0.4517
 9038TIP3    H148605   6.644   6.205  13.514  0.6496 -0.7603  0.1468
 9038TIP3    H248606   6.764   6.178  13.603 -0.2244 -0.6568  1.3812
 9039TIP3   OH248607   0.560   5.507   0.612 -0.2154 -0.1339  0.6013
 9039TIP3    H148608   0.486   5.484   0.667  0.6178  1.5441  2.5455
 9039TIP3    H248609   0.535   5.591   0.572  0.3838  0.1856  0.8685
 9040TIP3   OH248610   2.878   2.074  13.640 -0.0211  0.0422 -0.2091
 9040TIP3    H148611   2.835   2.158  13.624  0.4718  1.0196  2.9143
 9040TIP3    H248612   2.954   2.075  13.583 -0.8649  0.9683 -1.3869
 9041TIP3   OH248613   1.741   6.768  10.014  0.2696  0.4411  0.3868
 9041TIP3    H148614   1.766   6.677   9.996  1.2250  0.8265 -0.3115
 9041TIP3    H248615   1.741   6.810   9.928 -0.0546  1.1319  0.7176
 9042TIP3   OH248616   3.145   2.177  14.146 -0.3086 -0.1349  0.6273
 9042TIP3    H148617   3.064   2.138  14.181  0.1544 -0.5990  1.1948
 9042TIP3    H248618   3.132   2.175  14.051 -0.3756 -1.5341  0.6417
 9043TIP3   OH248619   4.221   6.709   2.247 -0.2527  0.7245 -0.0084
 9043TIP3    H148620   4.202   6.620   2.278 -0.3203  0.8586  0.3372
 9043TIP3    H248621   4.136   6.743   2.219 -0.3296  0.8873  0.4067
 9044TIP3   OH248622   3.630   4.386  14.782 -0.1860  0.0550 -0.0950
 9044TIP3    H148623   3.560   4.322  14.779  0.8987 -1.2512  1.2114
 9044TIP3    H248624   3.629   4.420  14.871  0.4627  0.4647 -0.2287
 9045TIP3   OH248625   0.831   6.624   1.455 -0.0381 -0.0122 -0.3434
 9045TIP3    H148626   0.775   6.554   1.490 -1.5290  1.2896 -0.0045
 9045TIP3    H248627   0.821   6.618   1.360 -1.1589  0.4853 -0.2726
 9046TIP3   OH248628   6.239   3.435  13.804  0.3111  0.1997 -0.0125
 9046TIP3    H148629   6.330   3.409  13.816  0.6069  1.1971  0.0527
 9046TIP3    H248630   6.237   3.527  13.830 -0.7807  0.1132  0.2534
 9047TIP3   OH248631   6.636   0.326   9.425 -0.8456 -0.8272 -0.2114
 9047TIP3    H148632   6.691   0.249   9.410  0.4774 -0.2057  1.2384
 9047TIP3    H248633   6.696   0.400   9.418 -1.4706 -0.1218  1.4266
 9048TIP3   OH248634   1.518   0.126  12.660  0.2708  0.3462 -0.3658
 9048TIP3    H148635   1.585   0.189  12.633  0.2029  1.9495  2.7021
 9048TIP3    H248636   1.460   0.118  12.585  2.7770  0.3860 -2.4561
 9049TIP3   OH248637   6.373   5.697  10.322 -0.0679  0.1825  0.1068
 9049TIP3    H148638   6.401   5.660  10.405 -1.8174 -0.9829  0.2206
 9049TIP3    H248639   6.330   5.779  10.346  0.6801  0.5688  0.1820
 9050TIP3   OH248640   1.000   6.881   2.820  0.5927 -0.1805 -0.1244
 9050TIP3    H148641   1.090   6.878   2.786 -0.2646 -0.5880 -2.5425
 9050TIP3    H248642   0.974   6.789   2.825 -0.4038  0.0036 -1.5517
 9051TIP3   OH248643   6.137   4.988  13.623  0.1755 -0.0405 -0.2244
 9051TIP3    H148644   6.069   5.045  13.587 -0.5272  0.5981  1.9927
 9051TIP3    H248645   6.185   5.043  13.684  0.9580 -1.2298  0.2752
 9052TIP3   OH248646   1.881   0.172  10.822 -0.3897 -0.0835 -0.0400
 9052TIP3    H148647   1.958   0.227  10.810 -1.2960  1.6609  1.6491
 9052TIP3    H248648   1.807   0.233  10.821 -1.8352 -1.7155 -1.8600
 9053TIP3   OH248649   4.240   3.779  12.228 -0.4537  0.5471 -0.4613
 9053TIP3    H148650   4.220   3.872  12.235 -0.4721  0.6544 -1.7879
 9053TIP3    H248651   4.165   3.741  12.183 -0.7303 -0.2330  0.6144
 9054TIP3   OH248652   3.534   5.272   5.251 -0.5549 -1.0833  0.0330
 9054TIP3    H148653   3.562   5.185   5.221  0.8266 -0.4438 -0.6390
 9054TIP3    H248654   3.573   5.333   5.188  0.4928  0.1858  1.8177
 9055TIP3   OH248655   6.394   4.251   2.585  0.2870  0.2318 -0.2636
 9055TIP3    H148656   6.408   4.268   2.679 -1.0532  0.6460 -0.1127
 9055TIP3    H248657   6.474   4.206   2.557  0.6429 -0.0632  1.1160
 9056TIP3   OH248658   6.781   6.536  14.497 -0.0632 -0.5949  0.0861
 9056TIP3    H148659   6.846   6.597  14.533  0.2325 -0.4690 -0.6362
 9056TIP3    H248660   6.700   6.586  14.494 -0.0896 -0.6027  0.5516
 9057TIP3   OH248661   2.938   2.247  11.684 -0.3366  0.0905 -0.0682
 9057TIP3    H148662   2.891   2.172  11.720  0.5754 -0.0785  0.8064
 9057TIP3    H248663   3.025   2.212  11.661  0.6138  1.1482  1.6779
 9058TIP3   OH248664   2.902   2.345  15.138 -0.0978  0.2219 -0.3862
 9058TIP3    H148665   2.936   2.256  15.142  0.2790  0.3146 -1.3910
 9058TIP3    H248666   2.966   2.394  15.087 -1.5532  0.4726 -2.0498
 9059TIP3   OH248667   1.329   5.481  15.056  0.1802  0.3390  0.1466
 9059TIP3    H148668   1.384   5.549  15.018  1.0887 -0.6380 -0.3588
 9059TIP3    H248669   1.310   5.511  15.145  0.4023  1.3304 -0.1354
 9060TIP3   OH248670   2.013   6.042  10.399 -0.0084 -1.0576 -0.0851
 9060TIP3    H148671   2.100   6.062  10.434 -0.1244  0.3678 -0.5369
 9060TIP3    H248672   1.964   6.009  10.475  0.4931 -0.4474  0.5238
 9061TIP3   OH248673   2.080   1.019  14.927  0.4629 -0.0033 -0.1014
 9061TIP3    H148674   2.107   0.967  15.002  1.0667  2.0612  1.2044
 9061TIP3    H248675   2.159   1.067  14.900 -0.2757  1.0026 -0.5686
 9062TIP3   OH248676   5.236   6.718   3.279  0.2734  0.9687 -0.3537
 9062TIP3    H148677   5.269   6.656   3.214 -0.2702 -0.0977  0.3503
 9062TIP3    H248678   5.152   6.681   3.307 -0.1490  2.1299 -0.0439
 9063TIP3   OH248679   6.432   3.326   9.715  0.1461  0.2080  0.1922
 9063TIP3    H148680   6.417   3.347   9.807 -0.4874  0.5314  0.0216
 9063TIP3    H248681   6.356   3.363   9.669  0.9344  0.9229 -0.5728
 9064TIP3   OH248682   1.530   5.527  10.370 -0.4630 -0.1534  0.3040
 9064TIP3    H148683   1.506   5.459  10.432 -2.3903  1.0926  1.0019
 9064TIP3    H248684   1.611   5.495  10.330  0.3074 -1.4655  2.7134
 9065TIP3   OH248685   0.632   4.536   5.750  0.4822 -0.5144  0.8988
 9065TIP3    H148686   0.552   4.589   5.746  1.8454  1.6329 -2.7554
 9065TIP3    H248687   0.645   4.520   5.843 -1.4805  3.4503  2.0793
 9066TIP3   OH248688   3.248   1.781   9.881  0.4738 -0.0552  0.4871
 9066TIP3    H148689   3.180   1.802   9.818  0.8290 -1.8973 -0.5769
 9066TIP3    H248690   3.326   1.827   9.849  0.7822 -1.3746 -0.7618
 9067TIP3   OH248691   1.595   6.783  11.659 -0.2626  0.1589 -0.4575
 9067TIP3    H148692   1.526   6.789  11.593  0.0836  1.1400 -0.7482
 9067TIP3    H248693   1.554   6.817  11.739  0.1637  1.7892 -0.8827
 9068TIP3   OH248694   5.743   4.200  12.120 -0.1524  0.1570 -0.4941
 9068TIP3    H148695   5.716   4.207  12.028  0.8254 -0.5332 -0.8599
 9068TIP3    H248696   5.687   4.132  12.157  0.3485 -0.5398 -0.9708
 9069TIP3   OH248697   3.290   5.440  13.010 -0.3202 -1.0010  0.1865
 9069TIP3    H148698   3.349   5.488  13.068  0.8102  0.1230 -1.7662
 9069TIP3    H248699   3.219   5.410  13.067  0.3955  0.5542  2.0128
 9070TIP3   OH248700   5.820   7.079   3.030 -0.1658  0.5686 -0.1683
 9070TIP3    H148701   5.789   6.999   2.988  0.0256  0.9364 -1.0340
 9070TIP3    H248702   5.754   7.098   3.097 -1.6550  1.1593 -1.7479
 9071TIP3   OH248703   4.204   2.651  12.704 -1.0649  0.0133  0.2762
 9071TIP3    H148704   4.174   2.631  12.615 -1.4398 -0.4176  0.4944
 9071TIP3    H248705   4.146   2.722  12.733  0.7892  2.0601 -0.7984
 9072TIP3   OH248706   3.845   5.387  11.639  0.1614  0.1765 -0.4436
 9072TIP3    H148707   3.914   5.451  11.659 -1.9339  3.2423 -2.2156
 9072TIP3    H248708   3.786   5.391  11.714  0.3869 -0.2643 -0.2372
 9073TIP3   OH248709   7.026   5.702  15.418  0.6162  0.0753  0.0630
 9073TIP3    H148710   7.016   5.624  15.364  0.0284  1.4354 -1.9299
 9073TIP3    H248711   6.938   5.723  15.447  0.5165  0.9171 -0.8148
 9074TIP3   OH248712   6.767   1.812   9.748 -0.0947 -0.5438 -0.0472
 9074TIP3    H148713   6.797   1.858   9.669 -1.1541  0.9739  0.3891
 9074TIP3    H248714   6.720   1.736   9.714 -0.7600  0.2225 -0.9181
 9075TIP3   OH248715   0.777   6.281  10.789 -0.3154 -0.3216  0.0992
 9075TIP3    H148716   0.776   6.210  10.725 -1.3098 -0.0376 -0.2262
 9075TIP3    H248717   0.725   6.247  10.863 -0.0616 -0.2518  0.3112
 9076TIP3   OH248718   7.078   1.189   2.584  0.1550  0.1297  0.0329
 9076TIP3    H148719   7.099   1.263   2.641  0.2674  0.1647 -0.0519
 9076TIP3    H248720   7.038   1.124   2.641  0.5040  0.0578  0.2023
 9077TIP3   OH248721   2.857   1.632   2.620 -0.1174 -0.1076  0.3970
 9077TIP3    H148722   2.825   1.571   2.554 -1.1606 -0.4752  1.2173
 9077TIP3    H248723   2.778   1.671   2.658  0.4001 -0.5180  1.9834
 9078TIP3   OH248724   4.500   2.629  14.920  0.1013  0.5391 -0.2872
 9078TIP3    H148725   4.414   2.610  14.882  0.0030 -0.5305  0.4264
 9078TIP3    H248726   4.528   2.710  14.877 -1.5624  1.2961 -0.0367
 9079TIP3   OH248727   6.938   6.488   2.044 -0.2936  0.5996 -0.3385
 9079TIP3    H148728   6.925   6.499   1.950 -2.7715  1.0325 -0.0282
 9079TIP3    H248729   6.861   6.439   2.073  0.6656  0.0368  1.4052
 9080TIP3   OH248730   6.679   3.888  11.913 -0.0912 -0.2850 -0.4164
 9080TIP3    H148731   6.666   3.959  11.975 -0.4559 -0.8578  0.1835
 9080TIP3    H248732   6.630   3.814  11.950  0.1050 -0.7885 -1.1245
 9081TIP3   OH248733   6.744   1.039  11.845  0.3924 -0.8080  0.0013
 9081TIP3    H148734   6.782   1.042  11.757  1.2614 -0.3319  0.3908
 9081TIP3    H248735   6.671   1.101  11.841  0.8527 -0.2745 -0.1798
 9082TIP3   OH248736   2.798   4.746   2.121 -0.8685  0.5025  0.3707
 9082TIP3    H148737   2.783   4.837   2.147  1.2362  0.9442  0.2424
 9082TIP3    H248738   2.800   4.749   2.025 -0.0849  0.4825  0.3766
 9083TIP3   OH248739   4.957   0.611   0.614  0.2838 -0.1366  0.4167
 9083TIP3    H148740   4.869   0.645   0.631  0.6888  0.8919  0.5634
 9083TIP3    H248741   5.013   0.659   0.675  0.8621 -1.2618  0.7865
 9084TIP3   OH248742   0.068   7.135   5.102 -0.6954 -0.2495 -0.5409
 9084TIP3    H148743   0.081   7.088   5.020 -0.9859  0.1199 -0.8003
 9084TIP3    H248744   0.055   7.066   5.167 -1.0461 -0.5318 -0.9069
 9085TIP3   OH248745   1.337   2.961  10.319  0.1062 -0.5824  0.1798
 9085TIP3    H148746   1.312   3.052  10.300 -1.5431 -1.1072 -0.3092
 9085TIP3    H248747   1.334   2.917  10.234 -2.3189 -1.7942  0.8141
 9086TIP3   OH248748   3.127   1.037   2.646  0.7588 -0.5749  0.3310
 9086TIP3    H148749   3.192   1.035   2.576  0.6617 -1.5808  0.2498
 9086TIP3    H248750   3.163   1.097   2.711  1.7967 -1.1443  0.3057
 9087TIP3   OH248751   2.139   0.326   0.081  0.5585  0.4857 -0.6208
 9087TIP3    H148752   2.154   0.277   0.000 -0.3310 -0.7467 -0.0716
 9087TIP3    H248753   2.065   0.383   0.062 -0.9759 -1.2557 -0.1230
 9088TIP3   OH248754   5.821   0.864   0.751 -0.1181 -0.2118  0.2999
 9088TIP3    H148755   5.736   0.855   0.709 -0.1389 -1.5087  0.5782
 9088TIP3    H248756   5.867   0.929   0.698  0.0183 -2.0605 -2.0411
 9089TIP3   OH248757   1.941   4.353  15.660  0.2031 -0.3276 -0.1928
 9089TIP3    H148758   1.952   4.412  15.735 -1.0464  0.6009 -0.6942
 9089TIP3    H248759   1.884   4.283  15.692  1.8438 -1.4219  0.4602
 9090TIP3   OH248760   5.044   0.392   0.986 -0.1445  0.0869  0.4193
 9090TIP3    H148761   5.077   0.371   0.899 -0.1133  1.2475  0.1313
 9090TIP3    H248762   5.105   0.350   1.047 -0.4763 -1.1945 -0.1056
 9091TIP3   OH248763   6.636   1.974   1.082 -0.0990  0.0408  0.0524
 9091TIP3    H148764   6.728   1.977   1.054 -0.3574  0.4972 -0.8020
 9091TIP3    H248765   6.619   2.062   1.115 -0.1533 -0.1318  0.4913
 9092TIP3   OH248766   3.026   6.394   0.165  0.1479 -0.0725  0.0978
 9092TIP3    H148767   2.936   6.407   0.193  0.5011  0.5080  1.0059
 9092TIP3    H248768   3.027   6.306   0.127 -1.0276  0.3226 -0.9297
 9093TIP3   OH248769   1.876   6.477  13.700  0.4849 -0.3564 -0.6414
 9093TIP3    H148770   1.855   6.562  13.663 -0.4190 -0.7037 -0.9567
 9093TIP3    H248771   1.895   6.495  13.792 -0.9882  0.0327 -0.3854
 9094TIP3   OH248772   0.714   3.143   0.033 -0.5168 -0.4552  0.2837
 9094TIP3    H148773   0.655   3.205   0.076 -0.7597 -1.6917  1.8070
 9094TIP3    H248774   0.663   3.108  -0.040 -0.8994  0.0485  0.3026
 9095TIP3   OH248775   2.695   2.123   2.658  0.3776  0.2842  0.8196
 9095TIP3    H148776   2.634   2.163   2.719  0.7836  0.6252  1.0081
 9095TIP3    H248777   2.694   2.180   2.581 -0.2703 -0.2451  0.4311
 9096TIP3   OH248778   4.629   5.207   2.071 -0.4089 -0.6175  0.2104
 9096TIP3    H148779   4.555   5.180   2.017  0.0049  0.3799 -0.8941
 9096TIP3    H248780   4.596   5.281   2.123  0.0512  0.4835 -1.0102
 9097TIP3   OH248781   2.032   1.325  13.290 -0.5533 -0.0353 -0.0020
 9097TIP3    H148782   2.007   1.356  13.377 -1.6973  0.1247 -0.3632
 9097TIP3    H248783   1.951   1.329  13.239  0.2125  0.4570 -1.2469
 9098TIP3   OH248784   3.622   1.443  12.772  0.4706 -0.1806 -0.4617
 9098TIP3    H148785   3.622   1.472  12.681 -0.8625  0.2426 -0.3452
 9098TIP3    H248786   3.714   1.433  12.794  0.9084  1.8676 -1.1747
 9099TIP3   OH248787   1.694   4.309  12.365 -0.2405 -0.1110  0.2496
 9099TIP3    H148788   1.758   4.372  12.333 -1.8289  0.3717 -2.2546
 9099TIP3    H248789   1.687   4.327  12.459  2.3007  0.6320  0.3800
 9100TIP3   OH248790   0.203   7.122   0.143 -0.5729  0.4433  0.7326
 9100TIP3    H148791   0.274   7.163   0.093  0.1888  0.3350  1.7034
 9100TIP3    H248792   0.243   7.097   0.226 -1.0832 -1.9668  0.3246
 9101TIP3   OH248793   4.672   0.854   0.996 -0.9997 -0.1414 -0.3738
 9101TIP3    H148794   4.593   0.808   1.022  0.2386 -2.7850 -0.9407
 9101TIP3    H248795   4.670   0.855   0.900 -0.4670 -0.0170 -0.3914
 9102TIP3   OH248796   0.693   2.631  13.335 -0.1559  0.2433 -0.4453
 9102TIP3    H148797   0.677   2.537  13.343 -2.8597  0.5999 -0.5179
 9102TIP3    H248798   0.707   2.646  13.242  1.3364 -0.1985 -0.3019
 9103TIP3   OH248799   4.085   0.020   2.498  0.3527  0.0845 -0.1461
 9103TIP3    H148800   4.118  -0.069   2.490  0.0797 -0.1507  1.0959
 9103TIP3    H248801   4.023   0.016   2.571  1.6683  1.6327  1.1656
 9104TIP3   OH248802   2.500   3.626  12.702  0.4839 -0.6564  0.6086
 9104TIP3    H148803   2.409   3.612  12.727  0.9687 -0.7566  2.4481
 9104TIP3    H248804   2.542   3.663  12.780  1.1296  3.4645 -1.4368
 9105TIP3   OH248805   5.376   5.128  11.285 -0.6772  0.8514  0.0399
 9105TIP3    H148806   5.303   5.189  11.279  0.3045  2.2381  1.3212
 9105TIP3    H248807   5.415   5.130  11.198 -0.7664  1.9669  0.0012
 9106TIP3   OH248808   0.869   3.750   4.538 -0.2072  0.1459 -0.0444
 9106TIP3    H148809   0.929   3.825   4.537  0.0888 -0.0328  1.7236
 9106TIP3    H248810   0.821   3.759   4.620 -0.2806 -1.5288  0.1141
 9107TIP3   OH248811   6.901   6.467   5.233 -0.3175  0.0852 -0.5730
 9107TIP3    H148812   6.822   6.469   5.286 -0.5092  2.2857 -0.8698
 9107TIP3    H248813   6.956   6.400   5.275 -0.6616  1.3807  2.1204
 9108TIP3   OH248814   2.056   6.777  10.567 -0.5703 -0.6806 -0.4041
 9108TIP3    H148815   2.119   6.713  10.602 -1.2694 -0.2986  1.6949
 9108TIP3    H248816   1.994   6.724  10.517  0.5940 -1.2334 -1.3299
 9109TIP3   OH248817   4.744   0.968  12.463  0.2642  0.5744 -0.9904
 9109TIP3    H148818   4.789   0.911  12.400  0.5356  0.2557 -0.5153
 9109TIP3    H248819   4.664   0.994  12.418  0.7771  0.9170 -1.7420
 9110TIP3   OH248820   2.353   4.381  14.078  0.1951 -0.2113  0.1466
 9110TIP3    H148821   2.449   4.386  14.073  0.3085  0.7534  2.0146
 9110TIP3    H248822   2.324   4.470  14.058 -0.2975 -0.4421 -0.1650
 9111TIP3   OH248823   6.623   0.155  13.246 -0.2510  0.1843  0.9744
 9111TIP3    H148824   6.649   0.233  13.198  0.3612 -0.8199 -0.4137
 9111TIP3    H248825   6.677   0.155  13.325  0.6168  0.5492  0.3908
 9112TIP3   OH248826   5.366   6.344   5.092  0.4418 -0.0868 -0.7690
 9112TIP3    H148827   5.348   6.433   5.062  0.9892 -0.0976 -1.1385
 9112TIP3    H248828   5.446   6.319   5.047  1.1323 -0.2110  0.4676
 9113TIP3   OH248829   6.360   6.759   1.330 -0.1894  0.2751 -0.7345
 9113TIP3    H148830   6.456   6.758   1.327 -0.1856  1.4930 -1.7985
 9113TIP3    H248831   6.334   6.673   1.296  0.5145  0.0088 -0.6180
 9114TIP3   OH248832   2.289   6.029  10.066  0.1459  0.5508  0.3472
 9114TIP3    H148833   2.384   6.035  10.058 -0.0102  0.9184 -1.8971
 9114TIP3    H248834   2.266   5.946  10.025 -0.5005  0.2762  1.2194
 9115TIP3   OH248835   1.871   0.850  10.117 -0.2361  0.4693 -0.3019
 9115TIP3    H148836   1.870   0.805  10.033  0.3694  1.6921 -0.9933
 9115TIP3    H248837   1.858   0.942  10.095 -1.5391  0.6500  1.0757
 9116TIP3   OH248838   1.349   5.430  13.063 -0.4215 -0.0459  0.2813
 9116TIP3    H148839   1.421   5.441  13.000 -1.8349 -0.1197 -1.4195
 9116TIP3    H248840   1.385   5.461  13.146  2.1112 -1.5684 -0.1148
 9117TIP3   OH248841   2.885   2.364   5.723  0.5151 -0.6819  0.4072
 9117TIP3    H148842   2.955   2.425   5.747  1.5541 -2.0037  0.8651
 9117TIP3    H248843   2.915   2.324   5.642 -1.1834  0.9439 -1.1046
 9118TIP3   OH248844   3.499   6.262  12.407  0.3605 -0.1645  0.3950
 9118TIP3    H148845   3.592   6.245  12.421 -0.1332 -1.3438  2.7948
 9118TIP3    H248846   3.470   6.192  12.349  0.7981 -0.3011  0.3383
 9119TIP3   OH248847   6.426   4.134   0.856 -0.3842  0.8432 -0.2518
 9119TIP3    H148848   6.408   4.076   0.930  0.1964  0.4406 -0.4148
 9119TIP3    H248849   6.432   4.075   0.780  0.9501  1.0138 -0.3043
 9120TIP3   OH248850   2.239   5.413  11.393  0.3481 -0.1289 -0.2463
 9120TIP3    H148851   2.228   5.321  11.369  3.7115 -0.6122 -0.4736
 9120TIP3    H248852   2.240   5.413  11.489 -1.2604 -0.0353 -0.2087
 9121TIP3   OH248853   1.628   1.765   4.599  0.0875  0.2211 -0.3764
 9121TIP3    H148854   1.706   1.802   4.558  1.9099 -2.0240  0.8681
 9121TIP3    H248855   1.622   1.809   4.684  1.4535 -1.2731  0.5307
 9122TIP3   OH248856   4.281   3.028  12.448 -0.2532  0.1182 -0.4013
 9122TIP3    H148857   4.316   2.987  12.369 -0.5387  2.0548 -1.5748
 9122TIP3    H248858   4.299   2.964  12.517  0.7083 -1.2856 -1.8727
 9123TIP3   OH248859   6.511   3.899   9.841 -0.0341  0.1655 -0.1332
 9123TIP3    H148860   6.525   3.844   9.764  0.7084  1.9145 -1.3284
 9123TIP3    H248861   6.590   3.889   9.893  0.3653  0.5425 -0.6562
 9124TIP3   OH248862   5.336   1.312  11.032  0.1703  0.5193 -0.1242
 9124TIP3    H148863   5.310   1.401  11.059  1.8867  1.2543 -0.7689
 9124TIP3    H248864   5.345   1.319  10.936  1.8566  0.0910 -0.0136
 9125TIP3   OH248865   5.467   4.844  10.058  0.5569  0.4719 -0.7823
 9125TIP3    H148866   5.375   4.819  10.060  0.7606 -0.3037  1.5970
 9125TIP3    H248867   5.486   4.856   9.965 -2.1663  1.6566 -1.2808
 9126TIP3   OH248868   3.644   4.339   6.210  0.2796 -0.5069  0.5218
 9126TIP3    H148869   3.712   4.310   6.270  1.7005  1.2004 -0.1952
 9126TIP3    H248870   3.663   4.295   6.128  1.1081  0.6391  0.0681
 9127TIP3   OH248871   1.716   3.130  11.142  0.5861 -0.2291  0.1400
 9127TIP3    H148872   1.753   3.094  11.061  0.2722 -0.8925  0.2842
 9127TIP3    H248873   1.644   3.071  11.164  1.0676 -0.4335  1.2503
 9128TIP3   OH248874   2.935   3.200   2.158 -0.4366  0.1816  0.3573
 9128TIP3    H148875   2.951   3.119   2.108  1.4261  0.1023  1.0044
 9128TIP3    H248876   2.952   3.270   2.095 -2.0810  0.1143 -0.2139
 9129TIP3   OH248877   2.267   4.912  14.528  0.0469 -0.1854 -0.4948
 9129TIP3    H148878   2.172   4.910  14.517 -0.0006  0.5676 -0.2242
 9129TIP3    H248879   2.300   4.857  14.456 -0.5968 -0.6539 -0.4413
 9130TIP3   OH248880   4.762   2.020   4.103 -0.4072 -0.1070  0.0277
 9130TIP3    H148881   4.761   1.998   4.010 -0.0948 -0.1746  0.0387
 9130TIP3    H248882   4.741   1.939   4.148  0.2740 -0.2804  0.0484
 9131TIP3   OH248883   0.856   0.808  14.703 -0.0456  0.3805  0.0472
 9131TIP3    H148884   0.763   0.785  14.698 -0.2674  1.1203  0.6056
 9131TIP3    H248885   0.876   0.810  14.796  0.5298  0.2632 -0.0683
 9132TIP3   OH248886   4.899   5.983   0.338  0.0425 -0.1546 -0.2163
 9132TIP3    H148887   4.942   5.973   0.253 -0.1515 -1.5769 -0.1660
 9132TIP3    H248888   4.812   5.945   0.326 -0.3258  0.4840  0.3664
 9133TIP3   OH248889   5.491   3.319  13.827  0.1425 -0.2316  0.1458
 9133TIP3    H148890   5.556   3.327  13.758  0.0389  0.1836  0.0948
 9133TIP3    H248891   5.521   3.378  13.896 -0.4800  0.4066 -0.1172
 9134TIP3   OH248892   3.854   3.944   3.082 -0.7558  0.7175 -0.0194
 9134TIP3    H148893   3.907   3.907   3.152  0.3125  1.8260 -0.1998
 9134TIP3    H248894   3.828   4.030   3.115 -1.5099  0.6410 -0.3909
 9135TIP3   OH248895   1.476   5.997   1.433 -0.4288 -0.2289 -0.4408
 9135TIP3    H148896   1.457   5.966   1.522  0.6165  0.7651  0.1547
 9135TIP3    H248897   1.512   6.085   1.446  0.5988 -0.4283 -1.7900
 9136TIP3   OH248898   1.631   4.421  15.177  0.5794 -0.1492 -0.3244
 9136TIP3    H148899   1.694   4.484  15.143  0.4265  0.1074 -0.1367
 9136TIP3    H248900   1.668   4.393  15.261  0.8334 -0.5951 -0.5789
 9137TIP3   OH248901   1.745   4.429   2.153 -0.3809  0.3891 -0.3506
 9137TIP3    H148902   1.823   4.375   2.168 -0.1732  1.2599  2.1031
 9137TIP3    H248903   1.775   4.519   2.166 -1.8048  0.7360  0.8549
 9138TIP3   OH248904   0.914   3.825   0.143  0.3357  0.9619 -0.3816
 9138TIP3    H148905   0.826   3.843   0.110 -0.1031 -2.5991 -1.6677
 9138TIP3    H248906   0.972   3.850   0.071  0.1545  1.0853 -0.4861
 9139TIP3   OH248907   4.020   5.285  15.590  0.1003 -0.3532  0.6416
 9139TIP3    H148908   3.980   5.210  15.547 -1.3313  2.2113 -3.0380
 9139TIP3    H248909   3.968   5.298  15.669 -0.7142 -2.1873  0.4503
 9140TIP3   OH248910   5.376   4.105   4.652 -0.1240 -0.1655  0.2335
 9140TIP3    H148911   5.407   4.030   4.704 -3.1987 -1.3677  0.5196
 9140TIP3    H248912   5.372   4.071   4.563 -1.4370 -0.3642  0.3506
 9141TIP3   OH248913   3.327   5.017   2.475 -0.2311  0.4240  0.1350
 9141TIP3    H148914   3.405   5.015   2.420  0.4508  1.3554  1.0299
 9141TIP3    H248915   3.339   4.944   2.537  0.2833  0.9932  0.7183
 9142TIP3   OH248916   4.041   0.656   2.159 -0.3563  0.6248 -0.2339
 9142TIP3    H148917   3.956   0.619   2.184 -0.4840  1.8719  1.3131
 9142TIP3    H248918   4.093   0.653   2.239  0.7970  0.6012 -0.9686
 9143TIP3   OH248919   6.869   3.115   0.128 -0.0466  0.4067 -0.2620
 9143TIP3    H148920   6.839   3.194   0.173 -0.1549 -0.5727  1.4486
 9143TIP3    H248921   6.853   3.133   0.035 -0.1127  2.3624  0.0849
 9144TIP3   OH248922   6.976   1.838  13.872 -0.1256  0.4512 -0.6199
 9144TIP3    H148923   6.979   1.779  13.796 -0.4129  1.8661 -1.7638
 9144TIP3    H248924   6.899   1.810  13.921 -0.7606  0.4143 -1.6144
 9145TIP3   OH248925   3.037   4.508  12.955 -0.1441 -0.1562  0.1130
 9145TIP3    H148926   3.093   4.452  12.901 -1.4981 -0.1869 -1.3450
 9145TIP3    H248927   2.965   4.532  12.897  0.1027  2.6790  0.8687
 9146TIP3   OH248928   6.798   3.286   4.884 -0.2836  0.9094 -0.5558
 9146TIP3    H148929   6.729   3.240   4.932  0.6435 -0.6654 -0.6623
 9146TIP3    H248930   6.879   3.245   4.913  0.6109  2.5910 -0.5859
 9147TIP3   OH248931   1.539   1.892  15.037  0.0087 -0.2293 -0.1443
 9147TIP3    H148932   1.473   1.828  15.062 -0.8242  0.9136  0.7535
 9147TIP3    H248933   1.605   1.843  14.989 -1.6162 -1.3775 -1.3027
 9148TIP3   OH248934   1.784   5.979   4.321 -0.0395 -0.1855 -0.4719
 9148TIP3    H148935   1.819   5.905   4.272 -1.1211 -1.1328  0.1127
 9148TIP3    H248936   1.780   5.947   4.412 -2.1276 -0.0829 -0.4685
 9149TIP3   OH248937   5.158   5.131  10.531  0.6422 -0.6417 -0.0350
 9149TIP3    H148938   5.162   5.219  10.494 -0.7318 -1.1032 -1.3855
 9149TIP3    H248939   5.131   5.144  10.622 -1.9115  0.2461 -0.8448
 9150TIP3   OH248940   5.034   0.304   9.599  0.2240 -0.3524 -0.0222
 9150TIP3    H148941   5.010   0.211   9.600 -1.2110 -0.0032  1.2011
 9150TIP3    H248942   5.126   0.305   9.624  0.6149 -1.5067 -1.2599
 9151TIP3   OH248943   2.136   0.117  15.598 -0.1122 -0.0364 -0.5404
 9151TIP3    H148944   2.162   0.139  15.508 -0.5539  0.9846 -0.4276
 9151TIP3    H248945   2.042   0.098  15.592 -0.2512  0.5208 -0.2188
 9152TIP3   OH248946   0.761   6.210   0.902  0.2600 -0.1243  0.1353
 9152TIP3    H148947   0.808   6.128   0.912 -0.3961 -0.3541  1.4609
 9152TIP3    H248948   0.788   6.264   0.976  0.1390  0.5858 -0.3215
 9153TIP3   OH248949   3.860   5.300   0.053 -0.4912 -0.0385  0.2408
 9153TIP3    H148950   3.880   5.374   0.110  0.1415 -0.4754  0.6096
 9153TIP3    H248951   3.922   5.232   0.080  0.3638 -0.0021 -1.4932
 9154TIP3   OH248952   6.837   6.152   3.158 -0.3918 -0.1684 -0.1393
 9154TIP3    H148953   6.906   6.162   3.223 -1.5277 -0.9655  1.2512
 9154TIP3    H248954   6.785   6.077   3.189 -2.9888  1.5461 -0.0762
 9155TIP3   OH248955   4.498   1.869  15.715  0.2844 -0.1685  0.2422
 9155TIP3    H148956   4.456   1.790  15.748  0.3363 -0.4267 -0.2972
 9155TIP3    H248957   4.557   1.838  15.646  0.6273  0.2945  0.3193
 9156TIP3   OH248958   6.455   2.274  10.633  0.3081 -0.7142 -0.1121
 9156TIP3    H148959   6.450   2.195  10.578  0.5668 -1.4193  0.8439
 9156TIP3    H248960   6.548   2.286  10.650  0.3188  0.1650 -0.7488
 9157TIP3   OH248961   0.527   2.455   5.600 -0.0522  0.6181  0.3339
 9157TIP3    H148962   0.513   2.388   5.667  0.6720  1.0035  0.8898
 9157TIP3    H248963   0.440   2.492   5.584 -0.0737  1.3195  1.9259
 9158TIP3   OH248964   0.208   3.353  14.898  0.1754  0.4238 -0.1598
 9158TIP3    H148965   0.284   3.411  14.900  0.3436  0.1785  1.5905
 9158TIP3    H248966   0.243   3.267  14.924 -0.3035 -0.2261 -1.5344
 9159TIP3   OH248967   2.990   3.113  12.742 -0.3706 -0.5190 -0.0035
 9159TIP3    H148968   2.905   3.072  12.758 -1.9468  1.5761 -2.2347
 9159TIP3    H248969   3.010   3.093  12.650  0.7336  0.3699  0.0075
 9160TIP3   OH248970   4.743   2.014   1.472 -0.4129  0.5014 -0.2608
 9160TIP3    H148971   4.838   2.018   1.459 -0.0204  1.3527  2.3078
 9160TIP3    H248972   4.726   1.923   1.497 -0.0276  0.6736  0.6710
 9161TIP3   OH248973   4.863   6.580  13.688 -0.6478  0.0810  0.2085
 9161TIP3    H148974   4.924   6.597  13.617 -1.6097 -1.3301 -1.0155
 9161TIP3    H248975   4.825   6.665  13.709  2.3730  1.2041  1.7047
 9162TIP3   OH248976   6.976   0.978  15.186  0.0163  0.2100 -0.7583
 9162TIP3    H148977   6.921   1.046  15.148  0.1163  0.4684 -0.4448
 9162TIP3    H248978   7.036   0.954  15.116  0.6538  1.1743 -0.5609
 9163TIP3   OH248979   4.806   5.097   0.367  0.8331  0.0201 -0.7018
 9163TIP3    H148980   4.829   5.007   0.345 -0.5500 -0.3088 -0.9292
 9163TIP3    H248981   4.814   5.145   0.285 -1.7574 -0.6583 -1.4637
 9164TIP3   OH248982   4.945   1.031  11.812  0.0589  0.1313 -0.1874
 9164TIP3    H148983   4.890   1.015  11.735 -0.3140 -2.7869  0.5668
 9164TIP3    H248984   5.033   1.040  11.777 -0.2085 -0.3551 -1.0264
 9165TIP3   OH248985   1.190   0.220   3.292  0.2867  0.4470  0.1335
 9165TIP3    H148986   1.167   0.299   3.244  0.7723  1.2148  1.1362
 9165TIP3    H248987   1.185   0.245   3.384  1.4805 -0.3800  0.4481
 9166TIP3   OH248988   3.075   3.162   1.013 -0.1608  0.3553 -0.1180
 9166TIP3    H148989   3.154   3.127   1.054 -0.6971 -1.3582 -0.4576
 9166TIP3    H248990   3.094   3.160   0.919 -0.3224  0.7063 -0.1618
 9167TIP3   OH248991   0.937   6.855   4.521 -0.0500  0.1324 -0.8289
 9167TIP3    H148992   0.888   6.776   4.500 -0.0771  0.3451 -1.6163
 9167TIP3    H248993   0.869   6.918   4.547 -0.0623  0.0082 -0.5579
 9168TIP3   OH248994   2.180   6.629  15.758  0.3809  0.4600  0.0444
 9168TIP3    H148995   2.180   6.597  15.848  1.3206  0.8854  0.2024
 9168TIP3    H248996   2.271   6.648  15.738  0.3591 -0.6908 -1.3937
 9169TIP3   OH248997   2.176   5.547  10.937 -0.5140  0.0354 -0.0649
 9169TIP3    H148998   2.155   5.581  10.849 -0.2919  0.2416 -0.0412
 9169TIP3    H248999   2.264   5.511  10.928 -0.3123  0.4562  0.1799
 9170TIP3   OH249000   6.722   6.530  11.450  0.6940  0.1262  0.4512
 9170TIP3    H149001   6.707   6.553  11.542  0.2185 -1.0733  0.6944
 9170TIP3    H249002   6.640   6.490  11.421  1.7083 -2.0326  0.3462
 9171TIP3   OH249003   5.539   0.960  11.661 -0.1638 -0.0689  0.6224
 9171TIP3    H149004   5.626   0.974  11.699  1.7410 -1.5994 -2.6929
 9171TIP3    H249005   5.527   0.865  11.664 -0.1162 -0.2276 -1.8713
 9172TIP3   OH249006   5.362   1.439  11.413 -0.1987  0.0368  1.2915
 9172TIP3    H149007   5.279   1.392  11.418 -1.3395  1.8603  0.5078
 9172TIP3    H249008   5.409   1.397  11.341 -2.4217  1.7987 -1.3938
 9173TIP3   OH249009   2.110   7.105  14.613 -0.5885 -0.5097 -0.0714
 9173TIP3    H149010   2.154   7.144  14.537  0.5871 -1.4119  0.1006
 9173TIP3    H249011   2.126   7.011  14.603 -3.7358 -1.0694 -0.7310
 9174TIP3   OH249012   0.264   0.118  11.563  0.0733  0.3262  0.4843
 9174TIP3    H149013   0.231   0.034  11.533  0.6148  0.4544 -0.5192
 9174TIP3    H249014   0.197   0.150  11.624 -1.2495  0.2231 -0.8679
 9175TIP3   OH249015   6.680   2.344  11.935  0.3768  0.1317  0.1633
 9175TIP3    H149016   6.728   2.301  11.864  0.2408  0.9068 -0.4065
 9175TIP3    H249017   6.696   2.288  12.012  1.0453 -0.3660 -0.3257
 9176TIP3   OH249018   3.384   4.778  13.748 -0.4102 -0.0280  0.1948
 9176TIP3    H149019   3.369   4.867  13.780  0.3200  0.6885 -1.3229
 9176TIP3    H249020   3.302   4.732  13.765 -1.5422  1.5165 -0.7997
 9177TIP3   OH249021   4.811   3.550   0.525 -0.2606  0.3468  1.3610
 9177TIP3    H149022   4.731   3.600   0.543 -1.3162 -0.2930 -1.1554
 9177TIP3    H249023   4.806   3.475   0.584 -1.6687  0.2001  1.0989
 9178TIP3   OH249024   2.478   3.322  12.671  0.0927  0.6365  0.4577
 9178TIP3    H149025   2.392   3.346  12.707 -0.6165 -1.1529  0.0799
 9178TIP3    H249026   2.529   3.402  12.676 -1.2485  1.4685  1.7233
 9179TIP3   OH249027   1.637   3.672  14.290 -0.1856 -0.2790  0.0813
 9179TIP3    H149028   1.596   3.588  14.271  0.7406 -0.8756  0.6031
 9179TIP3    H249029   1.727   3.650  14.314  0.0473  0.8524  0.3320
 9180TIP3   OH249030   3.921   1.972  12.366 -0.3651 -0.3322 -0.0813
 9180TIP3    H149031   3.874   2.018  12.435  0.0805 -1.5373  1.0547
 9180TIP3    H249032   3.855   1.957  12.298 -1.3769 -1.0370  1.0160
 9181TIP3   OH249033   6.213   3.501   3.844  0.0314  0.2826  0.1637
 9181TIP3    H149034   6.180   3.586   3.872  1.2096  0.6605  0.4588
 9181TIP3    H249035   6.188   3.441   3.914  0.4157  0.6594  0.6239
 9182TIP3   OH249036   3.068   3.603  10.674  0.1073 -0.3222  0.0260
 9182TIP3    H149037   3.094   3.609  10.766  1.0265  1.1789 -0.2993
 9182TIP3    H249038   3.081   3.692  10.639 -0.5975 -0.7651 -1.4583
 9183TIP3   OH249039   0.364   0.944   1.862  0.1959 -0.3470 -0.6132
 9183TIP3    H149040   0.438   0.951   1.921 -0.1809  2.3330 -0.3062
 9183TIP3    H249041   0.402   0.919   1.778  1.2430 -0.4348 -0.1226
 9184TIP3   OH249042   6.276   0.956  13.958  0.4116  0.0470  0.7827
 9184TIP3    H149043   6.343   0.894  13.989  0.7471 -0.1100 -0.2405
 9184TIP3    H249044   6.323   1.012  13.896 -0.3596  0.1013  0.2498
 9185TIP3   OH249045   1.619   3.665  12.452  0.4681  0.1790 -0.0305
 9185TIP3    H149046   1.675   3.742  12.452  1.2700 -0.2642 -3.0955
 9185TIP3    H249047   1.574   3.668  12.367 -0.5077 -2.0197  0.3292
 9186TIP3   OH249048   3.992   3.713   1.492 -0.4280 -0.4515 -0.3016
 9186TIP3    H149049   4.023   3.713   1.402  1.7551 -0.2286  0.4018
 9186TIP3    H249050   4.020   3.629   1.528 -0.4182 -0.1413  0.4421
 9187TIP3   OH249051   3.524   3.280   9.991  0.5777  1.0941 -0.2058
 9187TIP3    H149052   3.545   3.334  10.067  0.1417  0.5635  0.2999
 9187TIP3    H249053   3.608   3.253   9.956  0.7774  1.1710  0.2097
 9188TIP3   OH249054   4.882   2.505   9.863  0.0738 -0.2914  0.2393
 9188TIP3    H149055   4.839   2.556   9.931  0.8414  1.0425 -0.2454
 9188TIP3    H249056   4.856   2.414   9.881  1.4809 -0.2252  3.2452
 9189TIP3   OH249057   1.209   1.473  12.294 -0.3106  0.2203 -0.3761
 9189TIP3    H149058   1.222   1.501  12.203 -1.1183  3.9591  0.4605
 9189TIP3    H249059   1.292   1.492  12.337 -0.0084 -1.3200 -0.2199
 9190TIP3   OH249060   5.824   0.878  12.474  0.3791  0.2086  0.2401
 9190TIP3    H149061   5.756   0.936  12.507  1.5165  2.3634 -0.9461
 9190TIP3    H249062   5.785   0.836  12.397  0.1726  0.9187 -0.0456
 9191TIP3   OH249063   0.896   1.251   4.478 -0.4946 -0.3234 -0.0494
 9191TIP3    H149064   0.847   1.239   4.560  0.8130 -0.8341  0.6944
 9191TIP3    H249065   0.894   1.345   4.463 -0.9276 -0.2443  0.4537
 9192TIP3   OH249066   1.990   0.391  13.875 -0.1915  0.0352  0.2403
 9192TIP3    H149067   1.915   0.429  13.830  0.4155 -0.1142 -0.9545
 9192TIP3    H249068   2.037   0.467  13.911 -0.5876  0.1734  0.4723
 9193TIP3   OH249069   6.780   0.384  14.307  0.2333  0.3997 -0.1399
 9193TIP3    H149070   6.801   0.444  14.236  0.3834  2.2586  1.4065
 9193TIP3    H249071   6.784   0.297  14.267  0.1965  1.3799 -2.4056
 9194TIP3   OH249072   2.973   5.420  12.589 -0.1610 -0.2461 -1.1611
 9194TIP3    H149073   3.041   5.389  12.649 -1.0075 -1.4063 -0.7872
 9194TIP3    H249074   2.897   5.438  12.644 -0.7049 -0.5715 -1.7855
 9195TIP3   OH249075   0.291   0.660  13.997 -0.9416  0.5115  0.0760
 9195TIP3    H149076   0.345   0.596  14.043 -0.2928  0.3924 -0.8254
 9195TIP3    H249077   0.354   0.715  13.951 -1.5545 -1.3325 -3.2831
 9196TIP3   OH249078   4.549   1.581  15.642 -0.6422 -0.0205 -0.1923
 9196TIP3    H149079   4.504   1.498  15.633 -0.8786  0.2437 -1.6890
 9196TIP3    H249080   4.640   1.557  15.659 -1.1792 -0.5506  2.3370
 9197TIP3   OH249081   5.868   2.896  15.202 -0.4833  0.7596 -0.1066
 9197TIP3    H149082   5.928   2.907  15.129 -0.8418  3.8967 -0.0954
 9197TIP3    H249083   5.923   2.903  15.280 -0.0601 -2.8401  0.0972
 9198TIP3   OH249084   5.154   1.240  13.970 -0.6784 -0.1268  0.1691
 9198TIP3    H149085   5.124   1.161  13.924  1.8733 -0.7190 -0.6279
 9198TIP3    H249086   5.139   1.311  13.907  0.2577 -0.5334 -0.5406
 9199TIP3   OH249087   5.448   6.543   1.612 -0.6116  0.2883  0.5401
 9199TIP3    H149088   5.387   6.480   1.651 -0.5252 -0.1422 -0.0073
 9199TIP3    H249089   5.494   6.493   1.544  2.2410 -0.1941  2.6201
 9200TIP3   OH249090   1.775   4.725   2.193 -0.3650 -0.6513 -0.7157
 9200TIP3    H149091   1.716   4.745   2.121 -0.2202 -0.6737 -0.8425
 9200TIP3    H249092   1.841   4.794   2.190 -0.5853 -0.4222 -0.3505
 9201TIP3   OH249093   4.541   4.155  15.207  0.4273 -0.0621 -0.0515
 9201TIP3    H149094   4.598   4.080  15.189  2.1323  0.8215  1.3407
 9201TIP3    H249095   4.597   4.231  15.193 -1.1903  0.9716 -1.1316
 9202TIP3   OH249096   4.560   6.945  10.296  0.3438  0.0122  0.5530
 9202TIP3    H149097   4.613   6.931  10.218 -0.4751 -1.1362  0.1717
 9202TIP3    H249098   4.472   6.964  10.263  0.5154  2.1353  1.1703
 9203TIP3   OH249099   2.425   3.289  10.062  0.1991 -0.1630 -0.4909
 9203TIP3    H149100   2.505   3.297  10.114  0.4195 -0.1137 -0.8369
 9203TIP3    H249101   2.455   3.290   9.971 -0.2620  0.6150 -0.6403
 9204TIP3   OH249102   3.989   2.017  14.174  0.1064 -0.0440 -0.2220
 9204TIP3    H149103   3.938   2.038  14.095  1.0931  1.8726 -0.4135
 9204TIP3    H249104   3.999   1.922  14.171  1.1068  0.0558 -3.0695
 9205TIP3   OH249105   2.886   2.388  14.792 -0.6646 -0.6750 -0.1051
 9205TIP3    H149106   2.828   2.331  14.842  1.3873 -2.6350  0.1761
 9205TIP3    H249107   2.869   2.476  14.827 -2.0396 -1.4581  1.3184
 9206TIP3   OH249108   2.794   6.951   2.015  0.1158 -0.4255 -0.1988
 9206TIP3    H149109   2.725   6.905   2.063  1.6354 -1.8634  0.6957
 9206TIP3    H249110   2.871   6.897   2.026  1.4670  1.2417 -1.0159
 9207TIP3   OH249111   4.841   2.010   5.210 -0.2680  0.1813 -0.2700
 9207TIP3    H149112   4.753   2.046   5.214  0.5648  2.2500  1.3900
 9207TIP3    H249113   4.898   2.085   5.226  1.6256 -1.7931  3.3201
 9208TIP3   OH249114   6.366   0.124  14.150  0.1863  0.0946 -0.2285
 9208TIP3    H149115   6.279   0.084  14.157  0.1215  0.3631  0.7077
 9208TIP3    H249116   6.357   0.189  14.080 -0.7229  0.9532  0.6444
 9209TIP3   OH249117   5.684   1.974  14.736 -0.2022  0.1952 -0.4396
 9209TIP3    H149118   5.674   2.031  14.813 -0.3912 -0.1338 -0.2175
 9209TIP3    H249119   5.697   2.034  14.663  1.4564  0.4768  0.0594
 9210TIP3   OH249120   4.301   3.548   4.647 -0.1066  0.6617  0.3541
 9210TIP3    H149121   4.345   3.533   4.731 -0.3035  1.4893  0.6162
 9210TIP3    H249122   4.328   3.637   4.622 -0.7749  0.7665 -0.0081
 9211TIP3   OH249123   1.734   3.351  15.063 -0.7374 -0.1491  0.2698
 9211TIP3    H149124   1.652   3.301  15.066 -1.6664  0.6421 -4.4892
 9211TIP3    H249125   1.706   3.443  15.066  0.1351  0.1214  0.3739
 9212TIP3   OH249126   1.894   3.589  14.354  0.1649  0.0785 -0.9671
 9212TIP3    H149127   1.917   3.607  14.446 -0.0373  0.1018 -0.9202
 9212TIP3    H249128   1.865   3.498  14.354  2.5281 -0.7458 -1.4538
 9213TIP3   OH249129   3.774   3.568  14.556  1.0804 -0.0949 -0.1771
 9213TIP3    H149130   3.750   3.548  14.465  2.6879  0.3078 -0.7361
 9213TIP3    H249131   3.712   3.635  14.584  1.2103  0.5424 -1.3498
 9214TIP3   OH249132   1.957   5.936  11.236  0.5951  0.0522 -0.0535
 9214TIP3    H149133   1.899   5.861  11.225  0.8059 -0.2685  0.9520
 9214TIP3    H249134   2.041   5.898  11.261  0.6974  0.6143  0.4770
 9215TIP3   OH249135   5.583   4.528   0.956 -0.2676 -0.3255 -0.1291
 9215TIP3    H149136   5.517   4.587   0.992 -0.6901 -1.5181  1.1197
 9215TIP3    H249137   5.644   4.513   1.028 -0.2413 -1.4928 -0.3707
 9216TIP3   OH249138   6.915   3.715   6.035  0.6138 -0.3305  0.3316
 9216TIP3    H149139   6.994   3.691   6.083  1.2291 -0.5899 -0.7668
 9216TIP3    H249140   6.851   3.736   6.102  1.6791  0.0800  1.2424
 9217TIP3   OH249141   1.141   6.306  14.178 -0.3432  0.1211 -0.4136
 9217TIP3    H149142   1.178   6.249  14.111 -0.2107 -0.1911 -0.0789
 9217TIP3    H249143   1.065   6.259  14.211  1.2292 -1.1104  1.6999
 9218TIP3   OH249144   3.891   6.854  10.363  0.4083 -0.5890 -0.1305
 9218TIP3    H149145   3.905   6.897  10.447  0.6199  0.5977 -0.7641
 9218TIP3    H249146   3.848   6.771  10.386  0.4586 -0.2833  1.1362
 9219TIP3   OH249147   2.230   6.304   2.859 -0.3274  0.3562  0.4559
 9219TIP3    H149148   2.304   6.352   2.897 -0.2981  1.0008 -0.3750
 9219TIP3    H249149   2.223   6.224   2.911  0.4937  0.6319  1.0035
 9220TIP3   OH249150   2.932   6.795  11.328  0.2560 -0.5490 -0.1634
 9220TIP3    H149151   2.896   6.810  11.241 -1.6318  0.1834  0.7038
 9220TIP3    H249152   2.978   6.711  11.320 -2.2552 -1.9534 -1.1875
 9221TIP3   OH249153   4.958   3.086   2.129 -0.4309 -0.2226 -0.0293
 9221TIP3    H149154   5.011   3.161   2.102 -0.1690 -0.1137  0.7649
 9221TIP3    H249155   4.960   3.027   2.053  3.2014 -1.5389  0.8925
 9222TIP3   OH249156   2.037   5.808  12.358  0.0709 -0.4038  0.0741
 9222TIP3    H149157   2.065   5.758  12.435 -0.0716  2.0775  1.8850
 9222TIP3    H249158   1.948   5.837  12.380 -1.3413 -2.3539 -2.5443
 9223TIP3   OH249159   1.725   3.021   0.350  0.1862  0.8499  0.2876
 9223TIP3    H149160   1.699   2.946   0.404  0.3013  0.2773 -0.4245
 9223TIP3    H249161   1.821   3.022   0.354  0.2097  0.6292 -0.1215
 9224TIP3   OH249162   1.341   6.261  13.292 -0.6157  0.3308 -0.5350
 9224TIP3    H149163   1.402   6.304  13.351 -1.5811 -1.1404  1.6785
 9224TIP3    H249164   1.278   6.329  13.268 -0.8163  0.7366  1.0362
 9225TIP3   OH249165   2.756   1.926  13.862  0.2968 -0.0058  0.0258
 9225TIP3    H149166   2.812   1.980  13.807 -2.0119  1.2916 -1.1899
 9225TIP3    H249167   2.726   1.855  13.805 -1.0426  0.5814 -0.0370
 9226TIP3   OH249168   2.583   4.894  12.856  0.6249 -0.4562  0.1518
 9226TIP3    H149169   2.673   4.927  12.851  0.1682  0.8627  0.2008
 9226TIP3    H249170   2.587   4.821  12.917  1.9267 -1.3691 -0.9771
 9227TIP3   OH249171   2.801   1.824  11.127  0.3738 -0.1434  0.4780
 9227TIP3    H149172   2.708   1.831  11.103  0.6722  2.7497 -0.2496
 9227TIP3    H249173   2.836   1.760  11.065 -0.5937  0.9546 -1.3140
 9228TIP3   OH249174   2.652   1.359   1.482  0.2782  0.5489 -0.3520
 9228TIP3    H149175   2.677   1.443   1.442  1.5578  0.0684 -0.6031
 9228TIP3    H249176   2.646   1.378   1.575  2.1812  0.6024 -0.1916
 9229TIP3   OH249177   0.244   2.104  11.864 -0.2308  0.0110  0.8161
 9229TIP3    H149178   0.233   2.059  11.948 -0.8000 -1.4458 -0.0047
 9229TIP3    H249179   0.338   2.120  11.858 -0.0302 -0.9170  1.2289
 9230TIP3   OH249180   1.481   3.209  12.593 -0.2195  0.1465 -0.4834
 9230TIP3    H149181   1.473   3.188  12.687 -0.2742 -0.0366 -0.5284
 9230TIP3    H249182   1.525   3.294  12.592  0.9034 -0.4135 -0.3208
 9231TIP3   OH249183   4.852   6.905   2.915 -0.2666  0.1823  0.2782
 9231TIP3    H149184   4.776   6.959   2.938 -0.3994  0.6611 -1.1797
 9231TIP3    H249185   4.923   6.942   2.967 -0.8006  0.4013  0.8726
 9232TIP3   OH249186   2.585   0.854   3.600  0.1913  0.1806  0.0707
 9232TIP3    H149187   2.597   0.928   3.540 -0.5137 -0.6483 -1.1468
 9232TIP3    H249188   2.601   0.776   3.546  1.6168 -0.5709  1.4999
 9233TIP3   OH249189   0.925   2.316  13.290 -0.4480  1.1493 -0.0451
 9233TIP3    H149190   0.839   2.357  13.281 -0.4772  1.7685  2.2723
 9233TIP3    H249191   0.907   2.222  13.283 -1.1432  1.3151 -0.6465
 9234TIP3   OH249192   4.001   0.050  14.937 -0.2146  0.3925 -0.4127
 9234TIP3    H149193   4.035  -0.023  14.990 -1.6395  0.6337  0.8969
 9234TIP3    H249194   4.028   0.029  14.848 -0.8077 -1.9178 -0.1266
 9235TIP3   OH249195   5.103   6.962   0.635 -0.0384  0.0420 -0.4628
 9235TIP3    H149196   5.164   7.011   0.581 -0.2250 -1.3511 -2.0027
 9235TIP3    H249197   5.149   6.880   0.654 -1.0860 -0.6846 -0.9606
 9236TIP3   OH249198   0.550   4.831  14.088 -0.1757 -0.1610 -0.0257
 9236TIP3    H149199   0.638   4.852  14.120 -0.1211 -2.1561  1.3270
 9236TIP3    H249200   0.501   4.809  14.168 -1.4688 -0.5337 -0.8963
 9237TIP3   OH249201   2.039   1.929   0.331 -0.3051 -0.1139 -0.0513
 9237TIP3    H149202   2.113   1.978   0.367  0.2413 -0.1292 -1.0983
 9237TIP3    H249203   2.001   1.987   0.266 -1.1889 -0.1400  0.4261
 9238TIP3   OH249204   0.165   0.761   1.874  0.2099 -1.2343 -0.1122
 9238TIP3    H149205   0.092   0.778   1.933  0.9231 -1.8907  1.0056
 9238TIP3    H249206   0.220   0.839   1.882  0.4022 -1.4040  0.2563
 9239TIP3   OH249207   0.664   4.232  12.409 -0.0169 -0.3383  0.5820
 9239TIP3    H149208   0.656   4.138  12.421 -0.6579 -0.5273 -1.0023
 9239TIP3    H249209   0.752   4.245  12.374 -0.2297 -0.4627 -0.0131
 9240TIP3   OH249210   3.642   1.536  10.799 -0.1004 -0.4825  0.0825
 9240TIP3    H149211   3.596   1.618  10.781  0.3967 -0.5018 -1.5015
 9240TIP3    H249212   3.712   1.560  10.860  0.3626  0.3961 -0.7622
 9241TIP3   OH249213   5.821   3.972  15.517  0.2163 -0.4350  0.5741
 9241TIP3    H149214   5.856   3.921  15.591  2.3091 -0.0472 -0.0773
 9241TIP3    H249215   5.898   4.019  15.482 -0.8764  0.0143 -1.3501
 9242TIP3   OH249216   3.189   4.284   9.921  0.9202  0.1757 -0.2509
 9242TIP3    H149217   3.254   4.215   9.904  0.5462 -0.4617  0.8445
 9242TIP3    H249218   3.173   4.280  10.015 -0.0190  0.9522 -0.3610
 9243TIP3   OH249219   2.981   5.360  14.109  0.5666 -0.3372 -0.2648
 9243TIP3    H149220   2.991   5.287  14.169  0.5327 -0.2149 -0.1116
 9243TIP3    H249221   2.902   5.405  14.138  0.1242 -0.7062 -0.8530
 9244TIP3   OH249222   4.655   6.466  12.215 -0.1218 -0.1119 -0.2598
 9244TIP3    H149223   4.583   6.484  12.275  0.7547  1.4572  0.3640
 9244TIP3    H249224   4.643   6.374  12.191 -2.8645  0.3281 -0.9215
 9245TIP3   OH249225   5.810   6.497  13.770 -0.3402  0.2530 -0.4042
 9245TIP3    H149226   5.732   6.471  13.721 -0.4007  0.5424 -0.4671
 9245TIP3    H249227   5.857   6.415  13.787 -0.3811  0.1363 -0.8413
 9246TIP3   OH249228   1.973   0.856   2.281 -0.2876  0.3020  0.4731
 9246TIP3    H149229   2.013   0.771   2.296  2.1515  1.1182 -0.8127
 9246TIP3    H249230   1.923   0.846   2.200  0.7015  0.2640 -0.1523
 9247TIP3   OH249231   2.045   0.624  10.867  0.1749  0.6096 -0.2323
 9247TIP3    H149232   1.971   0.663  10.820  1.3318  2.2267 -0.7843
 9247TIP3    H249233   2.106   0.696  10.881  0.2944  0.0162  3.0572
 9248TIP3   OH249234   1.961   3.628  13.223  0.5490 -0.2632 -0.1458
 9248TIP3    H149235   1.967   3.535  13.243  1.5787 -0.7253 -2.2849
 9248TIP3    H249236   2.002   3.671  13.298  0.2368 -1.5261  0.7857
 9249TIP3   OH249237   5.208   3.374  14.600  0.6924 -0.2932 -0.3354
 9249TIP3    H149238   5.170   3.451  14.643  1.1634  0.6001 -1.4735
 9249TIP3    H249239   5.144   3.305  14.614  0.1797  0.3395  0.5646
 9250TIP3   OH249240   6.746   5.620   1.109  0.0857  0.4645 -0.0174
 9250TIP3    H149241   6.750   5.556   1.037 -1.6053  2.1819 -1.7647
 9250TIP3    H249242   6.720   5.702   1.067  1.9908  2.3335  2.1546
 9251TIP3   OH249243   3.321   0.740   4.567 -0.4868 -0.6953 -0.3774
 9251TIP3    H149244   3.371   0.723   4.487 -1.5372  1.8678 -1.7000
 9251TIP3    H249245   3.236   0.772   4.536 -0.2234  2.4155  1.6248
 9252TIP3   OH249246   3.279   2.266  15.396 -0.2746 -0.3508 -0.3023
 9252TIP3    H149247   3.186   2.283  15.409 -0.1287 -0.7813  1.7114
 9252TIP3    H249248   3.286   2.172  15.384 -0.2123 -0.1545 -2.0253
 9253TIP3   OH249249   4.046   0.356  13.790  0.1395 -0.8121 -0.7883
 9253TIP3    H149250   4.141   0.344  13.784  0.5263  1.4790 -0.1348
 9253TIP3    H249251   4.027   0.349  13.883  0.0242  0.7322 -0.6686
 9254TIP3   OH249252   3.632   2.750  15.009  0.3020  0.4308  0.0519
 9254TIP3    H149253   3.548   2.755  15.055 -0.4071  0.7652 -1.2385
 9254TIP3    H249254   3.693   2.795  15.067  0.1583 -1.8424  2.1503
 9255TIP3   OH249255   3.190   0.336  14.443 -0.9511  0.1382  0.3829
 9255TIP3    H149256   3.155   0.423  14.424 -2.2688 -0.2732  0.8244
 9255TIP3    H249257   3.153   0.313  14.528 -0.6071 -0.8400  0.2830
 9256TIP3   OH249258   5.241   4.625   1.204  0.0828  0.6528  0.5318
 9256TIP3    H149259   5.256   4.548   1.148  2.4622  0.6228  1.1151
 9256TIP3    H249260   5.232   4.697   1.142 -3.1664 -0.1027 -0.0856
 9257TIP3   OH249261   2.071   3.978   1.785  0.0568  0.1936 -0.5631
 9257TIP3    H149262   2.002   4.013   1.729 -0.2227  1.3051  0.4398
 9257TIP3    H249263   2.150   4.026   1.759  0.1698 -0.0990 -0.7683
 9258TIP3   OH249264   4.572   1.509   0.689 -0.7696  0.0839 -0.0433
 9258TIP3    H149265   4.561   1.451   0.765 -1.5834 -0.2227 -0.3921
 9258TIP3    H249266   4.632   1.577   0.720  0.3612 -1.0439  0.3084
 9259TIP3   OH249267   6.863   6.776  12.095  0.2866 -0.1457 -0.6959
 9259TIP3    H149268   6.869   6.698  12.040 -0.0156 -0.0060 -0.9321
 9259TIP3    H249269   6.922   6.759  12.168  0.1225 -0.6463 -0.6800
 9260TIP3   OH249270   5.056   5.533  11.578 -0.3934 -0.2408 -0.1603
 9260TIP3    H149271   5.038   5.626  11.577 -0.0257 -0.1519 -1.7618
 9260TIP3    H249272   4.987   5.495  11.632 -0.2607  0.9876  0.9254
 9261TIP3   OH249273   0.618   4.536   5.376  0.2654 -0.5925  0.0439
 9261TIP3    H149274   0.708   4.552   5.406  0.1074 -1.1727  0.8348
 9261TIP3    H249275   0.630   4.485   5.295  0.6636  0.2649 -0.4612
 9262TIP3   OH249276   1.624   4.606  13.265  1.0830 -0.2203 -0.4626
 9262TIP3    H149277   1.545   4.604  13.211 -0.8227 -1.1975  2.1320
 9262TIP3    H249278   1.641   4.699  13.280  0.2538  0.0089 -0.8555
 9263TIP3   OH249279   3.728   2.882  11.636 -0.1258  0.3554 -0.3875
 9263TIP3    H149280   3.728   2.787  11.622 -0.7395  0.3336 -0.2662
 9263TIP3    H249281   3.696   2.918  11.553  0.9774  0.5225 -0.7669
 9264TIP3   OH249282   3.634   2.901  12.858 -0.1289 -0.0473  0.9717
 9264TIP3    H149283   3.702   2.918  12.922  0.4913 -0.5094  0.4541
 9264TIP3    H249284   3.552   2.905  12.907  0.4542 -2.9154  2.3638
 9265TIP3   OH249285   4.441   4.115   4.544  0.1683  0.0528 -0.5262
 9265TIP3    H149286   4.529   4.078   4.534 -0.2336 -0.6068 -1.7572
 9265TIP3    H249287   4.409   4.125   4.455 -1.3553 -0.5473 -0.0654
 9266TIP3   OH249288   2.754   5.297   2.681  0.2231 -0.4101  0.0104
 9266TIP3    H149289   2.835   5.313   2.729  0.0841 -1.9381  0.8313
 9266TIP3    H249290   2.773   5.221   2.625  0.0368  0.6396 -1.5556
 9267TIP3   OH249291   5.280   6.252   2.452  0.1172  0.2179 -0.1938
 9267TIP3    H149292   5.314   6.197   2.523  0.1181  0.9334  0.3701
 9267TIP3    H249293   5.340   6.326   2.448 -1.3051  1.4994  0.8039
 9268TIP3   OH249294   1.474   5.118  10.732  0.0286 -0.8575 -0.0305
 9268TIP3    H149295   1.503   5.120  10.823  0.0355 -0.2015 -0.0352
 9268TIP3    H249296   1.379   5.130  10.738  0.1536  0.2942 -0.1465
 9269TIP3   OH249297   5.175   5.303   1.773  0.0985 -0.5155 -0.6581
 9269TIP3    H149298   5.228   5.372   1.731 -1.6910  1.7003  0.5018
 9269TIP3    H249299   5.192   5.314   1.866 -0.5076 -1.4206 -0.4390
 9270TIP3   OH249300   0.754   0.288  12.341 -0.6112  0.1644 -0.5941
 9270TIP3    H149301   0.737   0.195  12.354  0.1606  0.0542 -0.3262
 9270TIP3    H249302   0.672   0.331  12.365 -1.0578 -0.4612 -0.9898
 9271TIP3   OH249303   0.132   2.580  11.101  0.5003 -0.0513 -0.5055
 9271TIP3    H149304   0.183   2.605  11.024 -1.6226  0.7912 -1.7499
 9271TIP3    H249305   0.041   2.590  11.073 -0.3591 -0.3494  1.9383
 9272TIP3   OH249306   1.816   1.339  14.057 -0.5498  0.2915  0.2499
 9272TIP3    H149307   1.901   1.383  14.053 -0.6292  0.3680 -0.7290
 9272TIP3    H249308   1.814   1.283  13.979 -0.7385 -0.9314  1.0961
 9273TIP3   OH249309   6.870   5.832  13.185 -0.0500 -0.5803 -0.1838
 9273TIP3    H149310   6.899   5.922  13.199 -1.4129 -0.2177  0.4772
 9273TIP3    H249311   6.874   5.792  13.272  0.2454 -1.0746 -0.4199
 9274TIP3   OH249312   3.049   4.162  14.435  0.2269  0.3814  0.5938
 9274TIP3    H149313   3.037   4.068  14.421  1.7654  0.2224  0.1430
 9274TIP3    H249314   2.993   4.203  14.369  1.0049 -0.2730 -0.5268
 9275TIP3   OH249315   0.164   1.850  12.486  0.3373  0.0681 -0.1867
 9275TIP3    H149316   0.132   1.914  12.550  0.7817 -0.8949  1.0543
 9275TIP3    H249317   0.259   1.864  12.484  0.2707  0.4137 -1.0096
 9276TIP3   OH249318   6.335   5.723   1.201  0.8858  0.1296 -0.0946
 9276TIP3    H149319   6.410   5.703   1.258 -0.7267  0.3044  2.2139
 9276TIP3    H249320   6.352   5.812   1.170  2.4769 -0.4784 -1.1247
 9277TIP3   OH249321   5.277   4.453  13.049 -0.0605 -0.1602 -0.0551
 9277TIP3    H149322   5.236   4.538  13.030 -0.9909 -0.0259  2.2403
 9277TIP3    H249323   5.235   4.392  12.988 -1.0738  0.6314 -0.1773
 9278TIP3   OH249324   7.154   3.116  12.528  0.6333 -0.4379  0.3602
 9278TIP3    H149325   7.104   3.176  12.473  0.9300 -0.0442  0.5169
 9278TIP3    H249326   7.185   3.048  12.467 -1.9554 -1.9721  0.6074
 9279TIP3   OH249327   6.420   5.326   5.452  0.2341  0.4946  0.5165
 9279TIP3    H149328   6.425   5.269   5.528 -0.5784  0.4533  0.5532
 9279TIP3    H249329   6.409   5.266   5.378 -0.8995  0.5862  0.5838
 9280TIP3   OH249330   5.858   3.287  15.048  0.2942 -0.1319  0.6855
 9280TIP3    H149331   5.784   3.234  15.077  0.3786 -0.2952  0.6051
 9280TIP3    H249332   5.826   3.377  15.050 -0.5090 -0.3448 -1.1168
 9281TIP3   OH249333   4.220   4.409  10.471 -0.0564 -1.0899  0.1445
 9281TIP3    H149334   4.148   4.404  10.408  1.2287  0.5481 -1.6139
 9281TIP3    H249335   4.184   4.456  10.546 -0.5778  0.7409 -1.1797
 9282TIP3   OH249336   5.960   5.035   5.982 -0.5323  0.2616  0.2059
 9282TIP3    H149337   5.941   5.114   6.034  0.0010 -0.8557  2.1959
 9282TIP3    H249338   6.054   5.040   5.965 -0.4190 -0.1406  0.6987
 9283TIP3   OH249339   2.048   0.047   0.948  0.7276  0.5213  0.8809
 9283TIP3    H149340   2.005   0.015   1.028  1.5108 -0.1817  1.0319
 9283TIP3    H249341   1.977   0.055   0.884  0.1550  0.7297  1.5384
 9284TIP3   OH249342   5.698   1.663  13.922  0.1155  0.1770  0.3653
 9284TIP3    H149343   5.726   1.578  13.889  0.7337 -0.2877  2.0071
 9284TIP3    H249344   5.734   1.668  14.011 -1.5844  1.2964  1.0518
 9285TIP3   OH249345   6.424   5.085   0.316  0.2558  0.2411 -0.3416
 9285TIP3    H149346   6.377   5.167   0.300 -1.7117  0.0415  3.4015
 9285TIP3    H249347   6.376   5.019   0.266  0.5374  0.9555 -1.6168
 9286TIP3   OH249348   6.647   6.850  12.498 -0.2736 -0.4351 -0.2919
 9286TIP3    H149349   6.658   6.920  12.563 -0.1754 -1.7790  1.2121
 9286TIP3    H249350   6.585   6.790  12.539 -1.1994 -0.7064 -2.0225
 9287TIP3   OH249351   3.070   4.830  12.205 -0.3464 -0.5597  0.0616
 9287TIP3    H149352   3.074   4.781  12.287  1.2492 -2.2772 -0.9875
 9287TIP3    H249353   3.111   4.914  12.225 -1.5743 -0.2387  1.4312
 9288TIP3   OH249354   2.726   3.897  10.175  0.2212 -0.6865 -0.0900
 9288TIP3    H149355   2.779   3.840  10.231 -0.2648 -1.1895 -0.1235
 9288TIP3    H249356   2.636   3.878  10.201  0.0707  0.4385  0.2286
 9289TIP3   OH249357   3.574   3.679  11.876  0.1098 -0.2728  0.0083
 9289TIP3    H149358   3.563   3.773  11.894  0.3849 -0.2230 -0.0724
 9289TIP3    H249359   3.663   3.659  11.906  0.3210 -0.3405 -0.6430
 9290TIP3   OH249360   0.396   5.329   4.682  0.0095 -0.2956  0.2617
 9290TIP3    H149361   0.345   5.382   4.744  0.5996  0.8037 -0.1715
 9290TIP3    H249362   0.487   5.339   4.711  0.3843  0.8152 -1.1562
 9291TIP3   OH249363   6.147   1.944   5.059  0.5555  0.0357 -0.1582
 9291TIP3    H149364   6.117   2.024   5.016  0.7975  0.6314  0.7285
 9291TIP3    H249365   6.079   1.925   5.124  0.1671 -0.8721 -0.8157
 9292TIP3   OH249366   1.705   3.101  11.525  0.4266 -0.0569 -0.2954
 9292TIP3    H149367   1.661   3.028  11.569 -1.5732  1.2019 -0.0757
 9292TIP3    H249368   1.718   3.071  11.436  0.6208 -1.0697  0.0627
 9293TIP3   OH249369   5.596   1.689  13.503 -0.4782 -0.1825 -0.2553
 9293TIP3    H149370   5.533   1.700  13.574  0.3439  0.4354  0.4085
 9293TIP3    H249371   5.548   1.644  13.434 -1.3251 -0.7087  0.6613
 9294TIP3   OH249372   4.684   0.466  12.548 -0.0365  0.0108  0.6608
 9294TIP3    H149373   4.766   0.507  12.520  1.3416 -1.6415  2.0235
 9294TIP3    H249374   4.648   0.527  12.612 -0.5496  1.3261 -0.8119
 9295TIP3   OH249375   1.649   2.590   1.462  0.0682  0.1943 -0.0947
 9295TIP3    H149376   1.646   2.523   1.393 -2.6391 -0.3483  0.4539
 9295TIP3    H249377   1.687   2.545   1.538  0.2880 -0.0652 -0.3558
 9296TIP3   OH249378   5.490   0.412  14.295 -0.1768  0.4389 -0.1594
 9296TIP3    H149379   5.509   0.449  14.209  1.2735  0.4458  0.1328
 9296TIP3    H249380   5.464   0.322  14.277  0.3475  0.3716 -0.5933
 9297TIP3   OH249381   5.228   4.624  11.630 -0.0430 -0.3244  0.2922
 9297TIP3    H149382   5.162   4.688  11.601  0.9391  0.6783  0.2201
 9297TIP3    H249383   5.299   4.634  11.567  0.9030 -0.1765  1.3679
 9298TIP3   OH249384   6.942   3.698  10.514 -0.6001 -0.4043  0.0200
 9298TIP3    H149385   6.956   3.669  10.424 -1.2094 -0.3500 -0.0989
 9298TIP3    H249386   6.886   3.630  10.552 -1.5869  0.3228 -0.0940
 9299TIP3   OH249387   4.068   2.016   2.103  0.0871  0.0000 -0.5608
 9299TIP3    H149388   4.042   2.102   2.069 -0.5110 -1.0177 -2.8423
 9299TIP3    H249389   4.150   2.033   2.150  0.8106  1.6127 -2.2490
 9300TIP3   OH249390   5.588   1.516  15.485  0.0947 -0.3280 -0.3277
 9300TIP3    H149391   5.662   1.518  15.425 -0.6988 -0.7908 -1.3759
 9300TIP3    H249392   5.511   1.519  15.428 -0.7092  0.8260  0.7515
 9301TIP3   OH249393   5.110   4.441   2.556 -0.2818 -0.4724  0.5656
 9301TIP3    H149394   5.052   4.413   2.485 -0.4254 -2.4214  1.3870
 9301TIP3    H249395   5.191   4.393   2.542  1.6642  2.9673 -1.1401
 9302TIP3   OH249396   0.968   5.540  12.561  0.0751 -0.7517 -0.2373
 9302TIP3    H149397   0.899   5.476  12.575 -1.7087  0.9446 -0.8889
 9302TIP3    H249398   0.985   5.536  12.467 -1.4602  1.0380 -0.6395
 9303TIP3   OH249399   0.397   4.998  10.515  0.0964 -0.3739  0.1602
 9303TIP3    H149400   0.329   5.005  10.448  0.4750  1.4103 -0.0983
 9303TIP3    H249401   0.349   4.990  10.597 -0.5135  1.9980  0.1002
 9304TIP3   OH249402   2.133   4.739   2.736 -0.4575  0.5069 -0.1234
 9304TIP3    H149403   2.171   4.818   2.775  0.8697 -0.1333 -0.0715
 9304TIP3    H249404   2.059   4.718   2.793  0.7591  0.2458  1.4258
 9305TIP3   OH249405   4.584   3.287  14.027  0.3767 -0.3527 -0.3117
 9305TIP3    H149406   4.551   3.321  13.944 -1.9172 -0.8863  0.3130
 9305TIP3    H249407   4.535   3.206  14.041 -0.0602  0.2526  2.0618
 9306TIP3   OH249408   2.260   1.361  13.471  0.6860 -0.3153  0.1699
 9306TIP3    H149409   2.228   1.377  13.382 -1.0711 -0.5744  0.7094
 9306TIP3    H249410   2.334   1.421  13.481 -1.7240  2.9936 -0.0407
 9307TIP3   OH249411   0.794   3.062   3.906 -0.4316  0.4339 -0.6704
 9307TIP3    H149412   0.727   3.065   3.837 -0.9483  0.1764 -0.1900
 9307TIP3    H249413   0.863   3.006   3.869  0.1368  1.7637 -1.6951
 9308TIP3   OH249414   0.618   1.592   0.771  0.1213 -0.1420 -0.2743
 9308TIP3    H149415   0.566   1.519   0.738 -1.9586  0.3283  1.7475
 9308TIP3    H249416   0.600   1.664   0.710 -0.8913 -0.2494 -0.1150
 9309TIP3   OH249417   2.615   6.024  13.637 -0.6693  0.4978  0.0954
 9309TIP3    H149418   2.701   5.988  13.617 -1.3323 -2.9466  2.4917
 9309TIP3    H249419   2.561   5.998  13.562  0.0052  1.3505 -0.7111
 9310TIP3   OH249420   5.446   1.606   4.433  0.1668  0.2180  0.6633
 9310TIP3    H149421   5.377   1.661   4.470  0.3160  0.9416 -0.0948
 9310TIP3    H249422   5.424   1.517   4.460  1.9121  0.8865  5.1393
 9311TIP3   OH249423   1.466   5.206  15.228  0.2059  0.1088 -0.2579
 9311TIP3    H149424   1.372   5.224  15.235 -0.5756 -3.1372 -0.7956
 9311TIP3    H249425   1.482   5.200  15.134  1.0732  1.0713 -0.1807
 9312TIP3   OH249426   3.843   6.503   0.108  0.0383 -0.3642  0.4455
 9312TIP3    H149427   3.755   6.541   0.107  0.6228  1.0716 -1.1385
 9312TIP3    H249428   3.868   6.502   0.200 -1.9992 -1.7576  1.0591
 9313TIP3   OH249429   3.792   1.555  15.107 -0.0469 -0.0390 -0.0340
 9313TIP3    H149430   3.875   1.593  15.078 -0.1526 -0.1752 -0.5422
 9313TIP3    H249431   3.813   1.464  15.126  0.5488  0.6101  2.7244
 9314TIP3   OH249432   2.364   2.920   5.784  0.0314 -0.5293 -0.3794
 9314TIP3    H149433   2.431   2.860   5.817  1.2958  0.5738 -0.8612
 9314TIP3    H249434   2.283   2.888   5.823  0.9536 -1.3763  0.9542
 9315TIP3   OH249435   5.101   5.524  15.626  0.1536 -0.3007  0.3063
 9315TIP3    H149436   5.180   5.516  15.572 -1.3038 -1.4219 -1.8319
 9315TIP3    H249437   5.130   5.572  15.704  3.4566 -2.6244  0.7558
 9316TIP3   OH249438   2.344   4.215  14.492  0.5382 -0.4268 -0.2783
 9316TIP3    H149439   2.248   4.212  14.495  0.5774 -1.1798  0.5891
 9316TIP3    H249440   2.370   4.216  14.584  1.3788 -0.8158 -0.5095
 9317TIP3   OH249441   2.716   0.360   5.175  0.3598 -0.2510  0.1284
 9317TIP3    H149442   2.675   0.277   5.154  0.7162 -0.1721 -0.9658
 9317TIP3    H249443   2.777   0.340   5.246  0.5495 -0.9500 -0.2260
 9318TIP3   OH249444   0.367   6.416  13.409 -0.2422 -0.5746  0.7266
 9318TIP3    H149445   0.418   6.484  13.452 -1.5154  0.6090  0.4341
 9318TIP3    H249446   0.356   6.447  13.319 -0.1513 -1.5715  0.3582
 9319TIP3   OH249447   3.487   3.007   1.566 -0.0410  0.1630 -0.1394
 9319TIP3    H149448   3.486   2.917   1.532  0.6046 -0.4597  1.3898
 9319TIP3    H249449   3.576   3.037   1.549  0.0969  0.0741  0.4183
 9320TIP3   OH249450   5.194   0.810  14.034 -0.2059 -0.6554 -0.3769
 9320TIP3    H149451   5.267   0.807  14.096 -0.2079  2.7385 -0.0218
 9320TIP3    H249452   5.232   0.839  13.952 -0.8682 -0.9160 -0.7915
 9321TIP3   OH249453   2.141   4.272   9.992  1.1444 -0.2084  0.1989
 9321TIP3    H149454   2.219   4.306   9.948  2.1758 -0.3575  1.8141
 9321TIP3    H249455   2.078   4.345   9.991  2.6887  1.2797  2.1026
 9322TIP3   OH249456   5.260   0.983  11.708  0.0528 -0.4603  0.0668
 9322TIP3    H149457   5.226   0.963  11.620  3.7780 -0.1927 -1.6102
 9322TIP3    H249458   5.355   0.987  11.697  0.6243  0.7591  3.9359
 9323TIP3   OH249459   3.089   1.808   0.589  0.3505 -0.1329  0.2169
 9323TIP3    H149460   3.179   1.777   0.597  0.3330 -0.1173  0.4882
 9323TIP3    H249461   3.090   1.897   0.624  0.3760  0.1372 -0.4651
 9324TIP3   OH249462   1.482   6.052   4.852  0.0445 -0.1491 -0.8480
 9324TIP3    H149463   1.576   6.060   4.837  1.4555 -0.7177  5.0967
 9324TIP3    H249464   1.453   6.141   4.869  0.2083 -0.2573  0.0399
 9325TIP3   OH249465   2.682   1.645  10.580 -0.0881  0.3911  0.2209
 9325TIP3    H149466   2.642   1.558  10.575  1.4774 -0.4551  1.5325
 9325TIP3    H249467   2.741   1.649  10.505 -0.1950  0.3508  0.1349
 9326TIP3   OH249468   5.298   6.978   1.338 -0.5588  0.1644  0.1440
 9326TIP3    H149469   5.253   6.955   1.256 -1.1856  1.7905 -0.0200
 9326TIP3    H249470   5.230   6.976   1.405 -0.1745 -0.5720  0.5181
 9327TIP3   OH249471   1.277   5.549  11.833  0.2853 -0.1890  0.0129
 9327TIP3    H149472   1.245   5.627  11.879  2.4391  1.2193 -0.7059
 9327TIP3    H249473   1.311   5.492  11.902 -2.0318 -0.9164  0.6168
 9328TIP3   OH249474   5.767   0.435  15.606 -0.0407  0.1646 -0.1626
 9328TIP3    H149475   5.851   0.473  15.632  0.8581 -2.0094  0.3634
 9328TIP3    H249476   5.706   0.464  15.674  0.2339  1.7884 -0.5610
 9329TIP3   OH249477   5.880   5.284   5.579  0.2746  0.0283  0.0684
 9329TIP3    H149478   5.844   5.219   5.640  0.5089 -2.7859 -2.5523
 9329TIP3    H249479   5.808   5.301   5.518  0.7966  0.8480 -0.3223
 9330TIP3   OH249480   5.884   0.173  15.675 -0.8224  0.5843  0.3041
 9330TIP3    H149481   5.876   0.264  15.647 -0.5137 -0.0015 -1.9397
 9330TIP3    H249482   5.901   0.125  15.594 -2.0098 -1.6101  1.2594
 9331TIP3   OH249483   5.384   2.853  11.937  0.2691 -0.3867 -0.5819
 9331TIP3    H149484   5.416   2.817  11.854  1.2837 -1.2512  0.1471
 9331TIP3    H249485   5.426   2.799  12.004  0.6149  1.2109  0.5441
 9332TIP3   OH249486   5.289   1.503  12.095  0.3035 -0.3272 -0.1997
 9332TIP3    H149487   5.350   1.431  12.111 -0.3233 -0.5506  1.3148
 9332TIP3    H249488   5.279   1.504  11.999  0.2156 -2.3511 -0.2603
 9333TIP3   OH249489   6.959   1.380  10.156 -0.1769 -0.3046 -0.7151
 9333TIP3    H149490   7.011   1.417  10.228  0.8307 -2.5695 -0.1758
 9333TIP3    H249491   6.972   1.441  10.084  0.5825  0.8904  0.3786
 9334TIP3   OH249492   5.509   0.538  14.057 -0.0720 -0.5325  0.1010
 9334TIP3    H149493   5.563   0.607  14.018 -0.1983  0.3923  1.4851
 9334TIP3    H249494   5.464   0.498  13.983  0.2877  0.6263 -0.7786
 9335TIP3   OH249495   3.279   3.110  13.327 -0.3333 -0.0880 -0.2937
 9335TIP3    H149496   3.338   3.118  13.402 -2.0869  1.4046  1.0115
 9335TIP3    H249497   3.320   3.162  13.258 -0.4919  1.6744  0.8727
 9336TIP3   OH249498   1.280   1.929  10.496  0.0452 -0.0199  0.1166
 9336TIP3    H149499   1.328   1.938  10.578 -0.4766 -0.2129  0.4495
 9336TIP3    H249500   1.240   2.015  10.482  0.5539  0.1693 -0.2094
 9337TIP3   OH249501   1.534   4.071  14.105 -0.9504 -0.0012  0.1929
 9337TIP3    H149502   1.585   4.099  14.030  1.2375  0.0344  1.5981
 9337TIP3    H249503   1.485   4.149  14.132 -1.3134  0.1305 -0.8248
 9338TIP3   OH249504   1.086   6.513   1.388  0.5870  0.3767 -0.2310
 9338TIP3    H149505   1.133   6.551   1.314  0.3563  0.1931 -0.4746
 9338TIP3    H249506   1.011   6.571   1.402  0.3042  0.0927 -0.5233
 9339TIP3   OH249507   4.915   1.043  10.790  0.7963  0.0126 -0.2970
 9339TIP3    H149508   4.919   0.948  10.777 -2.1029 -0.0210 -1.8486
 9339TIP3    H249509   4.962   1.080  10.715  1.6075 -0.1811  0.1106
 9340TIP3   OH249510   1.752   4.843   4.562 -0.0283 -0.1724 -0.0643
 9340TIP3    H149511   1.727   4.754   4.586 -0.7450 -0.4885 -1.7852
 9340TIP3    H249512   1.831   4.832   4.509  1.0703  0.4193  1.4063
 9341TIP3   OH249513   0.029   0.185   0.548  0.1692 -0.1649 -0.1696
 9341TIP3    H149514   0.078   0.253   0.501  0.1147  0.2200  0.3255
 9341TIP3    H249515  -0.039   0.233   0.596 -0.2500 -0.6281 -0.2857
 9342TIP3   OH249516   2.455   1.926  15.270 -0.5789 -0.3355  0.0343
 9342TIP3    H149517   2.506   1.871  15.330 -1.3465 -1.9731 -0.7597
 9342TIP3    H249518   2.398   1.978  15.328  0.7461  0.2666  0.8391
 9343TIP3   OH249519   0.136   5.907   0.636  0.0210 -0.1725 -0.0437
 9343TIP3    H149520   0.145   6.002   0.642  0.2295 -0.2082  0.2195
 9343TIP3    H249521   0.203   5.873   0.695  1.7756 -0.5241 -2.0972
 9344TIP3   OH249522   3.345   0.524   0.924 -0.3454 -0.0430 -0.3127
 9344TIP3    H149523   3.396   0.515   1.004  0.1250 -0.1977 -0.6259
 9344TIP3    H249524   3.281   0.592   0.944  0.6526  0.9014 -0.2465
 9345TIP3   OH249525   4.721   4.333  14.328  0.1015 -0.0954  0.2170
 9345TIP3    H149526   4.743   4.413  14.281 -1.3501  0.4872  0.4751
 9345TIP3    H249527   4.800   4.312  14.378  0.0349  2.0315  1.3263
 9346TIP3   OH249528   1.375   3.494   2.241  0.2560  0.1889  0.4244
 9346TIP3    H149529   1.405   3.560   2.179 -0.1704  1.1841  1.2485
 9346TIP3    H249530   1.308   3.446   2.194  0.0227  0.8538  0.0658
 9347TIP3   OH249531   1.873   7.044  13.117 -0.0076 -0.5952 -0.5095
 9347TIP3    H149532   1.937   7.062  13.049 -0.3969 -0.6013 -0.8827
 9347TIP3    H249533   1.825   6.968  13.085 -2.5509  1.4325 -1.9710
 9348TIP3   OH249534   4.810   2.132   3.022  0.0054  0.0794  0.0748
 9348TIP3    H149535   4.731   2.178   2.993  0.8851  1.1037 -0.7627
 9348TIP3    H249536   4.825   2.066   2.955 -1.0240 -1.2299  1.0683
 9349TIP3   OH249537   4.759   3.177  15.468 -0.2394  0.1861  0.4314
 9349TIP3    H149538   4.687   3.209  15.414 -1.6506 -0.5727  1.7515
 9349TIP3    H249539   4.805   3.114  15.412  1.9667  3.5129 -1.8355
 9350TIP3   OH249540   5.303   2.201   5.877  0.0623 -0.7376 -0.0815
 9350TIP3    H149541   5.365   2.149   5.928 -1.8757 -2.3982  0.7367
 9350TIP3    H249542   5.244   2.238   5.943  0.5452  1.4123 -0.7807
 9351TIP3   OH249543   1.425   4.872  15.177 -0.2442  0.2446  0.0826
 9351TIP3    H149544   1.340   4.827  15.177  0.0383 -0.3035 -0.2139
 9351TIP3    H249545   1.436   4.901  15.086  0.1534 -0.2094 -0.0165
 9352TIP3   OH249546   1.032   2.366  12.389  0.1805  0.3650 -0.0565
 9352TIP3    H149547   1.057   2.382  12.480 -3.5231  0.1136  1.2073
 9352TIP3    H249548   1.013   2.453  12.354 -2.4758  0.2957  0.9335
 9353TIP3   OH249549   7.139   2.491  12.729  0.2235 -0.3111 -0.0925
 9353TIP3    H149550   7.045   2.508  12.726  0.3339  0.2051 -1.4116
 9353TIP3    H249551   7.178   2.576  12.746  0.5038 -0.3252 -0.6665
 9354TIP3   OH249552   4.498   5.929   9.894  0.0551 -0.2205  0.6756
 9354TIP3    H149553   4.495   5.936   9.799  0.2559  0.4320  0.7118
 9354TIP3    H249554   4.468   6.014   9.925  0.6621 -0.1865  1.1884
 9355TIP3   OH249555   2.841   2.318  13.551  0.2796 -0.1298 -0.6664
 9355TIP3    H149556   2.838   2.350  13.461 -0.3114 -1.0965 -1.0028
 9355TIP3    H249557   2.780   2.374  13.598 -1.7794 -1.5330 -1.5289
 9356TIP3   OH249558   4.290   0.408  12.853 -0.4358  0.2323  0.1505
 9356TIP3    H149559   4.372   0.381  12.813 -1.6743  0.5468 -2.8978
 9356TIP3    H249560   4.283   0.501  12.835 -1.6923  0.0947 -0.2248
 9357TIP3   OH249561   5.934   1.402  15.473 -0.0902  0.1213 -0.1513
 9357TIP3    H149562   6.011   1.398  15.416  0.3659  1.5849  0.3278
 9357TIP3    H249563   5.942   1.485  15.520 -0.9140 -0.6369  1.4179
 9358TIP3   OH249564   3.589   0.545  10.911 -0.1167 -0.5011  0.5455
 9358TIP3    H149565   3.631   0.605  10.849 -0.6522 -1.2406 -0.5574
 9358TIP3    H249566   3.604   0.458  10.874  0.6102 -1.0649  2.1048
 9359TIP3   OH249567   0.570   2.532  11.014 -0.0187  0.1515  0.0938
 9359TIP3    H149568   0.504   2.482  11.063 -0.7041 -0.1322 -1.0673
 9359TIP3    H249569   0.600   2.471  10.947 -2.4423  1.8464 -2.7843
 9360TIP3   OH249570   0.867   4.515   9.404 -0.1675  0.0811  0.5044
 9360TIP3    H149571   0.958   4.544   9.403  0.0034 -0.4356  0.1743
 9360TIP3    H249572   0.815   4.595   9.409  0.3098  0.3663  0.8791
 9361TIP3   OH249573   1.649   5.996  10.468 -0.3367  0.1220 -0.0902
 9361TIP3    H149574   1.742   6.008  10.487 -0.6621 -0.2853  1.9528
 9361TIP3    H249575   1.630   5.905  10.491 -0.9338 -0.2947 -2.0248
 9362TIP3   OH249576   0.697   1.137  12.650  0.0572 -0.3512  0.3081
 9362TIP3    H149577   0.735   1.113  12.566 -1.0245 -0.0847 -0.2757
 9362TIP3    H249578   0.716   1.063  12.707  0.0182 -0.9384 -0.4258
 9363TIP3   OH249579   6.775   6.461   0.816 -0.2905 -0.3447 -0.0600
 9363TIP3    H149580   6.685   6.463   0.848 -1.7909 -2.4609 -3.5421
 9363TIP3    H249581   6.780   6.532   0.752  0.0317 -1.0293 -0.8248
 9364TIP3   OH249582   1.295   2.265   2.646  0.7899  0.1546  0.2411
 9364TIP3    H149583   1.378   2.253   2.599 -0.0988 -0.0581 -1.3498
 9364TIP3    H249584   1.311   2.339   2.704  1.8557  0.6352 -0.6195
 9365TIP3   OH249585   5.119   4.202   1.319  0.1114  0.4081 -0.1227
 9365TIP3    H149586   5.152   4.288   1.345 -3.7039  1.9473  0.1643
 9365TIP3    H249587   5.124   4.149   1.398 -0.4384  1.3697  0.5684
 9366TIP3   OH249588   3.600   5.130   9.726 -0.2768 -0.0005 -0.1935
 9366TIP3    H149589   3.505   5.133   9.736 -0.0817 -0.6367  2.8967
 9366TIP3    H249590   3.626   5.047   9.768  1.6925  0.4466 -0.4227
 9367TIP3   OH249591   6.916   2.389  10.494  0.1357  0.4293  0.7184
 9367TIP3    H149592   6.960   2.349  10.420  1.5248  1.0026  1.2140
 9367TIP3    H249593   6.939   2.482  10.489 -0.5748  0.6527  1.3091
 9368TIP3   OH249594   3.531   6.319  11.724  0.1533 -0.4195  0.1102
 9368TIP3    H149595   3.466   6.249  11.726 -1.3773  0.8284 -1.9952
 9368TIP3    H249596   3.581   6.302  11.644 -0.2927  0.9090 -0.4647
 9369TIP3   OH249597   2.352   3.970   4.882  0.3527  0.2623 -0.4171
 9369TIP3    H149598   2.289   3.947   4.950 -0.0847  1.1469 -0.5091
 9369TIP3    H249599   2.433   3.988   4.930  0.5237 -0.7715 -0.2896
 9370TIP3   OH249600   1.613   4.873  10.073  0.2708  0.3335 -0.4436
 9370TIP3    H149601   1.575   4.795  10.032  1.4571  0.6172 -2.2286
 9370TIP3    H249602   1.558   4.945  10.042 -0.3567  0.3091  0.5748
 9371TIP3   OH249603   2.238   0.066  11.277 -0.0430  0.1918  0.3656
 9371TIP3    H149604   2.222   0.112  11.194 -1.1615  1.6607  1.3325
 9371TIP3    H249605   2.180   0.110  11.339 -0.1601 -1.7126  1.6622
 9372TIP3   OH249606   0.139   0.967  11.661  0.3006 -0.6276  0.1435
 9372TIP3    H149607   0.215   1.007  11.702 -0.0818  0.8702 -0.5318
 9372TIP3    H249608   0.068   1.029  11.676 -0.3122 -1.0192 -0.9906
 9373TIP3   OH249609   5.827   6.778   0.205  0.5046  0.1729 -0.9884
 9373TIP3    H149610   5.840   6.865   0.167 -1.5041  0.7049 -0.5691
 9373TIP3    H249611   5.757   6.739   0.152  0.7679 -0.8418 -0.6165
 9374TIP3   OH249612   2.687   0.434   0.508 -0.0149 -0.1429 -0.3906
 9374TIP3    H149613   2.591   0.439   0.505 -0.0560 -0.0337  0.7310
 9374TIP3    H249614   2.706   0.379   0.584  0.8051 -1.5194 -1.5302
 9375TIP3   OH249615   4.168   1.599   5.647 -0.3755 -0.0092  0.8536
 9375TIP3    H149616   4.202   1.685   5.622  0.0782 -0.5036 -0.3240
 9375TIP3    H249617   4.130   1.612   5.734  0.9315  1.0498  1.2912
 9376TIP3   OH249618   4.581   3.713  13.773 -0.2725  0.3622 -0.3096
 9376TIP3    H149619   4.617   3.755  13.695 -0.6828  0.3679 -0.5015
 9376TIP3    H249620   4.596   3.776  13.844  1.3461 -0.2270 -0.0947
 9377TIP3   OH249621   0.701   1.099  14.131 -0.4139  0.2119 -0.9907
 9377TIP3    H149622   0.773   1.037  14.143  0.0731  0.6838 -1.4120
 9377TIP3    H249623   0.684   1.097  14.036 -1.8355 -0.8598 -0.7468
 9378TIP3   OH249624   4.010   1.556  10.396 -0.8894 -0.3150  0.2227
 9378TIP3    H149625   3.989   1.649  10.391 -2.0761 -0.6132 -1.9494
 9378TIP3    H249626   3.926   1.514  10.417 -0.2140 -0.8833  1.9415
 9379TIP3   OH249627   0.511   4.614  11.657 -0.1157 -0.7473 -0.1586
 9379TIP3    H149628   0.423   4.648  11.637 -1.2050 -2.2258  1.7540
 9379TIP3    H249629   0.508   4.592  11.750  2.0119 -1.6962 -0.2532
 9380TIP3   OH249630   5.343   6.886  13.074  0.4161  0.1839 -0.1333
 9380TIP3    H149631   5.285   6.816  13.044  2.2496 -1.9600  0.9616
 9380TIP3    H249632   5.368   6.933  12.994  0.8679 -1.8600 -1.2706
 9381TIP3   OH249633   3.605   3.610   2.634  0.5259  0.0112  0.3458
 9381TIP3    H149634   3.677   3.555   2.602  0.4295  0.4135 -0.6195
 9381TIP3    H249635   3.636   3.644   2.718  1.3785  0.0004  0.0526
 9382TIP3   OH249636   6.289   6.446   2.332  0.2199 -0.5805 -0.0375
 9382TIP3    H149637   6.228   6.417   2.400  0.3208 -0.1962  0.2192
 9382TIP3    H249638   6.235   6.458   2.254 -0.0190 -0.3355  0.1628
 9383TIP3   OH249639   4.511   3.199   1.567  0.2379 -0.0117 -0.3764
 9383TIP3    H149640   4.551   3.239   1.644 -0.6252 -1.4483  0.9025
 9383TIP3    H249641   4.560   3.233   1.493  0.6042  2.0372  0.7441
 9384TIP3   OH249642   3.834   1.289   1.277  0.0266 -0.3482  0.1026
 9384TIP3    H149643   3.820   1.197   1.255  1.6401 -0.7006  0.3564
 9384TIP3    H249644   3.857   1.288   1.370 -0.0730  0.3159  0.1374
 9385TIP3   OH249645   6.709   2.838  10.488 -0.0616  0.0729  0.2300
 9385TIP3    H149646   6.779   2.774  10.476  0.2207  0.7514 -2.1047
 9385TIP3    H249647   6.644   2.815  10.422  0.1932  2.3632 -0.8911
 9386TIP3   OH249648   6.455   5.128   9.623  0.7076 -0.0847 -0.5744
 9386TIP3    H149649   6.443   5.077   9.542  0.1845 -0.6553 -0.1437
 9386TIP3    H249650   6.485   5.065   9.687 -1.0938 -0.1304  0.2918
 9387TIP3   OH249651   5.840   6.267   1.993  0.0427 -0.2186  0.0631
 9387TIP3    H149652   5.902   6.336   2.017 -0.6829  0.3553  0.3431
 9387TIP3    H249653   5.805   6.296   1.909 -1.9371  0.9783  1.2134
 9388TIP3   OH249654   5.899   6.915  12.865  0.1415 -0.0584  0.0262
 9388TIP3    H149655   5.918   6.891  12.956  0.0961  0.7677  0.2606
 9388TIP3    H249656   5.809   6.884  12.851  1.0961 -2.7885 -0.6730
 9389TIP3   OH249657   0.938   5.059   5.303  0.8912  0.5981 -0.1511
 9389TIP3    H149658   0.973   5.132   5.252 -1.1127  0.0383 -2.4875
 9389TIP3    H249659   0.852   5.089   5.331  0.7521 -0.2426  0.3406
 9390TIP3   OH249660   4.981   1.464  14.691  0.0773  0.1282  0.6107
 9390TIP3    H149661   5.004   1.550  14.726 -0.0712  0.6452 -0.5384
 9390TIP3    H249662   4.936   1.482  14.609 -0.0818 -1.0458  0.4224
 9391TIP3   OH249663   3.734   1.420   2.666 -0.1098 -0.0005 -0.0104
 9391TIP3    H149664   3.728   1.333   2.628 -2.1971  0.5071 -1.0407
 9391TIP3    H249665   3.806   1.462   2.619 -0.4824 -0.4897 -1.0591
 9392TIP3   OH249666   1.344   1.047   1.258  0.1334 -0.2072 -0.2689
 9392TIP3    H149667   1.385   0.963   1.238 -1.8048 -1.4127  0.4747
 9392TIP3    H249668   1.411   1.097   1.304  2.9705  0.6166 -4.6450
 9393TIP3   OH249669   0.494   1.275  11.940  0.0648  0.4712 -0.0682
 9393TIP3    H149670   0.458   1.330  12.009 -1.3146  0.2811 -0.5927
 9393TIP3    H249671   0.559   1.220  11.984  0.1323  1.2331  0.8054
 9394TIP3   OH249672   4.295   2.077  14.902 -0.5133 -0.4543  0.1608
 9394TIP3    H149673   4.258   2.081  14.990 -0.3074 -1.4683  0.3023
 9394TIP3    H249674   4.387   2.101  14.914 -0.2328 -1.5890  0.3959
 9395TIP3   OH249675   0.059   5.663  11.022  0.1452  0.8324 -0.2014
 9395TIP3    H149676   0.117   5.635  10.952  0.9132  0.3123  0.6174
 9395TIP3    H249677   0.025   5.748  10.993  1.3039  1.1405 -0.7085
 9396TIP3   OH249678   1.337   3.659  14.043 -0.5699 -0.1544 -0.5217
 9396TIP3    H149679   1.335   3.755  14.037 -0.4159  0.0130  1.3667
 9396TIP3    H249680   1.250   3.632  14.014 -0.6379  0.5494 -1.0211
 9397TIP3   OH249681   6.567   1.732  11.503 -0.2540  0.1551 -0.5982
 9397TIP3    H149682   6.474   1.743  11.524  0.0233  0.4845  0.5201
 9397TIP3    H249683   6.575   1.765  11.413 -1.2734 -0.1863 -0.8308
 9398TIP3   OH249684   5.309   4.579   9.791 -0.1763  0.1582 -0.1559
 9398TIP3    H149685   5.400   4.549   9.794 -0.1636 -0.0049 -1.4601
 9398TIP3    H249686   5.313   4.670   9.820 -0.0775 -0.7336  2.9630
 9399TIP3   OH249687   4.529   4.216  11.396 -0.5759  0.4158  0.2334
 9399TIP3    H149688   4.561   4.241  11.483  0.8986  0.6851 -0.3562
 9399TIP3    H249689   4.607   4.216  11.341 -1.7352  2.1890 -1.5382
 9400TIP3   OH249690   1.528   6.243  10.487 -0.6491  0.3741 -1.0402
 9400TIP3    H149691   1.589   6.170  10.497 -1.5763 -0.4383 -1.1907
 9400TIP3    H249692   1.499   6.263  10.576  0.1918  1.0877 -0.9148
 9401TIP3   OH249693   1.858   6.338   0.779 -0.1134  0.3854 -0.6339
 9401TIP3    H149694   1.932   6.297   0.823 -1.1391  0.4155  1.2250
 9401TIP3    H249695   1.837   6.278   0.707  0.6035 -0.5259 -0.1062
 9402TIP3   OH249696   1.099   5.002  11.622 -0.0245 -0.1109 -0.5764
 9402TIP3    H149697   1.145   4.994  11.705 -1.1296 -0.9718 -0.0096
 9402TIP3    H249698   1.103   4.914  11.584  1.0269  0.4140 -1.7707
 9403TIP3   OH249699   5.723   0.817  12.229  0.3696  0.5640 -0.0569
 9403TIP3    H149700   5.692   0.727  12.221  0.0334  0.5540  1.1094
 9403TIP3    H249701   5.765   0.836  12.145 -0.8975 -0.1602 -0.8892
 9404TIP3   OH249702   3.765   6.251  12.314  0.9220  0.3992  0.1605
 9404TIP3    H149703   3.771   6.247  12.218  0.6609 -1.5051  0.1828
 9404TIP3    H249704   3.828   6.186  12.345  0.7305  0.7254  1.2733
 9405TIP3   OH249705   6.893   3.914   3.608 -0.5184 -0.3979 -0.6746
 9405TIP3    H149706   6.936   3.979   3.663 -3.4635  0.8914  0.3056
 9405TIP3    H249707   6.854   3.964   3.536 -2.6512 -1.0184 -0.0402
 9406TIP3   OH249708   5.305   0.572   5.809 -0.0085 -0.0592  0.5268
 9406TIP3    H149709   5.241   0.579   5.880  0.3020 -2.4010  1.1407
 9406TIP3    H249710   5.330   0.479   5.809  3.1778  0.6882  0.1454
 9407TIP3   OH249711   5.970   5.166  14.546  0.1470  0.2910 -0.0080
 9407TIP3    H149712   6.043   5.195  14.491 -0.4230 -0.1643 -1.0502
 9407TIP3    H249713   5.960   5.073  14.524 -1.8379  0.7328 -1.2153
 9408TIP3   OH249714   6.389   1.661   1.267  0.5378 -0.4260  0.3639
 9408TIP3    H149715   6.470   1.628   1.228  1.0417  1.4467 -0.3119
 9408TIP3    H249716   6.399   1.645   1.361  2.0453  0.4083  0.3775
 9409TIP3   OH249717   3.751   5.860  14.581 -0.3387 -0.0539 -0.4009
 9409TIP3    H149718   3.687   5.865  14.653 -2.0096  0.7564 -1.8682
 9409TIP3    H249719   3.711   5.801  14.517  0.8550 -0.3112 -0.9392
 9410TIP3   OH249720   3.963   1.209  15.328  0.4223  0.8592  0.2856
 9410TIP3    H149721   4.022   1.281  15.350  0.8815  0.7755 -0.6485
 9410TIP3    H249722   3.877   1.251  15.322  0.6527  1.2990 -0.0507
 9411TIP3   OH249723   4.389   3.555  14.437  0.2532  0.6518  0.3974
 9411TIP3    H149724   4.436   3.493  14.381 -0.9581 -1.0782  1.2007
 9411TIP3    H249725   4.307   3.571  14.392 -0.5544 -0.4294  1.3999
 9412TIP3   OH249726   0.021   2.823   3.532 -0.3555 -0.2627 -0.2661
 9412TIP3    H149727   0.096   2.766   3.516  1.0001  1.4974 -0.4644
 9412TIP3    H249728  -0.042   2.766   3.576  1.4348 -1.5866  0.7491
 9413TIP3   OH249729   4.053   2.544   2.494  0.1898  0.1942 -0.1009
 9413TIP3    H149730   4.063   2.476   2.427  0.1447  1.0129 -0.9610
 9413TIP3    H249731   4.120   2.609   2.473  0.8955 -0.0319  1.3031
 9414TIP3   OH249732   4.051   1.915  10.321  0.1287 -0.4998  0.2773
 9414TIP3    H149733   4.062   1.871  10.237  0.5814 -2.3994  1.2932
 9414TIP3    H249734   3.967   1.962  10.312  0.5313 -0.0239 -1.4623
 9415TIP3   OH249735   0.426   1.091  11.713 -0.4191 -0.2676 -0.8040
 9415TIP3    H149736   0.480   1.120  11.639 -1.0303  0.1723 -1.0920
 9415TIP3    H249737   0.436   1.159  11.779  3.1504 -2.3925  1.1668
 9416TIP3   OH249738   1.713   2.033  14.034 -0.3169 -0.3247 -0.4593
 9416TIP3    H149739   1.774   2.046  14.107 -1.8695  0.0422  0.8150
 9416TIP3    H249740   1.691   1.940  14.038  1.2091 -0.7930 -1.8249
 9417TIP3   OH249741   5.076   2.269   0.575  0.4404  0.7577  0.0789
 9417TIP3    H149742   5.109   2.280   0.486 -0.9566  0.4138 -0.4986
 9417TIP3    H249743   4.987   2.303   0.572  0.5375  1.1913  1.4787
 9418TIP3   OH249744   3.841   5.540   4.905 -0.0530  0.3970 -0.4672
 9418TIP3    H149745   3.761   5.501   4.869 -0.1615  1.2641 -1.1873
 9418TIP3    H249746   3.845   5.627   4.866  1.2322  0.3777 -0.4064
 9419TIP3   OH249747   3.657   5.104  15.419  0.3639  0.4865  0.1247
 9419TIP3    H149748   3.604   5.077  15.493  1.0030  0.6165  0.6422
 9419TIP3    H249749   3.637   5.197  15.407  0.5438  0.5601  0.3842
 9420TIP3   OH249750   2.167   1.958  11.720  0.3936 -0.4865  0.1211
 9420TIP3    H149751   2.191   2.050  11.735  1.3757 -0.5502 -0.8926
 9420TIP3    H249752   2.104   1.938  11.789 -0.3613  1.1471 -0.0554
 9421TIP3   OH249753   0.570   4.925  13.338 -0.8249 -0.1177  0.6971
 9421TIP3    H149754   0.582   5.018  13.358 -0.0275 -0.2378  0.7875
 9421TIP3    H249755   0.656   4.895  13.310 -1.3544 -0.5258 -0.5820
 9422TIP3   OH249756   1.588   0.287  15.218 -0.1236  0.2039 -0.0479
 9422TIP3    H149757   1.595   0.362  15.158 -2.2381  0.6282  0.1618
 9422TIP3    H249758   1.666   0.235  15.200 -0.5134  0.4328 -3.0107
 9423TIP3   OH249759   1.992   2.414   4.075 -0.1822  0.0351  0.3179
 9423TIP3    H149760   1.962   2.393   3.986 -1.6057  1.8858  0.3076
 9423TIP3    H249761   2.036   2.499   4.066 -1.1448  0.6887  1.5042
 9424TIP3   OH249762   6.179   2.777   2.753 -0.0421  0.1682  0.3645
 9424TIP3    H149763   6.114   2.725   2.799 -0.4295  1.5312  1.4064
 9424TIP3    H249764   6.260   2.727   2.762 -0.3201 -0.0867  1.6630
 9425TIP3   OH249765   5.592   4.934  14.587  0.4375 -0.1168  0.4135
 9425TIP3    H149766   5.635   4.869  14.532  0.1079  1.6270 -2.0604
 9425TIP3    H249767   5.604   4.902  14.676  1.9875 -2.5070 -0.5637
 9426TIP3   OH249768   3.849   0.862   3.704  0.0035 -0.2491 -0.0396
 9426TIP3    H149769   3.770   0.869   3.758 -0.0719 -0.5668 -0.1069
 9426TIP3    H249770   3.914   0.822   3.762  0.3184  0.6243  0.2237
 9427TIP3   OH249771   1.251   6.340   3.330  0.2915 -0.0464 -0.1782
 9427TIP3    H149772   1.339   6.363   3.361  1.3821 -0.9961 -2.3494
 9427TIP3    H249773   1.233   6.255   3.368  0.8387 -0.3793 -0.6445
 9428TIP3   OH249774   6.619   6.777  12.226 -0.2132  0.2864  0.4127
 9428TIP3    H149775   6.632   6.819  12.311  1.1644 -1.3028  1.0434
 9428TIP3    H249776   6.706   6.778  12.185 -0.5350 -0.3292 -0.3144
 9429TIP3   OH249777   2.149   1.386  15.438 -0.2154  0.3289  0.2783
 9429TIP3    H149778   2.162   1.399  15.344  0.1331 -0.2676  0.2343
 9429TIP3    H249779   2.184   1.465  15.478  0.1789  0.3389 -0.0713
 9430TIP3   OH249780   5.391   7.031   0.559  0.1224 -0.3718  0.4232
 9430TIP3    H149781   5.452   6.995   0.623  0.0266 -1.6798 -0.1891
 9430TIP3    H249782   5.442   7.038   0.478  0.2510  1.2886  0.6030
 9431TIP3   OH249783   0.128   5.387  15.059  0.1508 -0.0311  0.4136
 9431TIP3    H149784   0.204   5.444  15.044  0.4038 -0.6095 -0.5805
 9431TIP3    H249785   0.116   5.388  15.154  0.9484  0.6458  0.5233
 9432TIP3   OH249786   6.173   0.958  12.923 -0.1716 -0.0482 -0.2725
 9432TIP3    H149787   6.181   0.985  12.832  0.0286  0.7492 -0.0271
 9432TIP3    H249788   6.192   0.864  12.922  1.0938  0.1940 -0.8829
 9433TIP3   OH249789   0.939   1.321  15.218 -0.1363  0.2624 -0.3483
 9433TIP3    H149790   1.033   1.329  15.238 -0.1687 -0.0969 -0.0375
 9433TIP3    H249791   0.921   1.393  15.158  0.1100  1.0006  0.4402
 9434TIP3   OH249792   6.658   3.148   1.037  0.1539 -0.3747 -0.7180
 9434TIP3    H149793   6.713   3.141   1.116  0.8377 -1.3478 -1.2492
 9434TIP3    H249794   6.709   3.203   0.978 -0.5756  0.7511 -0.3239
 9435TIP3   OH249795   0.395   3.561  14.831 -0.2079 -0.2005  0.5684
 9435TIP3    H149796   0.471   3.597  14.876  0.0674  2.9522 -2.0033
 9435TIP3    H249797   0.331   3.632  14.832 -0.4278 -0.1408 -3.1408
 9436TIP3   OH249798   2.597   6.896   3.017  0.6081 -0.0648  0.0344
 9436TIP3    H149799   2.542   6.974   3.023  0.8385  0.0150  1.8612
 9436TIP3    H249800   2.665   6.919   2.954  0.7276  1.2684  0.6175
 9437TIP3   OH249801   5.535   3.803   5.321  0.1239 -0.2017  0.0477
 9437TIP3    H149802   5.521   3.879   5.265  1.4778  0.0852  0.0719
 9437TIP3    H249803   5.447   3.768   5.336 -0.3589  0.3261 -1.3907
 9438TIP3   OH249804   4.548   5.240  11.854 -0.1140  0.2471 -0.4841
 9438TIP3    H149805   4.596   5.309  11.809 -1.3264  0.7263 -1.0949
 9438TIP3    H249806   4.592   5.231  11.939  1.8133 -0.2237 -1.4826
 9439TIP3   OH249807   5.688   7.136  15.127  0.1878 -0.0371  0.2431
 9439TIP3    H149808   5.654   7.225  15.138  0.1892  0.0066 -0.1053
 9439TIP3    H249809   5.612   7.080  15.137  0.0857  0.0367 -0.1194
 9440TIP3   OH249810   6.198   4.720   5.922 -0.1404  0.1073  0.1969
 9440TIP3    H149811   6.174   4.810   5.945  0.2454  0.2030  0.2173
 9440TIP3    H249812   6.241   4.686   6.001 -2.5096 -0.9289  1.1514
 9441TIP3   OH249813   2.933   0.313  13.980 -0.1955  0.6829 -0.3073
 9441TIP3    H149814   2.881   0.324  13.900  0.0519 -1.6780 -0.8431
 9441TIP3    H249815   3.017   0.353  13.959  0.0301 -0.3231 -1.4315
 9442TIP3   OH249816   2.737   3.230  10.848  0.2819 -0.1575  0.1736
 9442TIP3    H149817   2.822   3.272  10.858 -0.1037  0.9125 -0.8042
 9442TIP3    H249818   2.754   3.136  10.860  2.0432 -0.2253 -2.2220
 9443TIP3   OH249819   0.475   5.275  13.596  0.4879 -1.2243  0.0018
 9443TIP3    H149820   0.383   5.288  13.618  0.4926 -3.2236  1.4931
 9443TIP3    H249821   0.474   5.242  13.506 -0.2408 -1.3271  0.0447
 9444TIP3   OH249822   1.047   3.857  10.800 -0.0228 -0.1479  0.3090
 9444TIP3    H149823   1.142   3.859  10.814  0.1028  1.5662 -0.5314
 9444TIP3    H249824   1.026   3.764  10.788  1.7327 -0.4534 -0.6739
 9445TIP3   OH249825   0.951   2.166  14.855  0.6182 -0.7486  0.2748
 9445TIP3    H149826   0.870   2.116  14.861  1.2924 -1.8160  1.0627
 9445TIP3    H249827   0.993   2.153  14.940 -0.0480  2.8079  1.3017
 9446TIP3   OH249828   3.007   4.101  14.722 -0.0280 -0.5117  0.3203
 9446TIP3    H149829   2.981   4.130  14.635  0.3610  1.5682  0.8605
 9446TIP3    H249830   2.926   4.099  14.772  0.0402  0.3339  0.4663
 9447TIP3   OH249831   4.012   2.840  10.428 -0.4456  0.0378  0.4121
 9447TIP3    H149832   4.074   2.821  10.358  0.1637  0.4585  0.8317
 9447TIP3    H249833   4.063   2.835  10.508 -0.5182  2.1638  0.6467
 9448TIP3   OH249834   0.911   5.582  11.151  0.3620  0.5880  0.2171
 9448TIP3    H149835   0.890   5.562  11.243  0.6791 -1.0369 -0.0395
 9448TIP3    H249836   0.861   5.661  11.133  0.1332  0.8369  1.7390
 9449TIP3   OH249837   3.102   1.875  10.151  0.4819  0.2704  0.1749
 9449TIP3    H149838   3.028   1.930  10.126  1.1950  0.8980 -0.6223
 9449TIP3    H249839   3.076   1.786  10.125  0.3379  0.6013 -0.8625
 9450TIP3   OH249840   5.280   2.250   9.800  0.0452 -0.0338  0.7749
 9450TIP3    H149841   5.337   2.195   9.746  2.6372  2.4935  0.6839
 9450TIP3    H249842   5.239   2.310   9.738  0.8886  1.0990  1.2846
 9451TIP3   OH249843   5.803   2.092  13.793 -0.4743  0.5251 -0.0407
 9451TIP3    H149844   5.723   2.053  13.757 -0.1932 -1.5426  1.3646
 9451TIP3    H249845   5.870   2.025  13.780  0.9348  2.0032 -0.6877
 9452TIP3   OH249846   2.434   6.001   0.767 -0.1564 -0.5347  0.1414
 9452TIP3    H149847   2.416   5.909   0.788 -1.1212 -0.8823 -1.9351
 9452TIP3    H249848   2.485   5.997   0.686  1.8970  0.7376  1.2802
 9453TIP3   OH249849   4.569   0.823   1.963 -0.5555 -0.0507 -0.1500
 9453TIP3    H149850   4.489   0.784   1.930 -0.1952  0.4309 -1.6999
 9453TIP3    H249851   4.540   0.887   2.028 -1.4980  0.5425 -1.1092
 9454TIP3   OH249852   4.663   5.251   3.723 -0.1078 -0.0557  0.3774
 9454TIP3    H149853   4.607   5.211   3.656 -1.5380  0.8360  0.9857
 9454TIP3    H249854   4.706   5.177   3.766  1.2797 -0.6244 -1.8569
 9455TIP3   OH249855   2.417   6.416  12.760  0.2806  0.0248  0.2181
 9455TIP3    H149856   2.341   6.358  12.764  1.2113 -1.2765 -0.4547
 9455TIP3    H249857   2.389   6.486  12.701 -0.0875 -0.9488 -0.8012
 9456TIP3   OH249858   5.730   1.230  10.978  0.0104 -0.8024  0.2953
 9456TIP3    H149859   5.795   1.173  11.019 -0.6886 -1.6871  0.2017
 9456TIP3    H249860   5.719   1.194  10.890  0.1927  0.0110 -0.0702
 9457TIP3   OH249861   5.544   3.368   2.782 -0.0210  0.0398 -1.1013
 9457TIP3    H149862   5.557   3.424   2.706 -0.0143 -0.1413 -1.2352
 9457TIP3    H249863   5.600   3.406   2.850 -1.6033  1.4338 -0.5294
 9458TIP3   OH249864   3.884   7.047  11.936  0.3421  0.0303 -0.8786
 9458TIP3    H149865   3.821   7.063  11.865  0.5250  0.1982 -1.0018
 9458TIP3    H249866   3.855   7.105  12.006 -0.5624 -0.9975 -0.3698
 9459TIP3   OH249867   6.913   6.568  13.384  0.6024  0.1833 -0.0062
 9459TIP3    H149868   6.910   6.641  13.447  1.8275  1.0324 -0.8982
 9459TIP3    H249869   6.992   6.584  13.332  0.4631 -1.3668 -0.7351
 9460TIP3   OH249870   2.429   0.891  10.706 -0.2302 -0.5363 -0.2799
 9460TIP3    H149871   2.515   0.929  10.692  0.8511 -1.6584  2.5493
 9460TIP3    H249872   2.416   0.831  10.633  2.3727 -1.9015  0.2688
 9461TIP3   OH249873   1.069   3.186  13.405 -0.5882 -0.4790 -0.4519
 9461TIP3    H149874   1.136   3.127  13.441 -0.2196  0.3025  0.1762
 9461TIP3    H249875   1.002   3.128  13.370 -0.2576 -1.2745  0.2034
 9462TIP3   OH249876   0.628   1.357  11.705  0.8486  0.1164 -0.1970
 9462TIP3    H149877   0.655   1.449  11.702  0.4871  0.2940  1.4543
 9462TIP3    H249878   0.586   1.346  11.790  0.7243 -1.5473 -0.4311
 9463TIP3   OH249879   2.547   2.788  12.521  0.4310 -0.3188 -0.0335
 9463TIP3    H149880   2.628   2.834  12.500  0.5274 -0.1864  0.6074
 9463TIP3    H249881   2.575   2.698  12.539  0.4707 -0.2272  0.3862
 9464TIP3   OH249882   4.031   2.574  10.087 -0.4445 -0.1318 -0.1371
 9464TIP3    H149883   3.937   2.562  10.104 -0.4827  0.3019 -0.0334
 9464TIP3    H249884   4.054   2.653  10.136  0.4585 -1.4473  1.6942
 9465TIP3   OH249885   1.063   0.339  10.237  0.4036  0.0884  0.6038
 9465TIP3    H149886   1.130   0.344  10.305  1.7269  1.6936 -0.7222
 9465TIP3    H249887   1.026   0.251  10.246  1.3281 -0.1616  2.6064
 9466TIP3   OH249888   2.383   3.669   2.529 -0.0195 -0.5050  0.0495
 9466TIP3    H149889   2.404   3.636   2.616 -1.7358 -0.8773  0.3465
 9466TIP3    H249890   2.469   3.679   2.487  0.8576 -0.1318  1.8185
 9467TIP3   OH249891   4.952   4.471   2.752 -0.1197 -0.0095 -0.2200
 9467TIP3    H149892   4.928   4.563   2.768  0.1271  0.1815 -0.9010
 9467TIP3    H249893   4.995   4.472   2.666 -1.2655 -0.9553 -0.8415
 9468TIP3   OH249894   6.860   3.802  13.693 -0.0563  0.6038  0.8616
 9468TIP3    H149895   6.889   3.892  13.676  0.4219  0.4081  0.6266
 9468TIP3    H249896   6.836   3.768  13.607 -1.7270  0.9998  1.1309
 9469TIP3   OH249897   4.540   2.514   0.154 -0.6545 -0.3194 -0.2595
 9469TIP3    H149898   4.470   2.462   0.193 -0.0733 -0.5872  0.4348
 9469TIP3    H249899   4.553   2.476   0.067  0.2589 -1.8384  0.5056
 9470TIP3   OH249900   2.403   3.676   0.126  0.2069  0.1159 -0.2834
 9470TIP3    H149901   2.491   3.640   0.132 -0.0505 -0.5041 -0.1725
 9470TIP3    H249902   2.372   3.649   0.040  0.1319  0.3458 -0.3280
 9471TIP3   OH249903   3.797   4.908   4.096  0.1425 -0.0652  0.2339
 9471TIP3    H149904   3.892   4.904   4.108  0.1091  0.5938  0.7707
 9471TIP3    H249905   3.780   4.998   4.069 -0.3236 -0.2186  0.0031
 9472TIP3   OH249906   5.249   5.803  11.822  0.0879 -0.2997 -0.2741
 9472TIP3    H149907   5.295   5.721  11.804 -0.1905 -0.5674  0.2306
 9472TIP3    H249908   5.307   5.871  11.786  0.4924 -0.6871 -0.3602
 9473TIP3   OH249909   6.559   6.428  10.306 -0.1734 -0.4717  0.2362
 9473TIP3    H149910   6.475   6.386  10.286  0.2939 -0.1313 -2.8724
 9473TIP3    H249911   6.625   6.366  10.275  0.7763 -0.4770  2.1169
 9474TIP3   OH249912   2.848   4.489  13.704 -0.5839 -0.1132  0.1416
 9474TIP3    H149913   2.784   4.456  13.767 -2.7961  1.6109 -1.0655
 9474TIP3    H249914   2.833   4.437  13.625 -0.4505  0.2632 -0.1317
 9475TIP3   OH249915   1.407   0.490   1.757  0.1921 -0.2287  0.1203
 9475TIP3    H149916   1.468   0.531   1.819 -0.3025 -1.8296  1.7666
 9475TIP3    H249917   1.320   0.509   1.792 -0.1297 -0.6149 -0.4430
 9476TIP3   OH249918   3.195   0.925   4.194  0.3065  0.3580  0.0541
 9476TIP3    H149919   3.103   0.898   4.195  0.5717 -0.6910 -0.9897
 9476TIP3    H249920   3.195   1.014   4.231 -1.2987  0.8879 -1.1101
 9477TIP3   OH249921   0.884   4.711   5.249  0.1977 -0.1446 -0.0709
 9477TIP3    H149922   0.876   4.697   5.343  0.5752  1.0505  0.1592
 9477TIP3    H249923   0.835   4.792   5.233 -2.9204 -2.1108 -1.4910
 9478TIP3   OH249924   3.376   4.093  13.964 -0.0922 -0.5541  0.5978
 9478TIP3    H149925   3.329   4.160  14.014  0.3067  0.6855 -0.6496
 9478TIP3    H249926   3.428   4.141  13.901 -0.6073 -2.0698 -1.0790
 9479TIP3   OH249927   4.836   5.524   1.587  0.3681 -0.0371 -0.9691
 9479TIP3    H149928   4.754   5.474   1.587  0.9855 -1.1686 -2.7652
 9479TIP3    H249929   4.853   5.541   1.494  2.9473 -1.1884 -0.7867
 9480TIP3   OH249930   0.158   3.690  13.318 -0.3642 -0.0471 -0.0891
 9480TIP3    H149931   0.203   3.608  13.300 -0.1304 -0.4006  1.8946
 9480TIP3    H249932   0.225   3.747  13.355 -0.4130  1.2509 -1.8523
 9481TIP3   OH249933   3.074   1.782  12.944 -0.0693  0.0347 -0.3112
 9481TIP3    H149934   3.023   1.832  12.880  0.3722 -0.5761 -1.1569
 9481TIP3    H249935   3.163   1.816  12.935  0.1663 -0.6544 -0.6501
 9482TIP3   OH249936   2.925   3.972   0.282 -0.1340 -0.7399  0.0879
 9482TIP3    H149937   3.006   4.010   0.316  0.9007 -1.2382 -1.6790
 9482TIP3    H249938   2.855   4.018   0.329  1.1441  0.3436  1.0070
 9483TIP3   OH249939   7.131   6.580  15.531  0.2587 -0.5237 -0.3283
 9483TIP3    H149940   7.227   6.581  15.535  0.2130 -0.9663  2.5526
 9483TIP3    H249941   7.106   6.672  15.529  0.7192 -0.4013 -0.7352
 9484TIP3   OH249942   1.978   2.875  14.550 -0.0869 -0.5173 -0.3854
 9484TIP3    H149943   2.013   2.964  14.552  1.2780 -0.9926  2.6781
 9484TIP3    H249944   2.052   2.821  14.523  0.6714 -1.1465  2.5974
 9485TIP3   OH249945   4.425   0.421   2.435  0.5198 -0.6159  0.6114
 9485TIP3    H149946   4.475   0.360   2.488  0.6607  1.1741  2.6765
 9485TIP3    H249947   4.335   0.390   2.441  0.6420 -0.8466  1.3044
 9486TIP3   OH249948   5.972   4.143   5.132  0.2460 -0.1258  0.5138
 9486TIP3    H149949   5.968   4.230   5.171 -0.3151  0.5448 -0.9574
 9486TIP3    H249950   6.055   4.106   5.162  0.8706  1.2467  0.5092
 9487TIP3   OH249951   3.945   0.987  11.097 -0.1019  0.0056  0.1457
 9487TIP3    H149952   3.982   0.957  11.014 -1.1661 -0.4018 -0.2008
 9487TIP3    H249953   3.899   0.911  11.132  0.2314  0.2103  1.0575
 9488TIP3   OH249954   0.332   7.033  11.869  0.0879 -0.3634  0.3771
 9488TIP3    H149955   0.334   6.939  11.884 -0.6404 -0.4357  0.0663
 9488TIP3    H249956   0.240   7.056  11.874  0.2409  0.2977  0.2381
 9489TIP3   OH249957   2.143   3.870   2.897 -0.2724  0.4204  0.2243
 9489TIP3    H149958   2.055   3.852   2.929  0.4240  0.0467  2.0490
 9489TIP3    H249959   2.165   3.955   2.936  1.3685 -0.9784  2.6145
 9490TIP3   OH249960   1.820   4.071  11.257  0.0509 -0.7745  0.1060
 9490TIP3    H149961   1.801   3.988  11.214 -1.3585  0.2490 -1.3394
 9490TIP3    H249962   1.809   4.137  11.189  2.9832  0.5141  0.7008
 9491TIP3   OH249963   4.272   3.283  12.273  0.5046  0.4188  0.4296
 9491TIP3    H149964   4.234   3.219  12.333  2.1816 -0.0812  1.0240
 9491TIP3    H249965   4.242   3.367  12.306 -0.2933  0.0281  0.7158
 9492TIP3   OH249966   4.877   6.070  14.192 -0.1991 -0.2712 -0.2819
 9492TIP3    H149967   4.915   6.114  14.116 -0.4849  1.2550  0.4323
 9492TIP3    H249968   4.950   6.063  14.254 -0.1721 -0.7896 -0.3609
 9493TIP3   OH249969   3.630   5.428  11.016  0.2594 -0.5257  0.3788
 9493TIP3    H149970   3.661   5.474  11.094 -1.3632 -0.3319  0.9405
 9493TIP3    H249971   3.706   5.426  10.958  1.0043  0.8792  1.2497
 9494TIP3   OH249972   4.528   4.920  11.861 -0.0048 -0.1134  0.7790
 9494TIP3    H149973   4.498   4.832  11.886 -1.5359  0.3712  0.7601
 9494TIP3    H249974   4.448   4.969  11.845  0.8379  1.1234  0.1504
 9495TIP3   OH249975   4.834   2.515  11.764 -0.1808  0.2403 -0.2413
 9495TIP3    H149976   4.878   2.548  11.685  0.6312 -0.4076 -0.0705
 9495TIP3    H249977   4.796   2.431  11.737  0.4434 -0.1761  0.1604
 9496TIP3   OH249978   0.567   6.199   0.707  0.5995  0.2224 -0.3892
 9496TIP3    H149979   0.525   6.279   0.677  0.0240 -0.7962 -2.4243
 9496TIP3    H249980   0.636   6.230   0.767 -0.1639  2.1567 -0.4371
 9497TIP3   OH249981   1.706   6.779   1.655 -0.3751 -0.4087  0.3269
 9497TIP3    H149982   1.703   6.811   1.745 -1.3525 -0.5117  0.3342
 9497TIP3    H249983   1.788   6.729   1.650 -1.2932 -2.1482  1.7484
 9498TIP3   OH249984   2.654   0.554  12.745  0.4060 -0.8175 -0.0332
 9498TIP3    H149985   2.589   0.486  12.730 -0.4602 -0.1845  0.7615
 9498TIP3    H249986   2.710   0.520  12.814 -0.6539 -0.3401  1.1089
 9499TIP3   OH249987   1.989   6.561  13.957  0.3963 -0.1484  0.7477
 9499TIP3    H149988   1.979   6.598  14.044 -0.8820 -1.0223  1.0005
 9499TIP3    H249989   2.084   6.562  13.941  0.7145 -0.6036  2.4280
 9500TIP3   OH249990   0.009   2.713  10.619 -0.1895 -0.6077 -0.0904
 9500TIP3    H149991   0.073   2.686  10.553  1.2119  2.0904  0.0203
 9500TIP3    H249992   0.036   2.801  10.644 -2.6831 -0.2240  1.6376
 9501TIP3   OH249993   5.134   3.265  13.939  0.2075 -0.5658 -0.6255
 9501TIP3    H149994   5.154   3.272  13.845  4.3518  1.4574  0.1628
 9501TIP3    H249995   5.130   3.356  13.969 -0.4853 -1.1898  1.3015
 9502TIP3   OH249996   4.923   3.153  12.636  0.2200  0.3478 -0.1663
 9502TIP3    H149997   4.840   3.106  12.645 -1.8666  3.6104 -0.6460
 9502TIP3    H249998   4.982   3.110  12.698 -2.6922 -0.4421  2.3163
 9503TIP3   OH249999   0.852   4.086  14.773  0.1715 -0.1597 -0.1296
 9503TIP3    H150000   0.817   4.035  14.845  1.1423  0.0455  0.5078
 9503TIP3    H250001   0.784   4.083  14.706 -0.2626 -1.3119  0.3431
 9504TIP3   OH250002   1.770   5.316   3.351  0.3534  0.0638  0.0178
 9504TIP3    H150003   1.734   5.345   3.267  0.3957 -1.1461 -0.4498
 9504TIP3    H250004   1.752   5.222   3.353  0.4117  0.0576  1.3459
 9505TIP3   OH250005   0.170   6.578  11.773 -0.5517 -0.3910  0.3257
 9505TIP3    H150006   0.126   6.561  11.689 -0.3677  1.5447 -0.2222
 9505TIP3    H250007   0.216   6.497  11.793 -2.7135 -1.8117 -0.0908
 9506TIP3   OH250008   4.884   6.727  11.721  0.5542  0.4751  0.0241
 9506TIP3    H150009   4.839   6.703  11.802  1.3657  0.2808  0.4276
 9506TIP3    H250010   4.913   6.643  11.684 -0.7054  0.4613 -1.0194
 9507TIP3   OH250011   1.753   2.743  10.523  0.0930  0.0207  0.0555
 9507TIP3    H150012   1.718   2.827  10.554 -0.8626 -0.6799  0.9089
 9507TIP3    H250013   1.848   2.757  10.521  0.0664  0.6694  1.6118
 9508TIP3   OH250014   1.770   0.958   3.980  0.2762 -0.2297  0.6655
 9508TIP3    H150015   1.853   0.985   4.019 -0.2132  0.8676  1.0163
 9508TIP3    H250016   1.704   0.982   4.046 -0.2642 -1.7136  0.6951
 9509TIP3   OH250017   5.572   0.591   2.842  0.0159 -0.3337 -0.5196
 9509TIP3    H150018   5.477   0.592   2.853  0.1808 -0.6521  1.1935
 9509TIP3    H250019   5.585   0.600   2.748 -1.6956  0.0942 -0.7514
 9510TIP3   OH250020   4.443   1.636  14.829 -0.1296 -0.2468 -0.1881
 9510TIP3    H150021   4.457   1.661  14.738 -1.0447  0.6344 -0.1115
 9510TIP3    H250022   4.518   1.672  14.876 -0.5816  0.9365 -0.3378
 9511TIP3   OH250023   0.266   3.615  10.523  0.2392  0.3413  0.1074
 9511TIP3    H150024   0.288   3.707  10.515 -0.4354  0.5596  0.7485
 9511TIP3    H250025   0.173   3.613  10.542  0.6751 -0.3495  2.5967
 9512TIP3   OH250026   1.386   4.554  14.090  0.3614  0.6742 -0.0456
 9512TIP3    H150027   1.468   4.542  14.137 -0.0279  0.0199  0.4798
 9512TIP3    H250028   1.360   4.645  14.110 -0.8255 -0.1616  2.7403
 9513TIP3   OH250029   3.364   5.094   3.289  0.6887  0.7937 -0.1773
 9513TIP3    H150030   3.396   5.168   3.340 -1.1791  1.3166  0.3089
 9513TIP3    H250031   3.379   5.119   3.198 -2.3182  3.0728 -0.2036
 9514TIP3   OH250032   2.797   1.533   3.651  0.2102 -0.4743 -0.1411
 9514TIP3    H150033   2.809   1.561   3.560  0.8999  1.5909  0.5531
 9514TIP3    H250034   2.884   1.506   3.680  0.0726 -0.7032  0.0701
 9515TIP3   OH250035   2.933   1.360   3.155 -0.2617  0.0264 -0.2551
 9515TIP3    H150036   3.009   1.360   3.098 -0.8244 -0.9784 -1.0420
 9515TIP3    H250037   2.915   1.267   3.172 -2.6013  0.0712 -1.9200
 9516TIP3   OH250038   4.860   5.065   0.636 -0.2626  0.1909 -0.3251
 9516TIP3    H150039   4.782   5.094   0.685 -0.3655  0.5279 -0.6837
 9516TIP3    H250040   4.832   5.063   0.545 -0.2942 -1.2015 -0.3047
 9517TIP3   OH250041   6.478   0.437  10.760  0.0487  0.1368  0.4830
 9517TIP3    H150042   6.515   0.357  10.796  0.9224  0.4865  0.3748
 9517TIP3    H250043   6.438   0.410  10.678  1.5324  0.0329 -0.2361
 9518TIP3   OH250044   2.035   1.021   0.687  0.0401 -0.4035  0.0551
 9518TIP3    H150045   1.963   1.073   0.724  0.9152 -0.4292  1.9268
 9518TIP3    H250046   2.103   1.024   0.754  1.1578 -1.7431 -0.9645
 9519TIP3   OH250047   0.838   3.395   2.127  0.1623 -0.0943  0.4891
 9519TIP3    H150048   0.742   3.399   2.132  0.2186  0.1310  1.6323
 9519TIP3    H250049   0.860   3.310   2.164  0.4537  0.3186  1.2939
 9520TIP3   OH250050   6.047   0.415  12.684  0.5448  0.5768 -0.2168
 9520TIP3    H150051   6.056   0.363  12.605  0.0740  2.0935 -1.3137
 9520TIP3    H250052   6.136   0.442  12.706  1.0073 -1.8623  1.2574
 9521TIP3   OH250053   2.504   1.426  13.898 -0.4912  0.3067  0.5153
 9521TIP3    H150054   2.482   1.480  13.822  2.1604 -0.0563 -0.6118
 9521TIP3    H250055   2.575   1.370  13.868 -1.1473 -1.7372  2.5416
 9522TIP3   OH250056   3.828   1.603   0.299 -0.1386  0.9881 -0.1638
 9522TIP3    H150057   3.773   1.525   0.289  0.9365  0.2756 -0.7281
 9522TIP3    H250058   3.877   1.588   0.379  0.8468  0.5620 -0.8221
 9523TIP3   OH250059   2.152   6.125  13.127 -0.2836 -0.2822  0.1635
 9523TIP3    H150060   2.237   6.092  13.098  1.5718  2.9610  1.3788
 9523TIP3    H250061   2.140   6.206  13.077 -1.0330  1.0227  2.3236
 9524TIP3   OH250062   6.695   6.953   2.135  0.3147  0.2509  0.1496
 9524TIP3    H150063   6.758   7.025   2.130  0.6124 -0.1105 -1.6513
 9524TIP3    H250064   6.611   6.992   2.109  0.4419  0.0003 -0.6544
 9525TIP3   OH250065   0.607   2.676  12.768 -0.0150 -0.2519 -0.0225
 9525TIP3    H150066   0.572   2.739  12.705  0.0492 -1.0073 -0.8259
 9525TIP3    H250067   0.570   2.592  12.741  2.1744 -1.0376 -0.7327
 9526TIP3   OH250068   7.065   6.361   0.782  0.2290  0.0090  0.0069
 9526TIP3    H150069   6.971   6.373   0.797  0.0148 -0.5306 -0.8508
 9526TIP3    H250070   7.090   6.432   0.723  0.8033  1.3543  1.7919
 9527TIP3   OH250071   5.915   2.972  10.907 -0.7673  0.3113  0.2973
 9527TIP3    H150072   5.912   2.967  10.812  0.9903  0.2757  0.2147
 9527TIP3    H250073   5.858   3.046  10.930  1.1556  2.3104 -1.0121
 9528TIP3   OH250074   6.957   1.654   5.656  0.4472 -0.2211  0.5532
 9528TIP3    H150075   6.901   1.722   5.618 -0.7814  0.0998  2.7459
 9528TIP3    H250076   6.914   1.572   5.632  1.8665 -0.3180 -1.9976
 9529TIP3   OH250077   6.088   2.936  12.252 -0.6792  0.0492  0.6070
 9529TIP3    H150078   6.104   2.909  12.342 -1.0024  0.2788  0.7331
 9529TIP3    H250079   5.993   2.945  12.245 -0.7455 -0.9502 -0.0438
 9530TIP3   OH250080   5.615   5.334  11.726 -0.4305 -0.2765 -0.7375
 9530TIP3    H150081   5.563   5.373  11.656  0.1803 -0.3434 -1.2349
 9530TIP3    H250082   5.611   5.240  11.709 -0.0082 -0.2714 -0.8847
 9531TIP3   OH250083   1.660   2.025  10.498 -0.0499  0.2434 -0.0047
 9531TIP3    H150084   1.613   1.943  10.514 -0.2690  0.3121 -0.2979
 9531TIP3    H250085   1.596   2.094  10.518 -0.6575  0.3359 -2.0771
 9532TIP3   OH250086   4.400   1.235   0.681  0.2292 -0.2818  0.0189
 9532TIP3    H150087   4.493   1.228   0.663  0.4062  0.2286  0.7220
 9532TIP3    H250088   4.362   1.158   0.638  1.0233 -0.7368  0.1123
 9533TIP3   OH250089   2.215   4.852  11.151 -0.3384  0.4583 -0.0986
 9533TIP3    H150090   2.174   4.817  11.072  0.0000 -1.8455  0.6543
 9533TIP3    H250091   2.154   4.829  11.222  0.9910 -0.7794  0.7118
 9534TIP3   OH250092   7.122   5.003   3.875 -0.6259 -0.5118 -0.0954
 9534TIP3    H150093   7.179   5.044   3.810  0.0297 -0.5740  0.4418
 9534TIP3    H250094   7.091   4.923   3.832 -2.1528  0.6513 -1.2647
 9535TIP3   OH250095   2.955   6.904   0.224  0.7926  0.5057 -1.0016
 9535TIP3    H150096   2.902   6.872   0.152 -1.4387  1.3319  0.1769
 9535TIP3    H250097   2.981   6.826   0.272 -1.1061  0.1588 -0.4740
 9536TIP3   OH250098   3.868   7.099   1.071  0.3284 -0.4171 -0.2486
 9536TIP3    H150099   3.905   7.057   0.993  0.1489 -1.2905  0.1212
 9536TIP3    H250100   3.932   7.166   1.095  0.4070 -0.1738 -1.1167
 9537TIP3   OH250101   5.487   6.147  12.268  0.1520  0.2714  0.0586
 9537TIP3    H150102   5.529   6.230  12.244  0.8225  0.2321  1.0285
 9537TIP3    H250103   5.394   6.164  12.258  0.2378  1.3430  0.7915
 9538TIP3   OH250104   6.010   3.221  12.917 -0.3143  0.0635 -0.1730
 9538TIP3    H150105   5.960   3.172  12.983  0.2617 -0.3214 -0.0114
 9538TIP3    H250106   5.944   3.260  12.861 -0.9480  2.4463  2.0102
 9539TIP3   OH250107   1.403   2.820   0.189 -0.0134 -0.2007  0.0144
 9539TIP3    H150108   1.351   2.801   0.267  0.8940 -0.7617  0.4987
 9539TIP3    H250109   1.373   2.906   0.161 -0.5265 -0.0967  0.8400
 9540TIP3   OH250110   1.547   4.382   3.752  0.0189  0.8479 -0.4531
 9540TIP3    H150111   1.481   4.316   3.731 -0.8803  1.6745 -0.2863
 9540TIP3    H250112   1.534   4.451   3.687  1.1302  0.7509 -0.7986
 9541TIP3   OH250113   0.506   0.814  11.672  0.2994 -0.1772  0.0086
 9541TIP3    H150114   0.446   0.770  11.733 -0.9139  0.0198 -1.0007
 9541TIP3    H250115   0.487   0.907  11.683  1.4477  0.0036  0.6889
 9542TIP3   OH250116   3.739   4.453  12.666 -0.1194  0.3201 -0.2198
 9542TIP3    H150117   3.741   4.539  12.625  0.8556 -0.4692 -1.9440
 9542TIP3    H250118   3.661   4.411  12.631 -1.5323  1.0204  1.8841
 9543TIP3   OH250119   0.416   6.780  11.928 -0.3939 -0.0266 -0.0930
 9543TIP3    H150120   0.334   6.763  11.975  0.0803 -1.1504  0.3681
 9543TIP3    H250121   0.484   6.749  11.987  0.5845  3.1331  0.6195
 9544TIP3   OH250122   5.169   0.144  15.035 -0.2748  0.2516 -0.2357
 9544TIP3    H150123   5.210   0.228  15.013 -1.6193  1.0427  0.1535
 9544TIP3    H250124   5.216   0.080  14.983  0.4489  1.3145 -0.9358
 9545TIP3   OH250125   1.381   3.473   0.260 -0.8246  0.3972  0.0550
 9545TIP3    H150126   1.400   3.460   0.353  0.6924  0.7857 -0.1582
 9545TIP3    H250127   1.448   3.421   0.215 -0.3581  1.6722 -0.7915
 9546TIP3   OH250128   6.113   3.577   5.454  0.1443  0.4205 -0.1175
 9546TIP3    H150129   6.181   3.533   5.403  0.5770  0.5008  0.3764
 9546TIP3    H250130   6.077   3.643   5.395 -1.8167 -1.7686 -1.5431
 9547TIP3   OH250131   2.411   0.747  13.083 -0.2641 -0.2756  0.1391
 9547TIP3    H150132   2.381   0.745  13.174  1.8041 -0.2481  0.8750
 9547TIP3    H250133   2.351   0.808  13.039 -0.0959  1.2899  1.9514
 9548TIP3   OH250134   2.745   4.626  13.265 -0.0297  0.0741  0.5121
 9548TIP3    H150135   2.752   4.530  13.269 -1.1336 -0.0124  0.5459
 9548TIP3    H250136   2.833   4.657  13.287  0.6514 -0.9456 -0.6582
 9549TIP3   OH250137   6.635   3.755   5.488 -0.0238 -0.4154  0.2279
 9549TIP3    H150138   6.641   3.670   5.532 -0.5303 -0.4527  0.2349
 9549TIP3    H250139   6.657   3.737   5.397 -0.2754 -0.5832  0.1993
 9550TIP3   OH250140   7.135   6.757  14.943  0.0762 -0.6816 -0.3238
 9550TIP3    H150141   7.139   6.669  14.906 -0.0692 -0.2236 -1.4663
 9550TIP3    H250142   7.063   6.754  15.006 -0.8741 -1.0027 -1.4032
 9551TIP3   OH250143   2.178   1.921   3.722 -0.2511  0.1289  0.3618
 9551TIP3    H150144   2.101   1.940   3.667 -0.4703 -2.0899 -0.1918
 9551TIP3    H250145   2.252   1.953   3.671 -0.5322 -1.0727 -0.8542
 9552TIP3   OH250146   2.987   0.092   3.008  0.7057  0.4487  0.6718
 9552TIP3    H150147   3.003   0.185   3.025  1.7225  0.1786  1.2578
 9552TIP3    H250148   3.072   0.050   3.024  0.7383 -0.3488 -1.3712
 9553TIP3   OH250149   6.546   6.977  11.801 -0.7290  0.2931 -0.4911
 9553TIP3    H150150   6.624   7.015  11.842 -2.1463  1.7656  1.0336
 9553TIP3    H250151   6.534   6.893  11.846  0.0953 -0.0739 -0.9274
 9554TIP3   OH250152   5.478   6.974   1.553 -0.6295  0.1025  0.4590
 9554TIP3    H150153   5.429   6.978   1.470  1.4831  0.4743 -0.8429
 9554TIP3    H250154   5.544   6.907   1.538 -0.8802 -0.6089  2.2890
 9555TIP3   OH250155   4.617   0.480  13.511  0.2547 -0.6529 -0.0926
 9555TIP3    H150156   4.654   0.549  13.455 -1.5477  0.4331 -0.0014
 9555TIP3    H250157   4.651   0.499  13.598  0.7288 -0.6119 -0.2813
 9556TIP3   OH250158   0.024   0.649  13.949 -0.4815  0.0175  0.4930
 9556TIP3    H150159   0.119   0.659  13.943 -0.5092 -0.4660 -2.4073
 9556TIP3    H250160  -0.006   0.732  13.986  0.9557  0.8955 -0.2056
 9557TIP3   OH250161   3.154   2.599  12.790 -0.2450 -0.1614 -0.4325
 9557TIP3    H150162   3.239   2.556  12.781  0.4806  1.0915  0.2376
 9557TIP3    H250163   3.147   2.620  12.883 -1.5261 -0.6755 -0.3873
 9558TIP3   OH250164   6.607   4.661   1.079  0.2439 -0.5311  0.2978
 9558TIP3    H150165   6.572   4.585   1.033  0.0789 -0.9169  1.0415
 9558TIP3    H250166   6.535   4.724   1.080  0.5084 -0.1924 -0.6711
 9559TIP3   OH250167   0.253   3.029  14.180  0.4402  0.2136 -0.3094
 9559TIP3    H150168   0.253   3.112  14.132 -2.1446 -0.2794 -1.3701
 9559TIP3    H250169   0.309   3.044  14.255  0.2071  2.8684 -0.5759
 9560TIP3   OH250170   7.006   2.991   4.491 -0.2718  0.5497  0.0937
 9560TIP3    H150171   7.042   3.032   4.412  1.4784  0.1644  0.6379
 9560TIP3    H250172   6.956   3.060   4.533 -0.5923  0.9831 -0.9575
 9561TIP3   OH250173   3.213   3.542  10.322 -0.0430  0.1911  0.0030
 9561TIP3    H150174   3.149   3.603  10.286 -1.4583 -1.2306 -0.0004
 9561TIP3    H250175   3.238   3.580  10.406 -2.4644 -0.2002  0.9565
 9562TIP3   OH250176   5.517   5.821  12.638  0.7015  0.5232  0.6030
 9562TIP3    H150177   5.461   5.782  12.571  1.0747 -2.4036  1.8475
 9562TIP3    H250178   5.576   5.879  12.590 -0.3186  0.0518 -1.3185
 9563TIP3   OH250179   2.805   5.386   0.025  0.3914 -0.1824  0.6065
 9563TIP3    H150180   2.759   5.303   0.033  1.6610 -0.7563  2.5296
 9563TIP3    H250181   2.814   5.417   0.115 -1.3728  2.8261 -0.1049
 9564TIP3   OH250182   2.198   1.275  14.759  0.4783  0.5239  0.2793
 9564TIP3    H150183   2.105   1.273  14.781  0.3910 -0.0863 -0.1160
 9564TIP3    H250184   2.243   1.261  14.842  0.2584  2.0709  0.6865
 9565TIP3   OH250185   2.905   2.585  11.396  0.8437  0.1910  0.5456
 9565TIP3    H150186   2.825   2.549  11.436  0.2938 -0.3570 -0.9635
 9565TIP3    H250187   2.976   2.536  11.437  0.3409  0.0119  1.2264
 9566TIP3   OH250188   6.674   0.748  11.077 -0.7049 -0.7514  0.4291
 9566TIP3    H150189   6.767   0.768  11.074 -0.6812 -0.8722  0.3645
 9566TIP3    H250190   6.666   0.662  11.034 -0.7411 -1.1316  1.1814
 9567TIP3   OH250191   4.788   1.213  10.002  0.4936 -0.1032  0.5210
 9567TIP3    H150192   4.801   1.265   9.924  3.6271 -1.4674 -0.0074
 9567TIP3    H250193   4.728   1.144   9.975 -0.7419  1.0507  0.2055
 9568TIP3   OH250194   5.357   0.343  13.505 -0.5947 -0.3869  0.0459
 9568TIP3    H150195   5.433   0.392  13.537 -1.4682 -0.2400  2.0892
 9568TIP3    H250196   5.301   0.409  13.465 -2.0036  0.5803  3.2332
 9569TIP3   OH250197   2.714   4.760  13.748 -0.1546  0.0139 -0.1583
 9569TIP3    H150198   2.744   4.806  13.670  0.3971 -0.9740 -0.5477
 9569TIP3    H250199   2.770   4.682  13.753  0.1252  0.2745  1.4615
 9570TIP3   OH250200   1.707   3.309  13.679 -0.3293 -0.1666 -0.1406
 9570TIP3    H150201   1.621   3.339  13.649  0.5811 -0.6105 -3.6657
 9570TIP3    H250202   1.763   3.387  13.676 -0.1436 -0.2893  0.0877
 9571TIP3   OH250203   5.645   4.400   0.296  0.1236  0.2842  0.0907
 9571TIP3    H150204   5.707   4.471   0.279 -1.0548  2.0854  2.6675
 9571TIP3    H250205   5.698   4.321   0.294  1.6010  1.2184 -2.2994
 9572TIP3   OH250206   0.106   0.024  15.411  0.3880 -0.3324  0.0716
 9572TIP3    H150207   0.185   0.047  15.363 -0.1694  0.9802 -0.2721
 9572TIP3    H250208   0.060  -0.036  15.354 -0.2046  1.1151 -1.0448
 9573TIP3   OH250209   0.969   4.997  12.244  0.3951 -0.1224  0.5586
 9573TIP3    H150210   1.006   4.985  12.331 -0.8877  2.0605  1.4863
 9573TIP3    H250211   0.948   5.090  12.240 -0.5900 -0.3859 -1.6910
 9574TIP3   OH250212   1.182   5.186   0.090  0.3321  0.2292  0.0103
 9574TIP3    H150213   1.169   5.192   0.185  0.0992  1.3160 -0.0775
 9574TIP3    H250214   1.094   5.188   0.053  0.4645  0.9029 -0.2760
 9575TIP3   OH250215   6.174   5.813  14.633  0.4351 -0.5102  0.1239
 9575TIP3    H150216   6.172   5.878  14.562  1.0534  0.8203  1.2851
 9575TIP3    H250217   6.194   5.730  14.588 -1.4712 -0.1509 -1.5219
 9576TIP3   OH250218   5.757   1.135   3.944 -0.1889 -0.0473 -0.5524
 9576TIP3    H150219   5.744   1.144   4.039 -0.1024 -1.0692 -0.4358
 9576TIP3    H250220   5.812   1.057   3.935 -0.2390  0.0179 -1.4512
 9577TIP3   OH250221   5.975   4.808  14.249 -0.1951  0.0717  0.0408
 9577TIP3    H150222   6.040   4.852  14.194 -1.5687  0.8133 -1.0647
 9577TIP3    H250223   5.967   4.721  14.211  0.9733 -0.4389  0.9095
 9578TIP3   OH250224   0.851   5.829  11.917  0.7193 -0.3355 -0.2348
 9578TIP3    H150225   0.898   5.749  11.897 -0.8909 -0.9924 -1.5597
 9578TIP3    H250226   0.859   5.838  12.012  0.8035 -2.1419 -0.0394
 9579TIP3   OH250227   3.561   3.014  12.217  0.4979 -0.0816 -0.7431
 9579TIP3    H150228   3.589   2.925  12.197  1.1217 -0.1637  0.3806
 9579TIP3    H250229   3.635   3.069  12.191  0.8520 -0.0835  0.2093
 9580TIP3   OH250230   5.107   3.093  12.899  0.3641  0.5695  0.0594
 9580TIP3    H150231   5.017   3.121  12.914  0.9648  2.5747  0.2036
 9580TIP3    H250232   5.127   3.034  12.972  0.3208  3.0147  2.1705
 9581TIP3   OH250233   1.139   5.880   4.524  0.5403 -0.5767 -0.1784
 9581TIP3    H150234   1.061   5.838   4.561  0.6064  0.2476  0.9134
 9581TIP3    H250235   1.105   5.939   4.457  0.2846 -0.6966 -0.1551
 9582TIP3   OH250236   5.195   3.547   0.346  0.0735  0.0706  0.2512
 9582TIP3    H150237   5.107   3.567   0.315  0.7483 -1.5950 -3.1657
 9582TIP3    H250238   5.197   3.452   0.353  1.6423  0.0775  0.1626
 9583TIP3   OH250239   2.922   1.705   2.878  0.3644 -0.2535 -0.1124
 9583TIP3    H150240   2.853   1.654   2.920  1.2133 -0.6542  0.8410
 9583TIP3    H250241   2.909   1.691   2.784  0.0423 -1.5140  0.1021
 9584TIP3   OH250242   6.611   1.345   2.074 -0.3744 -0.1228  0.6676
 9584TIP3    H150243   6.647   1.348   2.162 -1.2944  0.3928  1.0406
 9584TIP3    H250244   6.518   1.324   2.086 -0.5223 -0.0080 -0.1667
 9585TIP3   OH250245   4.075   0.735  14.243 -0.3226 -1.0783 -0.3296
 9585TIP3    H150246   4.129   0.671  14.196  1.2097 -1.5772  1.9473
 9585TIP3    H250247   3.997   0.687  14.269  0.7665 -2.0738  1.2676
 9586TIP3   OH250248   1.826   0.022  14.978  0.5816  0.2409  0.1336
 9586TIP3    H150249   1.739   0.013  15.017  0.2820  0.4413 -0.4579
 9586TIP3    H250250   1.831  -0.049  14.914  0.9999  0.0050  0.4339
 9587TIP3   OH250251   0.490   3.901   4.491  0.1748 -0.1279  0.0151
 9587TIP3    H150252   0.544   3.970   4.453  0.5753 -0.1396  0.5428
 9587TIP3    H250253   0.551   3.850   4.544 -0.1531 -0.7862 -0.2378
 9588TIP3   OH250254   2.754   1.971   0.419 -0.3421  0.0530  0.7026
 9588TIP3    H150255   2.828   2.025   0.390 -0.9165  0.2359 -0.4798
 9588TIP3    H250256   2.762   1.891   0.367 -0.2697 -0.4445  1.4778
 9589TIP3   OH250257   6.541   5.766   5.075  0.5789  0.3265  0.1971
 9589TIP3    H150258   6.558   5.859   5.087  0.7155  0.3271  0.0071
 9589TIP3    H250259   6.613   5.735   5.019 -0.2976  0.4195 -1.0043
 9590TIP3   OH250260   4.617   1.879   2.181  0.0479  0.2565  0.6732
 9590TIP3    H150261   4.681   1.886   2.111 -0.6056  0.2586  0.0646
 9590TIP3    H250262   4.613   1.967   2.218  1.5562 -0.1026  1.7833
 9591TIP3   OH250263   1.141   4.121  14.863  0.0891  0.7079  0.4127
 9591TIP3    H150264   1.051   4.089  14.855 -0.1784  1.4014  0.5768
 9591TIP3    H250265   1.177   4.073  14.937  0.2688 -0.4944 -0.4298
 9592TIP3   OH250266   6.669   2.708   0.524 -0.0028  0.6876 -0.7323
 9592TIP3    H150267   6.653   2.635   0.583 -0.6202 -1.1523 -3.0349
 9592TIP3    H250268   6.725   2.672   0.455  0.8608  2.7846 -1.2260
 9593TIP3   OH250269   3.462   6.275   1.623  0.5191 -0.0494 -1.0768
 9593TIP3    H150270   3.450   6.365   1.653 -1.4326 -1.0699  1.5509
 9593TIP3    H250271   3.471   6.224   1.703  2.1403 -2.1901 -2.5099
 9594TIP3   OH250272   3.773   0.790  11.169 -0.0889 -1.3559 -0.4966
 9594TIP3    H150273   3.791   0.785  11.263  0.1242 -0.0550 -0.4520
 9594TIP3    H250274   3.788   0.701  11.137  1.2775 -1.4985  0.4577
 9595TIP3   OH250275   1.551   4.715   0.447  0.3140 -0.5837 -0.4330
 9595TIP3    H150276   1.481   4.738   0.508  1.4712  1.9723  0.0946
 9595TIP3    H250277   1.515   4.644   0.394 -4.0138  2.5440 -2.3593
 9596TIP3   OH250278   0.522   0.338  13.672  0.0306 -0.4542  0.0836
 9596TIP3    H150279   0.596   0.311  13.619 -0.8450 -1.1781 -0.8150
 9596TIP3    H250280   0.545   0.426  13.702  0.8614 -0.3030 -0.9231
 9597TIP3   OH250281   6.957   3.511  11.397  0.4724 -0.5579 -0.2166
 9597TIP3    H150282   6.902   3.515  11.475  1.4625 -0.0483  0.4591
 9597TIP3    H250283   7.035   3.464  11.425  1.2014  0.3649 -0.6790
 9598TIP3   OH250284   6.407   6.635  13.564 -0.1470 -0.6023  0.0167
 9598TIP3    H150285   6.498   6.664  13.573 -0.6959  0.8377  1.5179
 9598TIP3    H250286   6.392   6.579  13.640 -0.3534 -1.3433 -0.5597
 9599TIP3   OH250287   0.649   5.322  14.339 -0.5017 -0.1500 -0.2257
 9599TIP3    H150288   0.579   5.311  14.404  0.8738  1.0548  1.5786
 9599TIP3    H250289   0.653   5.417  14.326  1.1139 -0.1538  0.1157
 9600TIP3   OH250290   0.526   2.263   0.770 -0.1520  0.0646 -0.4280
 9600TIP3    H150291   0.600   2.238   0.825 -0.8457  0.4008  0.6767
 9600TIP3    H250292   0.564   2.271   0.682  1.8077  3.0535  0.5128
 9601TIP3   OH250293   2.885   2.741  14.126 -0.2186 -0.2610  0.4409
 9601TIP3    H150294   2.852   2.807  14.186  1.3788  0.7002  0.3274
 9601TIP3    H250295   2.918   2.670  14.182 -0.8451 -0.4314  0.6004
 9602TIP3   OH250296   2.048   4.651   2.494  0.7441 -1.3210 -0.2310
 9602TIP3    H150297   2.020   4.720   2.434 -0.6992 -1.9055 -0.2703
 9602TIP3    H250298   2.076   4.697   2.573  1.2355 -0.6225 -0.8028
 9603TIP3   OH250299   3.191   6.939  14.300 -0.0328 -0.0898  0.3287
 9603TIP3    H150300   3.117   6.882  14.321  0.5617 -0.3985  1.6762
 9603TIP3    H250301   3.264   6.879  14.289 -0.2712  0.0048 -2.9426
 9604TIP3   OH250302   0.709   5.497   1.483 -0.2884  0.6807 -0.0714
 9604TIP3    H150303   0.750   5.510   1.398 -0.7856 -0.7529 -0.5637
 9604TIP3    H250304   0.721   5.580   1.528  0.5393  1.2636 -1.2964
 9605TIP3   OH250305   3.813   4.003  13.895  0.4151  0.1990 -0.6148
 9605TIP3    H150306   3.794   3.916  13.932 -0.6773  0.1458 -1.2583
 9605TIP3    H250307   3.848   4.053  13.969 -1.0238 -0.1221  0.3209
 9606TIP3   OH250308   0.197   2.578  10.162  0.0224 -0.4950  0.2917
 9606TIP3    H150309   0.274   2.564  10.217  0.3336  1.1559  0.3371
 9606TIP3    H250310   0.205   2.513  10.092  0.6952 -1.2788  1.0703
 9607TIP3   OH250311   5.938   1.748   9.955 -0.3364  0.2551  0.1437
 9607TIP3    H150312   5.924   1.755  10.050  0.5955 -2.4993  0.5900
 9607TIP3    H250313   6.017   1.799   9.938  0.7324 -0.9314  1.2992
 9608TIP3   OH250314   5.213   6.978   9.578 -0.6351  0.4144 -0.0762
 9608TIP3    H150315   5.302   7.013   9.578 -0.3989 -0.1348 -1.1507
 9608TIP3    H250316   5.204   6.936   9.664  0.2035  0.3200 -0.0216
 9609TIP3   OH250317   3.818   6.056  13.712  0.5801 -0.2421  0.3306
 9609TIP3    H150318   3.864   6.025  13.790 -0.9801  0.2920  1.5138
 9609TIP3    H250319   3.802   6.148  13.729 -0.7474 -0.3731 -0.1081
 9610TIP3   OH250320   5.320   2.068  13.425  0.0941 -0.2425 -0.6686
 9610TIP3    H150321   5.285   2.156  13.436  1.2120  0.4069 -1.9525
 9610TIP3    H250322   5.362   2.048  13.509 -1.1466 -0.0330  0.0194
 9611TIP3   OH250323   3.172   6.009  15.266  0.3848  0.3353  0.0573
 9611TIP3    H150324   3.089   6.036  15.227  0.7546 -1.0752 -1.8619
 9611TIP3    H250325   3.147   5.958  15.343 -0.6394 -1.1090 -1.1638
 9612TIP3   OH250326   0.699   2.176  11.664  0.4471 -0.0244  0.1058
 9612TIP3    H150327   0.786   2.182  11.703 -0.3784 -2.1802  2.6054
 9612TIP3    H250328   0.697   2.089  11.623 -0.2007  0.4475 -0.9114
 9613TIP3   OH250329   2.821   5.494   5.046 -0.0439  0.0092  0.1831
 9613TIP3    H150330   2.892   5.506   4.983 -0.6266 -0.6853 -0.6276
 9613TIP3    H250331   2.784   5.582   5.057  1.5176  0.5633  1.3481
 9614TIP3   OH250332   1.797   6.157  11.888  0.4663  0.1660 -0.2925
 9614TIP3    H150333   1.702   6.170  11.879  0.4208 -0.4502 -0.7057
 9614TIP3    H250334   1.807   6.115  11.973  0.3910  0.4236 -0.1536
 9615TIP3   OH250335   2.275   7.119   3.629  0.2192  0.0751  0.6655
 9615TIP3    H150336   2.278   7.099   3.723 -1.4905  1.8216  1.1793
 9615TIP3    H250337   2.250   7.212   3.626 -2.1221 -0.5040 -1.4899
 9616TIP3   OH250338   5.166   1.500   3.364 -0.4458 -0.6254  0.0717
 9616TIP3    H150339   5.256   1.526   3.380 -0.9252 -0.7092  3.6911
 9616TIP3    H250340   5.117   1.582   3.360 -0.5486 -0.6458  0.8241
 9617TIP3   OH250341   0.429   0.547   0.364  0.2146  0.1037  0.0671
 9617TIP3    H150342   0.353   0.605   0.358 -0.1287 -0.3872 -0.3690
 9617TIP3    H250343   0.410   0.492   0.440  0.1200 -0.0374 -0.0584
 9618TIP3   OH250344   2.197   0.552  10.492  0.2647  0.9123 -0.2625
 9618TIP3    H150345   2.190   0.514  10.580 -0.4585 -2.9176 -1.7966
 9618TIP3    H250346   2.109   0.545  10.456  1.3755 -2.0328 -2.8165
 9619TIP3   OH250347   0.109   4.385   9.742 -0.0918 -0.2320  0.3755
 9619TIP3    H150348   0.069   4.432   9.669 -0.4016 -1.5673 -0.3369
 9619TIP3    H250349   0.044   4.320   9.768  0.1973 -0.0654  1.5546
 9620TIP3   OH250350   0.882   4.403  14.233  0.2971  0.2462 -0.7857
 9620TIP3    H150351   0.826   4.431  14.160  2.4644 -0.2088 -2.7701
 9620TIP3    H250352   0.833   4.334  14.276 -0.6104 -0.2893 -2.5883
 9621TIP3   OH250353   1.182   3.144  14.447  0.0974 -0.4395 -0.1632
 9621TIP3    H150354   1.254   3.137  14.385  0.8574 -1.6701  0.8104
 9621TIP3    H250355   1.105   3.115  14.398  0.4196 -0.0056 -0.9405
 9622TIP3   OH250356   4.470   5.301   5.190 -0.0886 -0.0140  0.0667
 9622TIP3    H150357   4.471   5.263   5.102  0.0657  2.4372 -1.0764
 9622TIP3    H250358   4.503   5.232   5.247  1.3664 -1.1537 -2.0431
 9623TIP3   OH250359   1.000   0.072  10.228  0.0720 -0.1798  0.1483
 9623TIP3    H150360   0.922   0.042  10.181 -0.5895 -1.0479  1.7078
 9623TIP3    H250361   1.065   0.005  10.211 -0.8442 -1.6755  2.1541
 9624TIP3   OH250362   4.553   6.216  11.258  0.1528  0.8314 -0.2255
 9624TIP3    H150363   4.541   6.285  11.193  1.0349  0.9336 -0.2803
 9624TIP3    H250364   4.522   6.254  11.340 -1.3566  0.5672 -0.6307
 9625TIP3   OH250365   3.211   2.146  10.541 -0.1650  0.1295  0.0510
 9625TIP3    H150366   3.304   2.151  10.559  0.1202 -0.3633 -1.1818
 9625TIP3    H250367   3.193   2.053  10.530 -1.0206  0.1284  1.3004
 9626TIP3   OH250368   0.118   1.349  12.131 -0.5037 -0.5137 -0.2328
 9626TIP3    H150369   0.033   1.358  12.088 -0.8119  0.2154  0.4999
 9626TIP3    H250370   0.102   1.288  12.203 -0.6671  0.3802  0.5142
 9627TIP3   OH250371   4.672   2.431  14.474  0.4115 -0.3711  0.4437
 9627TIP3    H150372   4.618   2.392  14.543 -1.4159 -0.5864 -1.0431
 9627TIP3    H250373   4.720   2.502  14.519 -0.4829 -0.7008  1.9866
 9628TIP3   OH250374   4.770   2.447  13.819 -0.7291 -0.1079 -0.1196
 9628TIP3    H150375   4.824   2.454  13.897  0.9989  1.3695 -1.3456
 9628TIP3    H250376   4.807   2.511  13.758 -2.7463 -0.3393 -1.7284
 9629TIP3   OH250377   5.904   6.866   3.960 -0.1948  0.2532 -0.6427
 9629TIP3    H150378   5.858   6.782   3.961 -1.3394  0.6550  3.8488
 9629TIP3    H250379   5.996   6.843   3.950 -0.6497 -1.3272 -1.5004
 9630TIP3   OH250380   3.817   5.312  15.161 -0.2668  0.0480  0.0522
 9630TIP3    H150381   3.722   5.305  15.150 -0.3920  0.4312  0.8574
 9630TIP3    H250382   3.830   5.396  15.204  0.4279 -0.0886  0.1166
 9631TIP3   OH250383   4.750   5.874  12.822  0.0802  0.2231 -0.3617
 9631TIP3    H150384   4.813   5.891  12.892 -0.5260  0.2475  0.1792
 9631TIP3    H250385   4.775   5.936  12.753 -0.4205  1.4603  0.5235
 9632TIP3   OH250386   3.808   6.004  14.243  0.0607 -0.0266  0.3583
 9632TIP3    H150387   3.807   5.910  14.264  0.1923  0.0081  0.5207
 9632TIP3    H250388   3.893   6.018  14.201 -0.2969 -0.1424 -0.4253
 9633TIP3   OH250389   6.713   1.990  10.346 -0.1239  0.3750 -0.5264
 9633TIP3    H150390   6.722   2.077  10.307 -2.0027 -0.1371 -2.2797
 9633TIP3    H250391   6.768   1.933  10.291 -0.3854  0.1421 -0.5484
 9634TIP3   OH250392   1.073   0.600   4.656  0.2437 -0.0920 -0.5326
 9634TIP3    H150393   1.108   0.688   4.645  0.6408 -0.1694  0.0621
 9634TIP3    H250394   0.980   0.613   4.673 -0.0178  0.1207 -2.0392
 9635TIP3   OH250395   2.194   0.529  11.883 -0.1807  0.6966 -0.7054
 9635TIP3    H150396   2.186   0.624  11.869  0.3606  1.2026  1.8936
 9635TIP3    H250397   2.284   0.517  11.912 -0.8495 -0.2936  1.0606
 9636TIP3   OH250398   5.801   1.252   4.440 -0.1006 -0.4530 -0.2362
 9636TIP3    H150399   5.835   1.330   4.483  0.6772 -0.6598 -0.4585
 9636TIP3    H250400   5.741   1.213   4.505 -0.4246  0.2631 -0.0919
 9637TIP3   OH250401   5.709   1.614  11.365 -0.6864  0.3477 -0.0377
 9637TIP3    H150402   5.648   1.650  11.430 -0.7550 -0.1803  0.1979
 9637TIP3    H250403   5.652   1.584  11.294 -0.6208  0.8009 -0.2861
 9638TIP3   OH250404   6.639   1.932  15.038  0.1074  0.7282  0.8259
 9638TIP3    H150405   6.643   2.025  15.018  0.6307  1.0154  2.1578
 9638TIP3    H250406   6.549   1.917  15.066 -0.4980  0.4199 -1.1163
 9639TIP3   OH250407   5.491   6.963   3.852  0.3418  0.2451 -0.2508
 9639TIP3    H150408   5.427   7.009   3.796  2.3570 -0.4155 -3.3477
 9639TIP3    H250409   5.452   6.877   3.867 -0.3309  0.5102 -0.4429
 9640TIP3   OH250410   6.067   0.689  11.673  0.0246 -0.3251 -0.3631
 9640TIP3    H150411   6.014   0.727  11.604 -1.4722 -0.7637  0.5037
 9640TIP3    H250412   6.067   0.595  11.655  0.8379 -0.2895 -0.5708
 9641TIP3   OH250413   2.650   4.559   2.465 -0.2773 -0.1847 -0.2579
 9641TIP3    H150414   2.704   4.492   2.507 -0.9864  0.6934  2.2241
 9641TIP3    H250415   2.635   4.526   2.377  0.6451 -2.5590  0.3994
 9642TIP3   OH250416   1.530   4.998  13.638  0.1538  0.5372  0.3153
 9642TIP3    H150417   1.623   4.999  13.664  0.1136  1.2234  0.4589
 9642TIP3    H250418   1.506   5.091  13.631 -0.9783  0.4123  1.9589
 9643TIP3   OH250419   3.226   5.658  11.839 -0.0655 -0.0785 -0.3756
 9643TIP3    H150420   3.241   5.746  11.874  2.4897 -0.0728 -1.2740
 9643TIP3    H250421   3.143   5.665  11.793  1.0418  2.5558 -2.2426
 9644TIP3   OH250422   2.313   5.226   4.924  0.0869  0.5340 -0.1531
 9644TIP3    H150423   2.286   5.237   4.833  0.2189 -0.1591 -0.2855
 9644TIP3    H250424   2.408   5.234   4.922  0.3071 -1.5165 -0.4328
 9645TIP3   OH250425   5.880   5.903   0.779  0.1388  0.0392 -0.4178
 9645TIP3    H150426   5.837   5.822   0.753 -0.3574  0.8089 -2.0705
 9645TIP3    H250427   5.895   5.892   0.873 -1.6677 -1.1502 -0.2170
 9646TIP3   OH250428   0.962   4.444  15.103 -0.7455  0.8428  0.1142
 9646TIP3    H150429   1.046   4.455  15.147 -1.1447  1.9375  0.6531
 9646TIP3    H250430   0.984   4.407  15.018  0.0560 -1.2637  1.1765
 9647TIP3   OH250431   2.827   3.091   4.670  0.8183 -0.3519 -0.2745
 9647TIP3    H150432   2.809   3.071   4.578 -0.1055  0.3112 -0.2481
 9647TIP3    H250433   2.869   3.012   4.703  2.7906  0.0185 -1.6944
 9648TIP3   OH250434   0.144   5.202   2.475  0.3992  0.2856 -0.0446
 9648TIP3    H150435   0.058   5.205   2.518  0.1986  0.2765 -0.4475
 9648TIP3    H250436   0.187   5.126   2.513 -0.6565 -1.1029 -1.5255
 9649TIP3   OH250437   4.325   5.382   4.083  0.7299  0.1629 -0.2516
 9649TIP3    H150438   4.310   5.346   3.996 -0.7574  0.0719  0.0173
 9649TIP3    H250439   4.365   5.468   4.067  1.7608 -0.4338 -0.9705
 9650TIP3   OH250440   2.421   3.692   4.988 -0.0656  0.4785 -0.4585
 9650TIP3    H150441   2.395   3.617   5.040 -0.0756 -0.1519 -1.3463
 9650TIP3    H250442   2.346   3.710   4.931  0.8035 -0.3894 -1.9564
 9651TIP3   OH250443   5.435   0.276   5.496  0.0690  0.6401 -0.0917
 9651TIP3    H150444   5.504   0.337   5.470 -0.1995  1.5709  1.2609
 9651TIP3    H250445   5.462   0.243   5.582 -0.3224 -0.3300 -0.3285
 9652TIP3   OH250446   3.078   5.913   5.122 -0.4773  0.2036  0.6780
 9652TIP3    H150447   3.088   5.856   5.045 -0.6526 -0.9550  1.4759
 9652TIP3    H250448   3.154   5.970   5.120 -0.4685  0.1690 -0.3449
 9653TIP3   OH250449   6.636   3.095  12.141  0.4188 -0.3004 -0.0163
 9653TIP3    H150450   6.598   3.150  12.209  0.1901  1.2355 -1.3072
 9653TIP3    H250451   6.720   3.137  12.121  1.6149 -2.1135  0.9370
 9654TIP3   OH250452   0.919   1.913  10.861 -0.0675  0.4896 -0.0215
 9654TIP3    H150453   0.942   1.834  10.909  0.1595  0.0218 -0.8660
 9654TIP3    H250454   0.932   1.889  10.769  0.2066  1.5779 -0.2760
 9655TIP3   OH250455   5.806   5.799  11.389 -0.5069  0.2392 -0.5316
 9655TIP3    H150456   5.798   5.818  11.483 -0.6306  0.9358 -0.6810
 9655TIP3    H250457   5.900   5.790  11.375 -0.2595  2.6465 -0.8058
 9656TIP3   OH250458   6.508   0.205  10.894  0.3283 -0.2284 -0.4448
 9656TIP3    H150459   6.506   0.185  10.988  0.2848 -0.3153 -0.4642
 9656TIP3    H250460   6.457   0.135  10.853  0.3028 -0.1615 -0.5281
 9657TIP3   OH250461   6.162   4.644   9.712  0.1884  0.5902  0.0849
 9657TIP3    H150462   6.173   4.589   9.789  1.6972 -0.5782 -0.9094
 9657TIP3    H250463   6.242   4.696   9.708 -0.6311  1.8934  0.2407
 9658TIP3   OH250464   5.084   6.675  15.482 -0.3438  0.5752 -0.2351
 9658TIP3    H150465   5.066   6.588  15.447  0.7769  0.8818 -1.6624
 9658TIP3    H250466   5.176   6.692  15.459 -0.4048  1.9598  0.4136
 9659TIP3   OH250467   5.825   1.881   2.446 -0.0149  0.2706  0.3485
 9659TIP3    H150468   5.750   1.867   2.504 -0.4677 -2.5511 -0.7403
 9659TIP3    H250469   5.797   1.952   2.388 -1.2549  0.2355  0.8743
 9660TIP3   OH250470   5.093   5.352  12.022  0.9915  0.0558 -0.6834
 9660TIP3    H150471   5.183   5.361  11.991  1.4355 -0.4566  0.3940
 9660TIP3    H250472   5.084   5.419  12.090 -0.0387  1.3231 -1.9946
 9661TIP3   OH250473   5.781   1.344  14.129 -0.2457 -0.8506  0.1838
 9661TIP3    H150474   5.731   1.263  14.121 -1.7484  0.0545 -0.0268
 9661TIP3    H250475   5.761   1.375  14.218  0.7585 -0.9573  0.4675
 9662TIP3   OH250476   5.970   0.545  10.221  0.8244  0.2677 -0.3444
 9662TIP3    H150477   6.009   0.548  10.308 -1.6465  1.9857  0.8161
 9662TIP3    H250478   5.975   0.453  10.195 -0.0816 -0.6637  2.4755
 9663TIP3   OH250479   1.795   0.016  12.471  0.3337  0.5787  0.3316
 9663TIP3    H150480   1.860   0.084  12.453  1.6614 -0.3975  1.1984
 9663TIP3    H250481   1.826  -0.025  12.552 -1.1494 -0.2037  0.5298
 9664TIP3   OH250482   1.345   7.150   0.625  0.1359 -0.4931  0.1074
 9664TIP3    H150483   1.305   7.074   0.668 -1.0104  0.0606  0.0754
 9664TIP3    H250484   1.294   7.162   0.545 -1.7278  2.0543  1.5078
 9665TIP3   OH250485   6.859   0.741  12.305  0.2578  0.1896  0.4570
 9665TIP3    H150486   6.850   0.830  12.271 -0.3543  0.1799  0.5854
 9665TIP3    H250487   6.810   0.741  12.387 -1.5124 -0.8210 -0.5492
 9666TIP3   OH250488   2.269   6.078   3.617 -0.8206 -0.6509  0.5252
 9666TIP3    H150489   2.263   5.990   3.582  1.4589 -0.5456 -0.2581
 9666TIP3    H250490   2.322   6.069   3.696  0.5448  0.1625 -0.2694
 9667TIP3   OH250491   1.430   6.717  13.561  0.1678 -0.1027 -0.8153
 9667TIP3    H150492   1.450   6.631  13.596 -0.3249  0.7156  1.6260
 9667TIP3    H250493   1.403   6.700  13.470  1.3605 -2.3288 -0.8220
 9668TIP3   OH250494   2.959   0.853  11.127  0.0432 -0.2471  0.0052
 9668TIP3    H150495   2.951   0.768  11.171 -0.6373 -0.4566 -0.5073
 9668TIP3    H250496   2.996   0.911  11.194  0.9035 -1.0387  0.2296
 9669TIP3   OH250497   2.102   0.455  13.483  0.2109  0.2279 -0.2473
 9669TIP3    H150498   2.030   0.512  13.455  0.2472 -0.1562 -1.1604
 9669TIP3    H250499   2.074   0.367  13.459 -0.3125 -0.3250  2.0993
 9670TIP3   OH250500   3.360   1.131   0.360  0.2631 -0.2873 -0.1946
 9670TIP3    H150501   3.444   1.113   0.402  0.8836  0.9287 -0.8583
 9670TIP3    H250502   3.299   1.070   0.402  0.9421  0.4823  2.1168
 9671TIP3   OH250503   3.607   2.367   4.190 -0.0211 -0.0595  0.4211
 9671TIP3    H150504   3.554   2.302   4.236 -0.1771  0.2712  0.7169
 9671TIP3    H250505   3.570   2.451   4.218 -0.2530  0.1476 -0.4659
 9672TIP3   OH250506   2.054   4.781   5.757 -0.1028  0.1584 -0.2761
 9672TIP3    H150507   1.967   4.770   5.795  0.4490  1.1770  1.4304
 9672TIP3    H250508   2.054   4.728   5.678 -2.2319  0.0552 -0.2438
 9673TIP3   OH250509   4.456   3.227  10.994 -0.1429  0.1402  0.3509
 9673TIP3    H150510   4.382   3.197  11.046 -0.5978 -1.3370 -1.0536
 9673TIP3    H250511   4.416   3.265  10.916  0.5520 -0.9115 -0.5434
 9674TIP3   OH250512   2.412   4.495  12.477 -0.3106 -0.7738  0.5409
 9674TIP3    H150513   2.356   4.463  12.406 -1.6040  0.4472  0.9716
 9674TIP3    H250514   2.498   4.504  12.437 -1.4000  1.8647 -1.5203
 9675TIP3   OH250515   0.589   3.920  12.486 -0.1513  0.0284  0.0558
 9675TIP3    H150516   0.668   3.867  12.475 -0.2326 -0.0319 -0.2454
 9675TIP3    H250517   0.555   3.894  12.572 -0.8839 -1.3462 -0.6121
 9676TIP3   OH250518   3.684   6.682  14.435 -0.5118 -0.0163 -0.4587
 9676TIP3    H150519   3.715   6.597  14.404  2.1993 -0.2408  2.3284
 9676TIP3    H250520   3.707   6.743  14.366  0.6517 -1.1102 -1.0798
 9677TIP3   OH250521   1.888   3.537   0.299  0.4574  0.0972 -0.1537
 9677TIP3    H150522   1.959   3.519   0.237  0.4215 -1.5136  0.2275
 9677TIP3    H250523   1.854   3.623   0.272  0.5037 -0.4905 -2.3022
 9678TIP3   OH250524   4.266   3.035  14.898 -0.2218  0.4493  0.5417
 9678TIP3    H150525   4.294   3.030  14.806  0.0147  0.3033  0.6222
 9678TIP3    H250526   4.256   2.943  14.925  1.3910  0.4386  1.1803
 9679TIP3   OH250527   1.679   0.472   1.009 -0.5215  0.4729 -0.1913
 9679TIP3    H150528   1.699   0.411   1.080  1.6554 -0.2314 -1.3220
 9679TIP3    H250529   1.613   0.531   1.047 -1.6742 -1.6617  1.4028
 9680TIP3   OH250530   0.059   0.478  12.323 -0.1497 -0.3409  0.6867
 9680TIP3    H150531   0.073   0.552  12.382  0.5880 -1.3892  1.8621
 9680TIP3    H250532   0.137   0.424  12.332 -0.2834 -0.8322 -0.8237
 9681TIP3   OH250533   4.396   1.386  14.366 -0.8275 -0.3944  0.5193
 9681TIP3    H150534   4.471   1.431  14.406  0.2829 -0.7682 -1.0546
 9681TIP3    H250535   4.330   1.455  14.357 -0.7771 -0.0918  2.0745
 9682TIP3   OH250536   7.139   4.517  10.923 -0.1649 -0.2807  0.0503
 9682TIP3    H150537   7.072   4.458  10.889 -0.6251  0.1935  0.1279
 9682TIP3    H250538   7.185   4.466  10.990 -0.7974 -0.4344  0.3744
 9683TIP3   OH250539   4.925   6.320  13.197  0.1648 -0.5064  0.9144
 9683TIP3    H150540   4.932   6.325  13.101  1.7030 -1.9122  0.9236
 9683TIP3    H250541   4.852   6.260  13.213 -0.6414  0.3751  0.6617
 9684TIP3   OH250542   4.432   1.569   9.489  0.4703 -0.2005 -0.0741
 9684TIP3    H150543   4.518   1.583   9.530  0.8487 -1.9213 -0.2289
 9684TIP3    H250544   4.437   1.617   9.406  1.1064  0.0888  0.1250
 9685TIP3   OH250545   5.863   2.201  10.609  0.1022  0.0492 -0.0927
 9685TIP3    H150546   5.852   2.222  10.517 -1.4952 -0.9635 -0.1733
 9685TIP3    H250547   5.799   2.132  10.626 -0.2287  0.7886  1.9774
 9686TIP3   OH250548   1.638   2.067   5.113 -0.1702 -0.0823  0.0334
 9686TIP3    H150549   1.602   2.149   5.079 -0.1561  0.2273  0.7340
 9686TIP3    H250550   1.709   2.095   5.171 -0.5159 -0.5569  0.6977
 9687TIP3   OH250551   4.888   6.525   5.496  0.0911 -0.3268  0.4136
 9687TIP3    H150552   4.811   6.579   5.511  0.0855  0.3026 -1.6391
 9687TIP3    H250553   4.959   6.571   5.540 -0.1557  0.7130 -0.2436
 9688TIP3   OH250554   1.530   1.466  14.074  0.3677  0.6636  0.9486
 9688TIP3    H150555   1.472   1.436  14.144 -1.6206 -0.5375 -1.0868
 9688TIP3    H250556   1.612   1.419  14.089  0.0786  0.6092  2.5524
 9689TIP3   OH250557   5.959   5.022   5.234  0.1487  0.0747  0.1521
 9689TIP3    H150558   5.894   4.986   5.174 -0.9155  0.3283  1.1107
 9689TIP3    H250559   5.994   5.099   5.189  0.0956 -0.3090 -0.5525
 9690TIP3   OH250560   5.693   3.849  12.895 -0.1835 -0.4286  0.5540
 9690TIP3    H150561   5.765   3.912  12.894 -1.0307  0.5524  0.6068
 9690TIP3    H250562   5.731   3.770  12.934  0.8152  0.1255  0.7320
 9691TIP3   OH250563   1.934   6.007  13.031  0.4804 -0.7464  0.2966
 9691TIP3    H150564   1.891   6.088  13.003 -0.7716 -1.2486  0.6929
 9691TIP3    H250565   2.021   6.035  13.060  0.1197  0.4358  0.3050
 9692TIP3   OH250566   4.933   6.522   1.807 -0.2519  0.2971  0.1142
 9692TIP3    H150567   4.901   6.537   1.718 -0.9227 -2.4482 -0.2062
 9692TIP3    H250568   4.856   6.494   1.856  0.6789 -1.5469  0.6298
 9693TIP3   OH250569   6.052   1.941   0.903 -0.0679  0.2567 -0.1935
 9693TIP3    H150570   6.146   1.948   0.893 -0.0182 -0.5720 -0.3743
 9693TIP3    H250571   6.039   1.860   0.952 -0.6991  0.2239 -0.4009
 9694TIP3   OH250572   6.280   5.670  14.872 -0.1464 -0.0563 -0.6332
 9694TIP3    H150573   6.221   5.699  14.802  0.2627  0.2489 -0.8631
 9694TIP3    H250574   6.319   5.589  14.839 -0.5097 -0.3076 -0.4412
 9695TIP3   OH250575   1.211   0.641   1.077  0.4066 -0.0477  0.1677
 9695TIP3    H150576   1.153   0.691   1.134 -0.8209 -0.4685 -0.6767
 9695TIP3    H250577   1.254   0.579   1.135  1.7056  1.7297  1.1728
 9696TIP3   OH250578   0.875   1.325  11.592 -0.6204  0.4629 -0.5280
 9696TIP3    H150579   0.801   1.345  11.650  0.0383 -0.0898  0.5270
 9696TIP3    H250580   0.835   1.316  11.506 -2.0393 -1.2887  0.2417
 9697TIP3   OH250581   0.133   3.439   1.650  0.4759 -0.4057  0.0282
 9697TIP3    H150582   0.152   3.498   1.723 -1.3537 -0.2020  0.3919
 9697TIP3    H250583   0.201   3.372   1.655  1.4129  0.5564  0.8247
 9698TIP3   OH250584   6.679   2.260  10.215  0.2033  0.7244 -0.1596
 9698TIP3    H150585   6.600   2.265  10.268  0.4544  1.8434  0.1299
 9698TIP3    H250586   6.679   2.340  10.162  0.3620  0.0126 -1.2937
 9699TIP3   OH250587   6.685   4.399  13.538  0.1416 -0.2849 -0.7350
 9699TIP3    H150588   6.666   4.314  13.499  1.2822 -0.3247 -1.2289
 9699TIP3    H250589   6.606   4.451  13.520 -0.5346 -1.1949 -0.4990
 9700TIP3   OH250590   1.161   5.277  12.364  0.0987  0.2501 -0.1647
 9700TIP3    H150591   1.151   5.196  12.415 -4.5806  1.0342  0.6434
 9700TIP3    H250592   1.076   5.288  12.320  0.7315  4.3564 -0.7654
 9701TIP3   OH250593   6.388   2.855  13.343  0.1165 -0.3761  0.1426
 9701TIP3    H150594   6.333   2.776  13.340  1.4884 -1.3915  0.7475
 9701TIP3    H250595   6.370   2.894  13.428 -0.4844 -0.0923 -0.1124
 9702TIP3   OH250596   3.059   5.329   5.497  1.0356 -0.4345  0.2308
 9702TIP3    H150597   3.134   5.352   5.443  0.7689 -0.1753 -0.0318
 9702TIP3    H250598   2.984   5.334   5.438  0.3765  2.3308  1.1603
 9703TIP3   OH250599   0.214   3.772  11.578 -0.0779 -0.1379  0.5400
 9703TIP3    H150600   0.175   3.686  11.590  0.5638 -0.4910  0.1587
 9703TIP3    H250601   0.301   3.765  11.617 -0.8544  1.0557  2.6629
 9704TIP3   OH250602   7.010   2.423   4.051 -0.3397  0.2017  0.0798
 9704TIP3    H150603   6.995   2.497   4.109 -3.1074 -0.3381  0.1906
 9704TIP3    H250604   7.056   2.359   4.104  0.2680  1.0486  0.5916
 9705TIP3   OH250605   2.682   5.450   1.828  0.3999  0.2534  0.0603
 9705TIP3    H150606   2.775   5.473   1.826  0.1146  1.5579  1.2747
 9705TIP3    H250607   2.681   5.359   1.860  1.2750 -0.0669 -0.7530
 9706TIP3   OH250608   6.228   5.899   2.084 -0.1391 -0.1003 -0.4559
 9706TIP3    H150609   6.166   5.964   2.052 -1.4352  0.4728  2.7792
 9706TIP3    H250610   6.312   5.946   2.087 -0.9534  1.3853  1.3415
 9707TIP3   OH250611   2.793   2.072  12.336 -0.4592  0.5539 -0.0545
 9707TIP3    H150612   2.847   2.148  12.314 -0.2152 -0.3559 -2.9080
 9707TIP3    H250613   2.705   2.096  12.308 -0.4501 -0.0789 -0.6344
 9708TIP3   OH250614   1.740   2.318   0.941 -0.4137  0.3085  0.9380
 9708TIP3    H150615   1.780   2.400   0.910 -0.5698  0.6601  1.6493
 9708TIP3    H250616   1.716   2.272   0.861 -0.0424  0.8219  0.5223
 9709TIP3   OH250617   6.043   4.116   3.849  0.1011  0.4740 -0.1195
 9709TIP3    H150618   6.063   4.023   3.842  2.4566  0.9308 -0.2028
 9709TIP3    H250619   6.035   4.132   3.943  0.6508  0.3499 -0.0483
 9710TIP3   OH250620   5.206   2.800  13.448 -0.2384  0.6044 -0.4949
 9710TIP3    H150621   5.217   2.896  13.447  0.3191  0.5631 -2.2283
 9710TIP3    H250622   5.114   2.786  13.428 -0.3951  0.7739  0.0868
 9711TIP3   OH250623   3.804   3.878   4.984  0.2402 -0.2519 -0.1035
 9711TIP3    H150624   3.737   3.824   5.026 -1.9992  1.3685 -1.3522
 9711TIP3    H250625   3.761   3.963   4.972  2.0864  0.4602 -2.2031
 9712TIP3   OH250626   3.445   2.013   9.853  0.1916  0.0709 -0.4600
 9712TIP3    H150627   3.514   2.028   9.790  0.2862  0.7422 -0.2002
 9712TIP3    H250628   3.445   2.090   9.909  0.8877 -0.9997  1.0994
 9713TIP3   OH250629   2.655   4.006   3.876  0.0794 -0.1094 -0.1317
 9713TIP3    H150630   2.733   3.950   3.881 -1.1225 -1.8618  0.0132
 9713TIP3    H250631   2.585   3.951   3.911 -1.6110  0.6771 -2.1235
 9714TIP3   OH250632   5.825   0.727   1.699  0.5060  0.1035 -0.0286
 9714TIP3    H150633   5.797   0.804   1.749 -0.7515 -0.0590 -0.4644
 9714TIP3    H250634   5.893   0.761   1.640  0.7816  0.6402  0.5802
 9715TIP3   OH250635   3.524   4.341  13.252  0.0055 -0.3602 -0.2469
 9715TIP3    H150636   3.575   4.318  13.329  0.0931  2.4028  0.6291
 9715TIP3    H250637   3.571   4.414  13.212 -1.6334  0.2678 -1.1697
 9716TIP3   OH250638   2.187   3.474  10.237 -0.4672 -0.2665  0.3427
 9716TIP3    H150639   2.133   3.444  10.310 -0.9144  0.5472  0.3525
 9716TIP3    H250640   2.275   3.484  10.274 -0.9314  1.2977  1.0850
 9717TIP3   OH250641   4.882   0.971   2.292  0.1010 -0.1003  0.1845
 9717TIP3    H150642   4.929   0.891   2.269  0.2190  0.1034 -0.3078
 9717TIP3    H250643   4.819   0.944   2.358 -0.3934 -0.7624 -0.5345
 9718TIP3   OH250644   4.631   5.687   1.470  0.0095 -0.1476 -0.2288
 9718TIP3    H150645   4.666   5.748   1.535 -0.9010 -1.6529  1.7907
 9718TIP3    H250646   4.706   5.665   1.415  1.1109  0.2956  1.0321
 9719TIP3   OH250647   2.369   3.071  13.152  1.0066 -0.8187 -0.1177
 9719TIP3    H150648   2.316   2.999  13.186 -0.5564  0.3796  0.0543
 9719TIP3    H250649   2.458   3.035  13.149  0.5061 -2.3016  1.3029
 9720TIP3   OH250650   2.543   0.503  15.156  0.2346  0.5164 -0.1464
 9720TIP3    H150651   2.465   0.479  15.206  1.3928  0.8081  1.9115
 9720TIP3    H250652   2.615   0.498  15.220  1.9729 -0.0469 -2.0304
 9721TIP3   OH250653   0.247   4.446   0.547  0.1588 -0.2917  0.2138
 9721TIP3    H150654   0.199   4.397   0.614 -0.3942 -0.6291 -0.4111
 9721TIP3    H250655   0.181   4.504   0.508  1.0777  1.9251  1.7971
 9722TIP3   OH250656   5.212   2.214   4.922  0.1380 -0.1465 -0.2473
 9722TIP3    H150657   5.173   2.225   5.008 -2.1762 -2.6854 -0.8280
 9722TIP3    H250658   5.163   2.274   4.866  0.3673  0.1377 -0.1478
 9723TIP3   OH250659   0.537   4.995   3.551  0.0170 -0.1688 -0.3623
 9723TIP3    H150660   0.543   5.082   3.590 -0.8067  0.1127 -0.8320
 9723TIP3    H250661   0.626   4.974   3.524  0.1917  0.6031 -0.3964
 9724TIP3   OH250662   0.248   4.676  12.072 -0.0397 -1.0738 -0.1766
 9724TIP3    H150663   0.288   4.726  12.001 -1.6061 -1.1877 -1.1810
 9724TIP3    H250664   0.154   4.692  12.064 -0.2303 -0.3005  2.4892
 9725TIP3   OH250665   6.362   4.070  14.557  0.0306 -0.4435 -0.1008
 9725TIP3    H150666   6.410   4.058  14.475  0.9434 -1.1998  0.5147
 9725TIP3    H250667   6.427   4.051  14.625 -0.6397  0.4314  0.8035
 9726TIP3   OH250668   3.451   6.698  11.522  0.6926 -0.1707  0.4253
 9726TIP3    H150669   3.427   6.700  11.614  1.4499 -1.3867  0.6843
 9726TIP3    H250670   3.546   6.711  11.522  0.8923 -1.4651 -0.0586
 9727TIP3   OH250671   2.769   4.169  15.662 -0.0998  0.0666  0.7286
 9727TIP3    H150672   2.855   4.132  15.680  0.1941 -0.1973 -1.0936
 9727TIP3    H250673   2.730   4.110  15.599 -1.5970  0.2536  1.4356
 9728TIP3   OH250674   6.382   5.910   3.835  0.0278 -0.6056  0.0331
 9728TIP3    H150675   6.306   5.885   3.887 -0.5502  2.9147  1.1427
 9728TIP3    H250676   6.449   5.933   3.900  0.3317  0.9611 -0.7768
 9729TIP3   OH250677   7.056   2.211   2.346  0.1072  0.2910 -0.4398
 9729TIP3    H150678   6.990   2.155   2.305  1.4009 -0.9897 -0.8612
 9729TIP3    H250679   7.115   2.150   2.389  0.2284  1.4954  1.1570
 9730TIP3   OH250680   5.723   6.486  15.501  0.7738 -0.2496  0.7055
 9730TIP3    H150681   5.773   6.411  15.533 -0.3011 -1.4515 -0.3080
 9730TIP3    H250682   5.757   6.502  15.413 -1.9086 -2.4939 -0.9181
 9731TIP3   OH250683   3.518   6.868   1.291  0.2083  0.7785 -0.5058
 9731TIP3    H150684   3.502   6.824   1.374 -1.6811  1.4786 -0.4473
 9731TIP3    H250685   3.613   6.869   1.282  0.4332  0.2788  1.4213
 9732TIP3   OH250686   5.487   3.815  12.511 -0.3675 -0.2495  0.1529
 9732TIP3    H150687   5.520   3.726  12.503  2.2945  0.3265  2.6767
 9732TIP3    H250688   5.512   3.858  12.429 -1.6193 -1.7181 -1.0600
 9733TIP3   OH250689   3.301   2.799  10.099 -0.2426  0.1828  0.2975
 9733TIP3    H150690   3.211   2.788  10.127 -0.3617  1.1464  0.3376
 9733TIP3    H250691   3.350   2.732  10.147 -0.8449  0.0363  0.7202
 9734TIP3   OH250692   6.938   1.852   1.207  0.1519  0.3819 -0.0330
 9734TIP3    H150693   6.964   1.941   1.229  1.6891 -0.2076  0.6344
 9734TIP3    H250694   6.855   1.838   1.253 -2.3146  2.7534 -3.2376
 9735TIP3   OH250695   4.623   1.242   5.171 -0.3334  0.0233  0.0129
 9735TIP3    H150696   4.646   1.167   5.116 -1.7718  0.2451 -0.9528
 9735TIP3    H250697   4.527   1.247   5.166 -0.2851  1.8166  0.1998
 9736TIP3   OH250698   0.465   0.788   9.657  0.0419 -0.2894 -0.4399
 9736TIP3    H150699   0.424   0.729   9.594  0.9309 -2.8763  1.2590
 9736TIP3    H250700   0.550   0.810   9.618 -0.4821  0.3194 -1.2866
 9737TIP3   OH250701   5.977   0.443  11.991 -0.5024 -0.3292  0.0789
 9737TIP3    H150702   5.897   0.445  11.939 -1.0416  1.1350  0.9022
 9737TIP3    H250703   6.007   0.534  11.991  0.0421 -0.4915  1.4531
 9738TIP3   OH250704   2.129   4.809   1.980 -0.9822 -0.0968  0.5064
 9738TIP3    H150705   2.173   4.758   2.048 -0.3844  1.2426  1.1527
 9738TIP3    H250706   2.040   4.772   1.977 -0.0094 -2.5867 -0.5584
 9739TIP3   OH250707   2.372   4.082   3.546  0.1751 -0.1349 -0.1861
 9739TIP3    H150708   2.368   4.176   3.529 -1.1552 -0.2495 -0.6230
 9739TIP3    H250709   2.351   4.072   3.638  0.8510  0.0197 -0.0077
 9740TIP3   OH250710   2.856   6.017  14.674 -0.3564  0.1060  0.4827
 9740TIP3    H150711   2.879   5.925  14.667  0.4371  0.2493  1.0497
 9740TIP3    H250712   2.940   6.063  14.675 -0.5954  0.6313  2.8608
 9741TIP3   OH250713   6.237   0.353   1.327 -0.4653 -0.4409  0.0470
 9741TIP3    H150714   6.310   0.320   1.274 -0.7772 -0.0309 -0.6697
 9741TIP3    H250715   6.160   0.310   1.290 -0.5782 -0.9709  0.8862
 9742TIP3   OH250716   0.104   2.175   3.117  0.2445 -0.6083  0.4992
 9742TIP3    H150717   0.064   2.089   3.131  1.2742 -1.1077  0.5296
 9742TIP3    H250718   0.111   2.183   3.022  3.4784 -2.2510  0.4449
 9743TIP3   OH250719   1.505   0.966  15.629  0.4520  0.4650  0.0497
 9743TIP3    H150720   1.533   0.993  15.542 -0.4789  0.3973 -0.2885
 9743TIP3    H250721   1.561   0.892  15.650  2.1371  1.8086  0.4364
 9744TIP3   OH250722   5.696   3.916  14.081  0.4640 -0.1307 -0.2913
 9744TIP3    H150723   5.680   3.946  14.170 -0.6630  0.0270 -0.5321
 9744TIP3    H250724   5.615   3.871  14.056  1.3971 -1.6859 -0.6300
 9745TIP3   OH250725   2.760   2.099  12.055  0.0410  0.1856  0.0594
 9745TIP3    H150726   2.771   2.194  12.063  1.3328 -0.0586  1.3642
 9745TIP3    H250727   2.835   2.061  12.100 -3.0170 -1.5247  4.4422
 9746TIP3   OH250728   4.286   0.312  13.993  0.6044 -0.4484 -0.2045
 9746TIP3    H150729   4.369   0.266  13.987  1.0326  0.3921 -0.9023
 9746TIP3    H250730   4.229   0.252  14.041  1.2669 -1.5108 -0.7167
 9747TIP3   OH250731   0.842   2.569   1.110  0.3269  0.8057 -0.0565
 9747TIP3    H150732   0.765   2.560   1.166  0.1138  1.9434 -0.1433
 9747TIP3    H250733   0.826   2.510   1.037 -0.0258  0.3398  0.3890
 9748TIP3   OH250734   2.220   6.177  14.202 -0.7765  0.2781  0.4355
 9748TIP3    H150735   2.297   6.120  14.202 -1.5122 -0.7518  0.6968
 9748TIP3    H250736   2.170   6.151  14.124  0.0667  2.2846 -0.8389
 9749TIP3   OH250737   4.301   1.898   0.675 -0.2382 -0.0372 -0.4070
 9749TIP3    H150738   4.332   1.922   0.762 -0.5619 -1.7491  0.2144
 9749TIP3    H250739   4.358   1.825   0.649 -1.3475 -0.7769 -0.8172
 9750TIP3   OH250740   2.736   3.225  14.449 -0.0921  0.2075  0.2106
 9750TIP3    H150741   2.658   3.169  14.456 -0.9766  1.4891  0.9432
 9750TIP3    H250742   2.709   3.297  14.392  0.7101  0.4258  0.0969
 9751TIP3   OH250743   6.591   2.234   1.094  0.4088 -0.1418  0.0337
 9751TIP3    H150744   6.684   2.243   1.075  0.4309 -0.8727 -0.2328
 9751TIP3    H250745   6.547   2.249   1.010  0.2722  0.2871  0.1749
 9752TIP3   OH250746   4.911   6.704  15.694 -0.4563 -0.7403  0.7718
 9752TIP3    H150747   4.952   6.684  15.778  1.1999  0.5658  0.3307
 9752TIP3    H250748   4.981   6.693  15.629 -1.5455 -1.1351 -0.3813
 9753TIP3   OH250749   4.713   1.918   3.848 -0.6465 -0.2428  0.1092
 9753TIP3    H150750   4.761   1.859   3.790  0.2681 -0.2420  0.8314
 9753TIP3    H250751   4.680   1.987   3.791  0.1988 -0.2649 -0.4172
 9754TIP3   OH250752   5.740   5.578   5.603 -0.1864  0.4050  0.4395
 9754TIP3    H150753   5.825   5.620   5.617  0.4680 -0.7162 -0.0383
 9754TIP3    H250754   5.727   5.525   5.681  0.8547 -1.5189 -0.6157
 9755TIP3   OH250755   6.395   1.222  13.907  0.0280  0.1754 -0.1576
 9755TIP3    H150756   6.325   1.215  13.842  0.4283 -0.9168 -0.4828
 9755TIP3    H250757   6.469   1.177  13.867  1.2883  2.2214 -0.2837
 9756TIP3   OH250758   6.507   4.482   4.974 -0.1753 -0.1745  0.6212
 9756TIP3    H150759   6.414   4.483   4.995 -0.1748 -0.0391  0.6221
 9756TIP3    H250760   6.547   4.539   5.039 -0.1077 -0.1424  0.5520
 9757TIP3   OH250761   6.957   3.184  13.124 -0.0067 -0.2725 -0.2730
 9757TIP3    H150762   6.921   3.154  13.041  0.4138  0.3410 -0.6792
 9757TIP3    H250763   6.908   3.264  13.144 -0.0238 -0.3509  0.0182
 9758TIP3   OH250764   3.435   0.988   0.700 -0.4704 -0.5303 -0.3269
 9758TIP3    H150765   3.399   0.905   0.731 -2.7499 -0.0477 -1.4577
 9758TIP3    H250766   3.410   1.052   0.767  0.0987 -0.5232 -0.1168
 9759TIP3   OH250767   6.973   0.581  15.008 -0.0853  0.0066  0.3397
 9759TIP3    H150768   6.940   0.647  15.069 -0.8228  0.2389 -0.3078
 9759TIP3    H250769   6.959   0.498  15.053 -1.8766  0.0703 -0.0588
 9760TIP3   OH250770   2.114   4.638   9.930  0.1247  0.1261  0.2188
 9760TIP3    H150771   2.042   4.584   9.963  1.1560 -1.5079 -0.0712
 9760TIP3    H250772   2.115   4.622   9.836  0.9988 -0.0444  0.2490
 9761TIP3   OH250773   5.868   3.054  14.445  0.3590  0.3567 -0.0848
 9761TIP3    H150774   5.890   3.141  14.478 -0.5426  0.6724 -0.2976
 9761TIP3    H250775   5.776   3.042  14.468  0.4859 -0.5690 -0.0094
 9762TIP3   OH250776   6.263   2.965   6.029  0.1559 -0.5511 -0.2743
 9762TIP3    H150777   6.321   2.894   6.002  0.4014  0.3298 -2.1648
 9762TIP3    H250778   6.319   3.042   6.034 -0.3503 -0.2213  0.5214
 9763TIP3   OH250779   1.086   0.012  11.686  0.1701  0.4604 -0.2056
 9763TIP3    H150780   1.174   0.048  11.695  0.9544 -1.0782 -1.2042
 9763TIP3    H250781   1.039   0.075  11.631  0.3118  1.7850  1.1444
 9764TIP3   OH250782   6.933   1.528  13.327 -0.1671 -0.2248  0.5276
 9764TIP3    H150783   6.978   1.488  13.253  1.0158 -0.7858  1.5332
 9764TIP3    H250784   6.898   1.455  13.377  0.1490  0.0856  1.2123
 9765TIP3   OH250785   5.733   5.315   3.023  0.5915  0.2854  0.4399
 9765TIP3    H150786   5.750   5.406   2.997  0.3544 -0.1239 -1.2826
 9765TIP3    H250787   5.690   5.322   3.108  1.3472  1.7403  0.7426
 9766TIP3   OH250788   5.085   1.091  13.544 -0.0688 -0.4173 -0.1825
 9766TIP3    H150789   5.073   1.166  13.486  5.0884  0.2318 -0.8596
 9766TIP3    H250790   5.100   1.017  13.484  0.9137 -0.6730  0.3698
 9767TIP3   OH250791   6.561   5.126  14.887  0.3738  0.2984 -0.5241
 9767TIP3    H150792   6.601   5.069  14.954 -0.8474  0.7172  0.5912
 9767TIP3    H250793   6.525   5.199  14.936  0.2185  1.0739 -1.7571
 9768TIP3   OH250794   3.902   5.021   3.815  0.3970 -0.0295  0.2823
 9768TIP3    H150795   3.972   5.002   3.878 -0.4773  0.4355  1.4238
 9768TIP3    H250796   3.831   5.057   3.868 -1.3952 -2.0851 -0.5949
 9769TIP3   OH250797   2.094   3.577   3.680 -0.6931  0.1689  0.2235
 9769TIP3    H150798   2.057   3.610   3.762 -1.1159 -0.4916  0.3030
 9769TIP3    H250799   2.018   3.562   3.623 -0.3760  1.0695 -0.4702
 9770TIP3   OH250800   4.959   4.650  11.273  0.1726  0.0920 -0.3105
 9770TIP3    H150801   4.996   4.680  11.356  0.9733 -1.8947  0.1181
 9770TIP3    H250802   5.000   4.706  11.207 -2.6968  3.7812  0.6717
 9771TIP3   OH250803   0.632   5.823   4.777 -0.1702  0.2310 -0.5784
 9771TIP3    H150804   0.594   5.770   4.707  0.0220 -1.0887  0.2781
 9771TIP3    H250805   0.670   5.759   4.838 -0.6671  1.3038  0.9278
 9772TIP3   OH250806   6.836   5.905  10.779  0.2703 -0.1124 -0.0299
 9772TIP3    H150807   6.800   5.908  10.867  0.9051  0.2108  0.2296
 9772TIP3    H250808   6.908   5.969  10.780  2.5018 -2.4314  0.2642
 9773TIP3   OH250809   7.063   3.658  15.592  0.0118 -0.7002 -0.0524
 9773TIP3    H150810   7.025   3.641  15.506  0.9176 -0.5361 -0.5038
 9773TIP3    H250811   7.116   3.737  15.579 -0.3159 -0.3303  0.8063
 9774TIP3   OH250812   6.764   4.114  14.148 -0.1217 -0.6632 -0.0409
 9774TIP3    H150813   6.675   4.081  14.135 -0.3431 -0.3366  0.6105
 9774TIP3    H250814   6.754   4.189  14.207  0.6906 -1.3172  0.9814
 9775TIP3   OH250815   0.082   0.127   1.245 -0.2992  0.2200  0.4152
 9775TIP3    H150816   0.132   0.182   1.184  0.7784  0.6945  1.6596
 9775TIP3    H250817   0.136   0.126   1.325 -0.7922 -1.8369  0.7637
 9776TIP3   OH250818   2.214   0.891   4.003 -0.1535  0.3965 -0.3464
 9776TIP3    H150819   2.280   0.906   3.935  0.7475  0.1637  0.4597
 9776TIP3    H250820   2.137   0.939   3.973 -0.1424 -0.5756 -2.0685
 9777TIP3   OH250821   6.320   3.637  15.011 -0.4644 -0.1664  0.0907
 9777TIP3    H150822   6.410   3.638  14.980 -0.0399  1.5029  1.3000
 9777TIP3    H250823   6.284   3.556  14.974  1.2288 -0.4002 -1.1796
 9778TIP3   OH250824   4.561   2.150  14.982  0.1018 -0.4741  0.2727
 9778TIP3    H150825   4.596   2.235  15.007  0.9119 -0.6110 -0.3620
 9778TIP3    H250826   4.569   2.096  15.061  2.3839 -0.8271 -0.1381
 9779TIP3   OH250827   0.656   3.747   2.766  0.6820  0.7305 -0.2472
 9779TIP3    H150828   0.593   3.739   2.695  0.6145  0.0369 -0.1204
 9779TIP3    H250829   0.610   3.713   2.843  0.2742  2.6889  0.4483
 9780TIP3   OH250830   1.876   2.376  11.079  1.1429 -0.2073 -1.3605
 9780TIP3    H150831   1.828   2.297  11.105 -1.8391  1.3522 -1.6208
 9780TIP3    H250832   1.968   2.352  11.088  0.3774 -3.3627 -0.4693
 9781TIP3   OH250833   3.357   2.884  15.361 -0.0617 -0.0612 -0.0547
 9781TIP3    H150834   3.435   2.910  15.411  0.6765  0.4467 -1.4229
 9781TIP3    H250835   3.285   2.895  15.423  0.8124  0.6260  0.8825
 9782TIP3   OH250836   4.038   1.398   9.731  0.2406  0.0005  0.2178
 9782TIP3    H150837   3.949   1.409   9.697 -0.2128 -0.5011  1.1942
 9782TIP3    H250838   4.026   1.384   9.825  1.3081 -0.6548  0.2770
 9783TIP3   OH250839   3.856   5.596   3.303  0.7753 -0.4765 -0.3732
 9783TIP3    H150840   3.850   5.515   3.253  0.5537 -0.2183 -0.7672
 9783TIP3    H250841   3.932   5.641   3.268  0.1915  0.0510 -1.0094
 9784TIP3   OH250842   1.054   3.564   2.259 -0.4586  0.0427 -0.3541
 9784TIP3    H150843   1.029   3.539   2.348 -0.2584 -0.8583 -0.5483
 9784TIP3    H250844   1.004   3.506   2.202  0.2489 -0.1434 -0.7993
 9785TIP3   OH250845   4.605   3.946  11.436 -0.5144  0.7386  0.2871
 9785TIP3    H150846   4.591   4.032  11.476 -0.1806  0.9060  0.0508
 9785TIP3    H250847   4.546   3.945  11.361  1.2030  1.7536 -1.1733
 9786TIP3   OH250848   4.268   0.561  14.101 -0.2448 -0.4984  0.5758
 9786TIP3    H150849   4.348   0.588  14.147 -0.4205 -0.9922  1.1839
 9786TIP3    H250850   4.294   0.484  14.050 -0.1538 -0.2081  0.1805
 9787TIP3   OH250851   3.686   6.007   3.715  0.0559 -0.1898 -0.1060
 9787TIP3    H150852   3.761   6.062   3.694  1.2735 -2.0229 -0.7195
 9787TIP3    H250853   3.723   5.931   3.760 -1.6149 -0.4225  0.9733
 9788TIP3   OH250854   3.302   3.656   5.961  0.0649 -0.2246  0.2617
 9788TIP3    H150855   3.229   3.661   5.899 -0.4536 -0.8760  0.8082
 9788TIP3    H250856   3.260   3.648   6.047  0.7776 -0.8705  0.5592
 9789TIP3   OH250857   4.273   5.743  14.746 -0.0467  0.4366 -0.3373
 9789TIP3    H150858   4.259   5.821  14.801 -0.8770 -0.6448  1.0602
 9789TIP3    H250859   4.267   5.776  14.657 -0.2553  2.0004  0.2107
 9790TIP3   OH250860   3.335   6.813  11.286 -0.3418 -0.2731 -0.1497
 9790TIP3    H150861   3.417   6.810  11.237 -0.2086  1.5679 -0.0848
 9790TIP3    H250862   3.351   6.756  11.362 -0.0773 -2.0438 -1.4563
 9791TIP3   OH250863   3.721   1.392  10.565  0.0080 -0.7697 -0.0123
 9791TIP3    H150864   3.688   1.430  10.647 -1.4033 -0.3727 -0.7249
 9791TIP3    H250865   3.811   1.367  10.584  0.2283  0.7948  1.1844
 9792TIP3   OH250866   1.198   2.580   2.660  0.4876  0.1877  0.3653
 9792TIP3    H150867   1.283   2.593   2.701  0.1394  2.0529  0.5746
 9792TIP3    H250868   1.148   2.658   2.682 -0.4255  0.3221 -1.8653
 9793TIP3   OH250869   5.052   6.964  11.155  0.3036  0.2346 -0.4903
 9793TIP3    H150870   5.063   6.955  11.061 -0.3095  0.3129 -0.5786
 9793TIP3    H250871   5.100   7.043  11.178  0.1922  0.3906 -0.7922
 9794TIP3   OH250872   6.319   0.543   1.006  0.3302 -0.0816 -0.4140
 9794TIP3    H150873   6.280   0.622   0.967  1.4152  1.5143  1.5357
 9794TIP3    H250874   6.386   0.516   0.943 -1.6632 -0.9966 -2.2854
 9795TIP3   OH250875   1.192   4.912   2.055  0.2650 -0.0016 -0.2173
 9795TIP3    H150876   1.153   4.957   1.980 -1.2778  0.7441  0.9660
 9795TIP3    H250877   1.286   4.920   2.042  0.1331 -1.5432 -3.0388
 9796TIP3   OH250878   0.670   3.319   3.864  0.0030 -0.0202 -0.2756
 9796TIP3    H150879   0.717   3.248   3.906 -0.2461  0.2630  0.5006
 9796TIP3    H250880   0.717   3.334   3.782  0.3353 -0.7592 -0.2247
 9797TIP3   OH250881   0.961   5.767   6.053  0.2900  0.1468 -0.0875
 9797TIP3    H150882   1.036   5.825   6.069  1.7864 -1.4073 -1.1548
 9797TIP3    H250883   0.973   5.696   6.115 -0.3807 -0.0486 -0.1812
 9798TIP3   OH250884   6.544   3.830  13.633  0.0812 -0.0739  0.7054
 9798TIP3    H150885   6.602   3.760  13.660 -0.1488 -1.0482 -1.1481
 9798TIP3    H250886   6.456   3.801  13.658  0.1134  0.1681  1.1098
 9799TIP3   OH250887   2.657   7.070   0.632 -0.3084  0.5155 -0.4199
 9799TIP3    H150888   2.663   7.029   0.719 -1.8396 -1.4264 -1.1625
 9799TIP3    H250889   2.629   7.159   0.650  1.1569  0.7213  1.1612
 9800TIP3   OH250890   2.535   6.790   4.813  0.2887 -0.2623 -0.9813
 9800TIP3    H150891   2.572   6.877   4.804  1.9327 -0.8516 -0.2612
 9800TIP3    H250892   2.480   6.794   4.891  1.3581 -0.1675 -0.2075
 9801TIP3   OH250893   0.779   2.961  10.210 -0.3861  0.2122  0.2958
 9801TIP3    H150894   0.864   2.974  10.253 -0.5875  2.6148  0.0907
 9801TIP3    H250895   0.797   2.973  10.117 -0.7207 -0.6832  0.1087
 9802TIP3   OH250896   2.695   4.492   1.825 -0.1905 -0.3287 -0.2680
 9802TIP3    H150897   2.722   4.400   1.828  0.1749 -0.2465 -0.8003
 9802TIP3    H250898   2.674   4.514   1.915  1.8537 -0.3131  0.2616
 9803TIP3   OH250899   1.460   4.787   1.273 -0.3102 -0.3421  0.0870
 9803TIP3    H150900   1.384   4.756   1.321  0.0901 -0.7037  0.5001
 9803TIP3    H250901   1.427   4.807   1.185 -0.7151 -1.3191  0.0036
 9804TIP3   OH250902   5.429   3.166  11.784 -0.1117  0.0707  0.2316
 9804TIP3    H150903   5.377   3.147  11.706 -0.6717 -0.1317  0.6434
 9804TIP3    H250904   5.504   3.216  11.752  1.1478 -2.3206 -0.8607
 9805TIP3   OH250905   1.245   5.714  14.744 -0.2119  0.3150  0.2142
 9805TIP3    H150906   1.191   5.766  14.804 -1.1123 -0.8126  0.4144
 9805TIP3    H250907   1.207   5.626  14.748  0.4579 -0.0546 -1.1107
 9806TIP3   OH250908   7.117   6.618  11.342  0.6549  0.2362  0.4225
 9806TIP3    H150909   7.173   6.622  11.419  1.7453 -2.4026 -0.1101
 9806TIP3    H250910   7.052   6.551  11.362 -1.3881  2.1102  0.3871
 9807TIP3   OH250911   5.442   1.369  10.033  0.2801 -0.7965  0.1254
 9807TIP3    H150912   5.518   1.407  10.075  1.8319 -1.5041 -1.8727
 9807TIP3    H250913   5.381   1.350  10.104  1.8068  0.1087  1.7344
 9808TIP3   OH250914   0.752   5.674   0.402  0.6972 -0.3581  0.2247
 9808TIP3    H150915   0.717   5.605   0.459 -0.6807 -1.1310 -1.4303
 9808TIP3    H250916   0.717   5.755   0.438  0.1417 -0.7955  0.7055
 9809TIP3   OH250917   3.277   3.869   9.509  0.0709  0.0251 -0.1099
 9809TIP3    H150918   3.281   3.836   9.599 -1.6328  1.2841  0.4908
 9809TIP3    H250919   3.343   3.938   9.506 -1.0373  1.1725  0.7593
 9810TIP3   OH250920   5.349   0.475   4.380  0.3197 -0.0024 -0.3279
 9810TIP3    H150921   5.371   0.543   4.317  2.9567 -1.3353 -1.0117
 9810TIP3    H250922   5.378   0.510   4.464 -1.9393  1.2159  0.0155
 9811TIP3   OH250923   2.138   4.253  15.473 -0.1294 -0.3095 -0.0153
 9811TIP3    H150924   2.076   4.297  15.532 -1.8692 -1.3227 -1.0106
 9811TIP3    H250925   2.092   4.247  15.390  1.9877  0.3903 -1.3094
 9812TIP3   OH250926   2.275   3.023  14.822  0.0274 -0.1542 -0.3868
 9812TIP3    H150927   2.369   3.008  14.830 -0.2541 -1.1928  1.4677
 9812TIP3    H250928   2.240   3.004  14.909 -2.2232 -2.3401 -1.6423
 9813TIP3   OH250929   7.073   6.460   2.440 -0.5890  0.0794 -0.0460
 9813TIP3    H150930   7.033   6.381   2.404 -0.4908 -0.6636  1.3976
 9813TIP3    H250931   7.141   6.428   2.499  0.6434  1.2833 -0.7321
 9814TIP3   OH250932   4.705   4.604   4.624  0.0137  0.1360  0.0700
 9814TIP3    H150933   4.741   4.531   4.675  0.9617 -0.4373 -1.3543
 9814TIP3    H250934   4.751   4.681   4.656  0.1188 -0.1205  0.5379
 9815TIP3   OH250935   6.260   1.147  12.430  0.2813 -0.3928  0.1209
 9815TIP3    H150936   6.347   1.108  12.438 -0.6494 -2.5441  0.4171
 9815TIP3    H250937   6.242   1.144  12.336 -1.4294 -4.8290  0.3618
 9816TIP3   OH250938   0.499   0.433   3.303 -0.1134 -0.0473 -0.1651
 9816TIP3    H150939   0.449   0.355   3.278  0.3894 -0.7870  1.0296
 9816TIP3    H250940   0.555   0.451   3.228 -1.6552  0.3833 -1.2577
 9817TIP3   OH250941   2.003   1.839   1.339  0.6497  0.3623 -0.5272
 9817TIP3    H150942   2.081   1.784   1.344  0.1989 -0.2559 -0.1381
 9817TIP3    H250943   1.955   1.820   1.420 -0.0283  0.5422 -0.8799
 9818TIP3   OH250944   0.366   0.083   5.048 -0.1970 -0.0678  0.7262
 9818TIP3    H150945   0.436   0.073   4.984  0.0945 -0.3471  1.0833
 9818TIP3    H250946   0.287   0.095   4.995 -0.1457 -1.5028  0.2940
 9819TIP3   OH250947   3.238   0.379   1.221 -0.4229  0.4588 -0.1451
 9819TIP3    H150948   3.217   0.347   1.133 -1.9590  2.1163 -0.4263
 9819TIP3    H250949   3.333   0.395   1.218 -0.2236 -0.7345 -1.0532
 9820TIP3   OH250950   2.816   4.170   5.548 -0.3550  0.4412  0.0604
 9820TIP3    H150951   2.770   4.194   5.468 -0.2566  0.4570  0.0085
 9820TIP3    H250952   2.748   4.134   5.605 -0.6037  1.3857  0.3637
 9821TIP3   OH250953   5.962   3.635  15.280  0.1703  0.3810 -0.1307
 9821TIP3    H150954   5.868   3.645  15.265 -0.0843  0.3960  1.3575
 9821TIP3    H250955   5.995   3.725  15.283  0.6852  0.3721 -3.0575
 9822TIP3   OH250956   1.531   4.705  12.728 -0.3879 -0.1197 -0.0219
 9822TIP3    H150957   1.552   4.775  12.666 -1.2603  0.4019  0.2593
 9822TIP3    H250958   1.495   4.635  12.675 -0.0716 -0.1208 -0.2359
 9823TIP3   OH250959   4.073   5.590  15.250 -0.0598 -0.7455 -0.4814
 9823TIP3    H150960   4.130   5.529  15.297 -2.3517 -0.8684  2.4165
 9823TIP3    H250961   4.124   5.671  15.243  0.9063 -1.2138  0.9002
 9824TIP3   OH250962   4.377   1.140  15.479 -0.4561 -0.0674  0.6244
 9824TIP3    H150963   4.327   1.208  15.525 -0.9320  0.2213 -0.3010
 9824TIP3    H250964   4.311   1.073  15.459 -0.1099 -0.5187  0.9720
 9825TIP3   OH250965   1.441   4.527   1.075 -0.1082  0.2132  0.2125
 9825TIP3    H150966   1.446   4.602   1.016  0.0364  0.5404  0.6345
 9825TIP3    H250967   1.355   4.535   1.116 -1.1744 -1.2688 -1.5907
 9826TIP3   OH250968   6.591   6.975  10.767  0.7224  0.0240 -0.0228
 9826TIP3    H150969   6.638   7.052  10.798 -0.2708  0.6295  0.0301
 9826TIP3    H250970   6.585   6.917  10.843  1.2636 -0.0034  0.0003
 9827TIP3   OH250971   6.712   2.212   2.720  0.1724  0.6478 -0.7225
 9827TIP3    H150972   6.749   2.139   2.769  1.5811  2.6513  1.4664
 9827TIP3    H250973   6.690   2.176   2.635 -2.2767 -3.1011  1.1966
 9828TIP3   OH250974   7.050   0.690   4.003 -0.3381 -0.1704 -0.0721
 9828TIP3    H150975   7.096   0.611   4.032  0.6442  0.5296  0.3296
 9828TIP3    H250976   7.116   0.759   4.006 -1.3018  0.7753  0.0720
 9829TIP3   OH250977   6.773   2.668   3.329 -0.6760 -0.6081  0.6183
 9829TIP3    H150978   6.713   2.705   3.394 -0.1092 -0.2802  0.9682
 9829TIP3    H250979   6.834   2.616   3.381  0.3951  0.4682  0.4749
 9830TIP3   OH250980   5.401   0.568  15.033 -0.5399 -0.5394 -0.6103
 9830TIP3    H150981   5.476   0.572  14.973 -1.7859 -2.1035 -2.3723
 9830TIP3    H250982   5.432   0.611  15.112  2.6843 -2.2824 -0.7585
 9831TIP3   OH250983   6.471   6.175  12.369 -0.1809 -0.1277 -0.0488
 9831TIP3    H150984   6.437   6.094  12.405 -0.4132 -0.0542 -0.1022
 9831TIP3    H250985   6.565   6.173  12.389 -0.5082  0.5248  1.7644
 9832TIP3   OH250986   2.386   2.205  10.858 -0.3391  0.4877 -0.0625
 9832TIP3    H150987   2.420   2.223  10.770 -0.9967  0.6391 -0.2897
 9832TIP3    H250988   2.462   2.173  10.907  0.1383  0.8523 -0.5511
 9833TIP3   OH250989   1.547   6.070   0.541 -0.2861  0.5682  0.3967
 9833TIP3    H150990   1.511   6.140   0.595 -1.3664 -0.1954  0.6956
 9833TIP3    H250991   1.470   6.026   0.504  0.3986  0.1405 -0.5659
 9834TIP3   OH250992   3.240   2.410  14.256  0.1738  0.0256 -0.2408
 9834TIP3    H150993   3.158   2.440  14.294  0.2245  1.4898 -1.2125
 9834TIP3    H250994   3.222   2.320  14.228 -0.3967 -0.4490  1.5350
 9835TIP3   OH250995   0.098   5.375  14.287  0.2103  0.5119  0.4048
 9835TIP3    H150996   0.165   5.432  14.323  0.8456  0.7271 -1.0655
 9835TIP3    H250997   0.016   5.407  14.325  0.8271  0.8321  1.4881
 9836TIP3   OH250998   0.621   1.606  14.551 -0.4691 -0.3335 -0.3047
 9836TIP3    H150999   0.683   1.566  14.612 -2.3620 -2.4324  0.3505
 9836TIP3    H251000   0.573   1.670  14.604 -0.7728 -0.7428 -0.0811
 9837TIP3   OH251001   2.171   1.816  14.650 -0.2852 -0.1114 -0.1162
 9837TIP3    H151002   2.132   1.729  14.663  1.0043 -0.4459  2.0286
 9837TIP3    H251003   2.258   1.798  14.617 -0.3104  0.4111 -0.4679
 9838TIP3   OH251004   0.238   0.394   1.988 -0.8959 -0.1767 -0.3025
 9838TIP3    H151005   0.250   0.315   2.041 -3.1872 -0.6639 -0.4142
 9838TIP3    H251006   0.144   0.411   1.991 -0.6067  1.8784 -1.2708
 9839TIP3   OH251007   0.461   3.663  15.464  0.3674 -0.9017  0.0032
 9839TIP3    H151008   0.488   3.652  15.373 -1.3790  0.2343 -0.7179
 9839TIP3    H251009   0.383   3.607  15.472 -1.4820  1.4621 -0.2566
 9840TIP3   OH251010   4.556   1.847  11.102 -0.2838 -0.5773  0.9859
 9840TIP3    H151011   4.475   1.806  11.133 -0.7970 -0.8114 -0.6106
 9840TIP3    H251012   4.604   1.777  11.058 -0.1065 -0.0009  0.2406
 9841TIP3   OH251013   3.243   1.474  12.313  0.2388  0.4377  0.1098
 9841TIP3    H151014   3.148   1.475  12.320  0.1716 -1.7822  0.3215
 9841TIP3    H251015   3.275   1.466  12.403  0.6668  1.6538  0.0826
 9842TIP3   OH251016   1.742   2.332  13.706 -0.1988  0.6889  0.4909
 9842TIP3    H151017   1.714   2.376  13.626 -1.7845  0.3242  0.8169
 9842TIP3    H251018   1.661   2.300  13.746  0.6959 -0.4081  1.5002
 9843TIP3   OH251019   6.258   4.028   2.705  0.4846  0.6390 -0.2572
 9843TIP3    H151020   6.172   3.994   2.730 -0.1655  0.8238 -2.0922
 9843TIP3    H251021   6.246   4.123   2.702  1.7526  0.9841  2.9003
 9844TIP3   OH251022   1.718   0.350  14.637  0.2249  0.9181 -0.1441
 9844TIP3    H151023   1.685   0.439  14.652  2.7734  1.7309  1.3695
 9844TIP3    H251024   1.733   0.346  14.543  1.5276  2.7246 -0.0781
 9845TIP3   OH251025   6.093   4.297  10.872 -0.0995  0.1665  0.0795
 9845TIP3    H151026   6.161   4.338  10.818 -0.9761  1.5093 -0.0621
 9845TIP3    H251027   6.090   4.351  10.951  0.5005 -1.2060  1.0828
 9846TIP3   OH251028   1.832   6.945  13.388  0.0899  0.0946  0.1663
 9846TIP3    H151029   1.853   6.998  13.311 -1.1423  1.2305  0.5488
 9846TIP3    H251030   1.745   6.976  13.414  0.4177 -0.3595  1.9267
 9847TIP3   OH251031   7.089   4.780   5.625  0.0027 -0.2071 -0.4424
 9847TIP3    H151032   7.158   4.773   5.559  1.1953  0.9875  0.6237
 9847TIP3    H251033   7.116   4.721   5.695 -0.3879 -0.2217 -0.3033
 9848TIP3   OH251034   5.648   0.183   3.605  0.3050 -0.3614  0.4024
 9848TIP3    H151035   5.611   0.197   3.692  0.7301  0.8285  0.4136
 9848TIP3    H251036   5.597   0.241   3.548  0.1091 -1.0391 -0.1290
 9849TIP3   OH251037   2.082   6.698   9.774 -0.2560  0.2224 -0.0453
 9849TIP3    H151038   2.009   6.704   9.713  0.0924  0.3566 -0.4532
 9849TIP3    H251039   2.111   6.607   9.768 -0.7952  0.0025  0.5961
 9850TIP3   OH251040   7.142   5.629  10.506 -0.4582 -0.4762  0.4003
 9850TIP3    H151041   7.203   5.556  10.514 -1.0790 -1.1698 -0.8391
 9850TIP3    H251042   7.196   5.707  10.512  0.7981 -1.0685 -2.0508
 9851TIP3   OH251043   3.646   2.192  14.617  1.0868 -0.1044 -0.2382
 9851TIP3    H151044   3.604   2.126  14.562 -0.0500  0.4336 -0.0401
 9851TIP3    H251045   3.607   2.275  14.589 -0.6426  0.0546  2.3284
 9852TIP3   OH251046   2.200   0.703   5.350 -0.0314  0.0756  0.3348
 9852TIP3    H151047   2.182   0.632   5.289 -0.4412 -0.5388  1.1505
 9852TIP3    H251048   2.246   0.661   5.423  1.4573  0.9871 -0.0275
 9853TIP3   OH251049   5.500   3.970   3.965  0.2155  0.1886  0.3183
 9853TIP3    H151050   5.473   4.059   3.942 -1.9915 -1.0322 -2.4282
 9853TIP3    H251051   5.466   3.957   4.054 -1.9080  1.2347 -0.2578
 9854TIP3   OH251052   0.205   6.229   3.632 -0.1818  0.0530 -0.5011
 9854TIP3    H151053   0.177   6.147   3.591  0.7683 -0.4230 -0.2364
 9854TIP3    H251054   0.289   6.207   3.674 -2.5973 -0.5942  4.8516
 9855TIP3   OH251055   6.339   6.685  12.259  0.4945  0.2399  0.1713
 9855TIP3    H151056   6.434   6.677  12.260  0.4636 -0.9692 -1.5853
 9855TIP3    H251057   6.318   6.734  12.339  2.5475  0.2807  0.7445
 9856TIP3   OH251058   4.241   4.748   3.315  0.5433 -0.1295 -0.1841
 9856TIP3    H151059   4.238   4.824   3.372 -0.0072 -1.9790  2.4814
 9856TIP3    H251060   4.214   4.780   3.229  2.6736  3.0733  0.2038
 9857TIP3   OH251061   7.001   0.661  13.759 -0.4489 -0.0258 -0.0266
 9857TIP3    H151062   7.067   0.691  13.821  0.0281  0.6546 -0.8464
 9857TIP3    H251063   6.920   0.661  13.809 -0.5979  3.1822 -0.0712
 9858TIP3   OH251064   5.425   6.446   4.611 -0.1672 -0.2218 -0.5537
 9858TIP3    H151065   5.343   6.417   4.650 -0.4096  0.1276 -0.8081
 9858TIP3    H251066   5.418   6.422   4.519  0.5497 -1.3679 -0.3404
 9859TIP3   OH251067   0.259   4.220   3.874  0.2234 -0.1530 -0.3912
 9859TIP3    H151068   0.230   4.298   3.826 -0.4722 -2.1989 -3.6469
 9859TIP3    H251069   0.184   4.197   3.930  0.4838  1.4983  0.6925
 9860TIP3   OH251070   6.571   2.654  14.398 -0.4951 -0.0637  0.1345
 9860TIP3    H151071   6.576   2.600  14.477  0.7322 -0.8523 -0.4613
 9860TIP3    H251072   6.525   2.599  14.334  0.6564 -0.4015 -0.4370
 9861TIP3   OH251073   5.805   0.641   1.403  0.8720 -0.0902 -0.4534
 9861TIP3    H151074   5.834   0.555   1.372  1.2300 -0.0922 -0.1197
 9861TIP3    H251075   5.816   0.637   1.498  1.9693  0.7144 -0.5263
 9862TIP3   OH251076   4.107   1.331   4.697 -0.2917 -0.0707 -0.2028
 9862TIP3    H151077   4.110   1.408   4.641 -0.6896  0.4067  0.4091
 9862TIP3    H251078   4.170   1.350   4.767 -0.7782 -0.0511  0.2405
 9863TIP3   OH251079   1.214   3.682   0.372 -0.4492 -0.2338  0.4756
 9863TIP3    H151080   1.238   3.614   0.309 -0.4426 -0.5742  0.8411
 9863TIP3    H251081   1.120   3.669   0.385 -1.0628  1.5857 -1.5479
 9864TIP3   OH251082   0.457   4.745   5.857 -0.4002 -0.1481 -0.2404
 9864TIP3    H151083   0.461   4.797   5.777 -1.8760  1.5949  0.7408
 9864TIP3    H251084   0.523   4.783   5.915  1.4033 -2.0676 -0.9157
 9865TIP3   OH251085   3.447   5.105  10.786 -0.5873  0.1623 -0.4613
 9865TIP3    H151086   3.489   5.124  10.869  1.0786 -2.5197 -0.5802
 9865TIP3    H251087   3.353   5.110  10.804 -0.2727 -0.9899  1.7851
 9866TIP3   OH251088   3.909   6.701   0.721  0.3679 -0.4086 -0.6442
 9866TIP3    H151089   3.940   6.790   0.737 -1.5237 -0.0947  1.8048
 9866TIP3    H251090   3.944   6.649   0.793 -1.9482 -0.6957  0.3705
 9867TIP3   OH251091   1.552   6.852  12.498 -0.2520  0.5934 -0.1039
 9867TIP3    H151092   1.508   6.805  12.428  0.3225  0.3430 -0.3052
 9867TIP3    H251093   1.571   6.938  12.461  1.8301 -0.1878 -0.9816
 9868TIP3   OH251094   2.494   0.556   2.356  0.6304 -0.0739  0.3841
 9868TIP3    H151095   2.440   0.577   2.280  2.4160 -0.0519 -0.9413
 9868TIP3    H251096   2.483   0.462   2.368 -0.2774  0.0523  0.6234
 9869TIP3   OH251097   0.772   7.059   5.458  0.0898 -0.0702  0.4028
 9869TIP3    H151098   0.703   7.124   5.443  0.7972  0.4938 -0.5106
 9869TIP3    H251099   0.812   7.046   5.372  0.1812 -1.4802  0.6421
 9870TIP3   OH251100   4.739   4.204  10.147  0.0986  0.7755  0.1015
 9870TIP3    H151101   4.794   4.236  10.076  1.1669 -0.5828  0.2627
 9870TIP3    H251102   4.663   4.262  10.147  0.2507  1.0368 -1.8898
 9871TIP3   OH251103   6.379   7.048   3.034 -0.8584 -0.1327  0.3879
 9871TIP3    H151104   6.405   6.957   3.019 -1.0901 -0.3094  1.0513
 9871TIP3    H251105   6.284   7.048   3.023 -0.7201  0.3210 -1.0399
 9872TIP3   OH251106   7.019   3.695   1.900 -0.2456 -0.4639  0.1044
 9872TIP3    H151107   7.086   3.737   1.847  0.8019  1.6497  2.8219
 9872TIP3    H251108   7.068   3.641   1.962 -0.9792  0.7657  1.8437
 9873TIP3   OH251109   1.979   6.822   0.749  0.1402  0.7236 -0.2812
 9873TIP3    H151110   1.990   6.744   0.694 -0.1542  1.4010 -1.3269
 9873TIP3    H251111   2.003   6.793   0.837  0.6375 -0.3810 -0.7651
 9874TIP3   OH251112   2.634   0.992  12.918  0.2195 -0.2223  0.2693
 9874TIP3    H151113   2.543   0.965  12.933  0.3529 -1.1450 -0.5182
 9874TIP3    H251114   2.632   1.088  12.925 -0.5797 -0.3049  1.4584
 9875TIP3   OH251115   3.067   4.318   0.354  0.7288 -0.4887  0.2413
 9875TIP3    H151116   2.975   4.316   0.328 -0.0750  0.8887  2.6657
 9875TIP3    H251117   3.090   4.225   0.365 -0.6183 -0.8393  0.3577
 9876TIP3   OH251118   3.198   3.926  12.504 -0.4360 -0.2029  0.1421
 9876TIP3    H151119   3.200   3.866  12.579 -0.6391  0.2277  0.4939
 9876TIP3    H251120   3.222   3.871  12.430  1.5790 -0.2541  0.7774
 9877TIP3   OH251121   3.787   1.647  14.008  0.1588 -0.2318  0.6520
 9877TIP3    H151122   3.837   1.592  13.948 -0.3755  0.6073 -0.6137
 9877TIP3    H251123   3.770   1.591  14.084  2.1194 -0.8536  0.6907
 9878TIP3   OH251124   5.416   6.164   4.509 -0.3648  0.1412 -0.0429
 9878TIP3    H151125   5.366   6.163   4.590  1.5283 -0.7283  1.1814
 9878TIP3    H251126   5.379   6.091   4.458  0.6076 -1.5142  1.5076
 9879TIP3   OH251127   5.454   6.237   2.908 -0.0622  0.1250  0.0686
 9879TIP3    H151128   5.457   6.279   2.993 -0.5031  1.9259 -0.7629
 9879TIP3    H251129   5.386   6.170   2.916  0.4149 -0.2233  1.3259
 9880TIP3   OH251130   0.015   6.968   9.585 -0.3676  0.1070  0.1256
 9880TIP3    H151131  -0.011   6.887   9.542 -1.0853  0.3067  0.1732
 9880TIP3    H251132   0.110   6.970   9.578 -0.2719 -1.1625  0.8872
 9881TIP3   OH251133   0.519   1.910  11.764 -0.3511  0.1285  0.1183
 9881TIP3    H151134   0.539   1.997  11.799  0.5407  1.1556 -2.6312
 9881TIP3    H251135   0.498   1.857  11.840  2.3411  1.8877  2.2896
 9882TIP3   OH251136   7.024   3.328  12.408  0.1864  0.1121  0.0040
 9882TIP3    H151137   6.967   3.368  12.342  1.0397  0.0304 -0.8130
 9882TIP3    H251138   7.041   3.399  12.470 -0.7889  0.1362  0.2584
 9883TIP3   OH251139   0.864   0.386  15.194  0.5289 -0.3562  0.3410
 9883TIP3    H151140   0.879   0.403  15.101  1.3380  1.6378  0.7949
 9883TIP3    H251141   0.782   0.336  15.196 -1.4478  2.4857 -1.3026
 9884TIP3   OH251142   4.307   6.232   5.462 -0.0117  0.4235 -0.8082
 9884TIP3    H151143   4.336   6.158   5.408 -1.8778 -2.1422  1.3993
 9884TIP3    H251144   4.313   6.199   5.552 -0.8136  3.0608  0.2941
 9885TIP3   OH251145   0.047   1.355   0.346 -0.5430  0.0830 -0.3715
 9885TIP3    H151146   0.112   1.290   0.373  0.2134  0.9106 -0.1330
 9885TIP3    H251147   0.056   1.425   0.410  0.0467  1.2944 -1.7282
 9886TIP3   OH251148   0.794   0.723   3.927  0.2866  0.1555 -0.6473
 9886TIP3    H151149   0.721   0.740   3.868 -1.5475  1.3135  1.7909
 9886TIP3    H251150   0.868   0.705   3.868 -1.5127  0.5921 -3.2463
 9887TIP3   OH251151   0.755   1.468   0.998  0.2941  0.4249 -0.0853
 9887TIP3    H151152   0.757   1.527   0.923 -0.7496 -2.0092 -2.1807
 9887TIP3    H251153   0.663   1.466   1.025  0.2613 -0.3934 -0.2216
 9888TIP3   OH251154   5.043   5.236  14.860  0.0526 -0.3576  0.6072
 9888TIP3    H151155   5.113   5.299  14.876  1.7330 -2.2415  0.9110
 9888TIP3    H251156   5.087   5.158  14.826 -2.1319 -0.8434 -1.3528
 9889TIP3   OH251157   4.198   4.696  11.346  0.4124 -0.7101 -0.0730
 9889TIP3    H151158   4.111   4.696  11.306 -1.8125 -2.8005  4.0811
 9889TIP3    H251159   4.253   4.650  11.283 -0.8910  1.9653 -3.5460
 9890TIP3   OH251160   2.238   4.689  13.653  0.2501 -0.1129  0.0110
 9890TIP3    H151161   2.176   4.655  13.588  0.1690 -1.9409  0.9812
 9890TIP3    H251162   2.282   4.761  13.609 -2.9540  1.6753 -0.5498
 9891TIP3   OH251163   2.005   7.012  14.301 -0.1000 -0.3972  0.0034
 9891TIP3    H151164   2.068   7.076  14.333 -0.1770 -0.4223  0.2061
 9891TIP3    H251165   2.059   6.938  14.272 -0.0430 -0.4937  0.3472
 9892TIP3   OH251166   6.857   6.941  13.645 -0.5602  0.0430 -0.2754
 9892TIP3    H151167   6.937   6.908  13.687 -0.0187  0.3951 -1.0016
 9892TIP3    H251168   6.818   6.999  13.710 -0.3120 -0.2571  0.1486
 9893TIP3   OH251169   3.248   3.825  12.049 -0.7051 -0.3855  0.9948
 9893TIP3    H151170   3.257   3.914  12.085 -1.5586 -0.5596  1.6938
 9893TIP3    H251171   3.241   3.838  11.955 -0.4877  0.2708  1.0620
 9894TIP3   OH251172   5.768   4.227  12.607 -0.1489 -0.3898  0.2809
 9894TIP3    H151173   5.699   4.238  12.672  0.0664 -0.8503  0.6023
 9894TIP3    H251174   5.848   4.253  12.653  0.1028 -1.3875  0.4439
 9895TIP3   OH251175   6.701   0.371   1.040  0.7892 -0.7085 -0.1373
 9895TIP3    H151176   6.762   0.304   1.071  0.2001 -0.4843  1.5672
 9895TIP3    H251177   6.753   0.423   0.978  1.9742 -1.2450  0.3752
 9896TIP3   OH251178   3.281   0.664  12.924 -0.1544  0.0723 -0.5877
 9896TIP3    H151179   3.247   0.612  12.996  0.9174  1.0924  0.7223
 9896TIP3    H251180   3.310   0.600  12.859  2.1981 -1.1014  1.4525
 9897TIP3   OH251181   0.066   4.832   0.581  0.7831  0.0531  0.0835
 9897TIP3    H151182   0.111   4.789   0.508 -0.2172 -1.9293  0.5662
 9897TIP3    H251183   0.058   4.923   0.553  0.1731 -0.6834 -2.4174
 9898TIP3   OH251184   5.584   4.373  11.300 -0.3555  0.7856 -0.2421
 9898TIP3    H151185   5.535   4.305  11.346  1.7129  0.7850  2.1885
 9898TIP3    H251186   5.566   4.357  11.207 -1.3328 -1.9986  0.3404
 9899TIP3   OH251187   2.506   0.840   5.872  0.2045  0.1157 -0.2227
 9899TIP3    H151188   2.597   0.824   5.897  0.7428  2.1866 -0.6545
 9899TIP3    H251189   2.479   0.914   5.927 -1.1964 -0.3809 -0.1928
 9900TIP3   OH251190   2.153   2.737  14.266 -0.4908 -0.3920  0.2721
 9900TIP3    H151191   2.145   2.661  14.209  0.0001 -1.4228  1.5104
 9900TIP3    H251192   2.207   2.706  14.339 -0.2798  1.1543  0.8046
 9901TIP3   OH251193   4.526   0.967   4.291  0.1021 -0.2099 -0.0872
 9901TIP3    H151194   4.523   0.915   4.371  0.0275 -1.0799 -0.6415
 9901TIP3    H251195   4.435   0.974   4.263  0.1055  0.2714  0.0119
 9902TIP3   OH251196   6.041   4.453   3.469 -0.6465 -1.6376  0.6728
 9902TIP3    H151197   6.071   4.371   3.428  1.8683  0.5627 -2.3515
 9902TIP3    H251198   5.988   4.495   3.401  0.3999  0.4197  1.0596
 9903TIP3   OH251199   0.319   3.187  13.705  0.0850  0.1232  0.1120
 9903TIP3    H151200   0.224   3.193  13.692  0.0244  1.1044  0.8773
 9903TIP3    H251201   0.355   3.183  13.616 -0.7436 -2.1690 -0.1923
 9904TIP3   OH251202   0.505   1.834   1.462 -0.3612 -0.1016  0.7329
 9904TIP3    H151203   0.439   1.819   1.393  1.0052  0.8634 -0.8585
 9904TIP3    H251204   0.466   1.901   1.518 -0.0723  1.8183 -1.2381
 9905TIP3   OH251205   1.826   0.241   3.818  0.0499 -0.0204 -0.7293
 9905TIP3    H151206   1.733   0.223   3.809  0.0092  1.1627 -3.3147
 9905TIP3    H251207   1.831   0.335   3.837  0.7315 -0.0102 -0.9283
 9906TIP3   OH251208   5.041   4.796  11.984  0.3399 -0.4148 -0.1260
 9906TIP3    H151209   5.036   4.891  11.993 -1.1212 -0.3397 -1.4239
 9906TIP3    H251210   5.078   4.766  12.068 -1.6417  1.0764  1.3775
 9907TIP3   OH251211   4.584   1.382   1.727  0.4553 -0.3489  0.1023
 9907TIP3    H151212   4.586   1.302   1.780  0.8182  0.6770  1.7219
 9907TIP3    H251213   4.675   1.413   1.727 -0.1926  1.8769  2.4990
 9908TIP3   OH251214   3.462   5.174   4.032 -0.1277 -0.3442  0.7156
 9908TIP3    H151215   3.425   5.219   3.957  2.5324  1.2518  0.2322
 9908TIP3    H251216   3.411   5.205   4.107 -1.6293 -0.5445 -0.2059
 9909TIP3   OH251217   4.981   6.366  14.635  0.6833 -0.3589 -0.0178
 9909TIP3    H151218   5.020   6.412  14.561  2.0305  0.3413  1.0675
 9909TIP3    H251219   4.947   6.436  14.691 -1.7677 -0.9362 -0.6846
 9910TIP3   OH251220   5.712   1.419   9.324 -0.1234  0.0850 -0.5005
 9910TIP3    H151221   5.794   1.463   9.300 -0.1119  0.7459  0.6561
 9910TIP3    H251222   5.660   1.486   9.366  0.0967 -1.0602  1.7819
 9911TIP3   OH251223   1.437   0.647   2.437 -0.0143 -0.4458 -0.2011
 9911TIP3    H151224   1.436   0.713   2.506  0.7940 -0.7291  0.0884
 9911TIP3    H251225   1.511   0.590   2.459  0.5989 -0.2211 -1.5924
 9912TIP3   OH251226   1.580   2.811   3.187 -0.7496  0.4447 -0.6073
 9912TIP3    H151227   1.625   2.827   3.270  0.5722  0.9219 -1.3756
 9912TIP3    H251228   1.587   2.716   3.174  2.0574  0.7127 -1.7365
 9913TIP3   OH251229   0.950   6.064   0.701 -0.4979 -0.4357 -0.2375
 9913TIP3    H151230   0.955   6.050   0.795 -0.3275 -0.1580 -0.2044
 9913TIP3    H251231   0.871   6.017   0.674 -0.5017 -0.5837  0.0303
 9914TIP3   OH251232   5.094   3.533   1.764  0.2481  0.4520  0.4177
 9914TIP3    H151233   5.165   3.468   1.757  0.8714  1.0393  1.1064
 9914TIP3    H251234   5.101   3.585   1.684 -1.6784 -1.6685 -1.2712
 9915TIP3   OH251235   3.650   4.975   3.387 -0.0663  0.1379 -0.4090
 9915TIP3    H151236   3.734   4.994   3.429 -0.8600  0.8969  0.9214
 9915TIP3    H251237   3.607   5.060   3.380 -1.2457 -0.3851  0.1286
 9916TIP3   OH251238   6.224   5.476   4.699 -0.3519  0.1839  0.2211
 9916TIP3    H151239   6.165   5.550   4.685 -0.1369  0.2042 -0.5870
 9916TIP3    H251240   6.181   5.425   4.768 -1.0003  0.5314  0.0837
 9917TIP3   OH251241   1.895   2.704   3.840  0.2081 -0.3022 -0.7100
 9917TIP3    H151242   1.976   2.659   3.817  0.7898  0.5205 -0.3047
 9917TIP3    H251243   1.915   2.750   3.921 -1.0897 -1.1795  0.1426
 9918TIP3   OH251244   0.993   0.238  12.233  0.3490 -0.0407 -0.1800
 9918TIP3    H151245   0.983   0.210  12.143  0.3936  1.7531 -0.7809
 9918TIP3    H251246   0.905   0.265  12.260  0.4271 -0.1033  0.1532
 9919TIP3   OH251247   5.791   3.940  11.992  0.0446 -0.6939 -0.1918
 9919TIP3    H151248   5.763   4.031  12.002  0.7071 -0.2610 -1.8478
 9919TIP3    H251249   5.715   3.888  12.019  0.0966  0.2996  2.0034
 9920TIP3   OH251250   5.903   6.813   4.629  0.4126  0.0644  0.6449
 9920TIP3    H151251   5.994   6.840   4.620  0.3441  0.6818  1.6762
 9920TIP3    H251252   5.906   6.732   4.680  0.5351 -1.3751 -1.4975
 9921TIP3   OH251253   6.979   1.772   0.647 -0.0790  0.0025 -0.2728
 9921TIP3    H151254   6.982   1.744   0.555  1.5721 -0.3949 -0.1184
 9921TIP3    H251255   7.053   1.728   0.688 -2.0704 -1.6064  1.7994
 9922TIP3   OH251256   1.620   1.279  14.450 -0.4106 -0.6320  0.2961
 9922TIP3    H151257   1.550   1.322  14.400  1.4722 -0.2898 -2.2140
 9922TIP3    H251258   1.598   1.298  14.542 -2.1144  1.8024 -0.5002
 9923TIP3   OH251259   6.135   2.079   1.184 -0.2922 -0.6139 -0.5001
 9923TIP3    H151260   6.185   2.100   1.105  0.1947 -1.1375 -0.3388
 9923TIP3    H251261   6.145   1.985   1.194 -1.1683 -0.6997 -0.3552
 9924TIP3   OH251262   4.074   0.424   1.194  0.4633 -0.0531  0.6535
 9924TIP3    H151263   4.096   0.516   1.179  1.3832 -0.1942  1.0595
 9924TIP3    H251264   4.114   0.404   1.279 -2.3283  0.0076  2.0973
 9925TIP3   OH251265   6.529   6.346  10.025 -0.5092 -0.5668 -0.0355
 9925TIP3    H151266   6.599   6.320   9.965 -1.4828  0.1324 -1.5226
 9925TIP3    H251267   6.452   6.296   9.995 -1.9404  2.3880 -1.7583
 9926TIP3   OH251268   3.024   3.271  11.805 -0.3717  0.6084 -0.1530
 9926TIP3    H151269   3.074   3.342  11.844 -0.5400 -0.5033  2.2849
 9926TIP3    H251270   2.933   3.296  11.817 -0.4767 -0.5949  2.1074
 9927TIP3   OH251271   5.563   4.112  10.745 -0.1411  0.3427  0.2191
 9927TIP3    H151272   5.469   4.096  10.750 -0.0446  0.0331  1.4700
 9927TIP3    H251273   5.577   4.191  10.797  0.6666 -1.5547  3.1745
 9928TIP3   OH251274   5.000   1.522   9.605  0.1299 -0.4763  0.0831
 9928TIP3    H151275   4.987   1.548   9.696  0.4359  0.9250 -0.2465
 9928TIP3    H251276   4.932   1.458   9.588  0.2557 -0.9722  1.3826
 9929TIP3   OH251277   6.276   5.097   3.483 -0.0173  0.0408 -0.0417
 9929TIP3    H151278   6.343   5.110   3.416 -1.4680 -1.8313 -1.9716
 9929TIP3    H251279   6.323   5.057   3.556  1.6526  2.3555  0.2941
 9930TIP3   OH251280   5.242   4.654  13.909  0.0029 -0.2049  0.1610
 9930TIP3    H151281   5.277   4.683  13.825  0.1225  0.4484  0.4366
 9930TIP3    H251282   5.196   4.730  13.944 -1.7953 -1.0643 -0.2307
 9931TIP3   OH251283   1.246   5.102  11.100 -0.1384 -0.3546  0.1605
 9931TIP3    H151284   1.181   5.033  11.112 -0.2054 -0.5610 -1.1762
 9931TIP3    H251285   1.279   5.120  11.188 -0.9470 -1.2765  0.6740
 9932TIP3   OH251286   1.148   5.831   9.638 -0.2763 -0.8484  0.4082
 9932TIP3    H151287   1.111   5.755   9.683  1.1143 -0.6836  1.8867
 9932TIP3    H251288   1.234   5.801   9.608 -0.4635 -0.4011 -0.6205
 9933TIP3   OH251289   4.848   1.861  13.919 -0.1835  0.2788  0.2459
 9933TIP3    H151290   4.774   1.859  13.979 -0.5270 -0.4053 -0.1933
 9933TIP3    H251291   4.859   1.770  13.891  2.8292 -0.2890  2.7236
 9934TIP3   OH251292   1.701   2.136  14.925 -0.4363 -0.0847  0.7141
 9934TIP3    H151293   1.661   2.053  14.951 -0.4547  0.4784  2.6483
 9934TIP3    H251294   1.631   2.201  14.936  0.5217  0.6934  2.7641
 9935TIP3   OH251295   5.505   2.374  10.402 -0.5649 -0.1958  0.4672
 9935TIP3    H151296   5.498   2.278  10.407  1.4582 -0.4168  0.1724
 9935TIP3    H251297   5.454   2.397  10.324 -0.5920 -1.1105  0.1940
 9936TIP3   OH251298   5.909   6.094   4.128 -0.6976  1.0179 -0.6070
 9936TIP3    H151299   5.826   6.054   4.154 -1.0275  1.9854 -0.1143
 9936TIP3    H251300   5.884   6.166   4.070 -0.1643  0.9552 -0.9261
 9937TIP3   OH251301   6.812   0.874   2.250  0.0032  0.6778  0.0862
 9937TIP3    H151302   6.808   0.936   2.177 -0.1667  0.9775  0.3460
 9937TIP3    H251303   6.829   0.929   2.327 -0.8798  0.4876  0.4253
 9938TIP3   OH251304   1.576   5.726  13.445 -0.0474 -0.0432 -0.3667
 9938TIP3    H151305   1.653   5.670  13.451  0.4620  0.3945 -2.1622
 9938TIP3    H251306   1.558   5.732  13.351  0.4638  3.4758 -0.3784
 9939TIP3   OH251307   5.062   4.780   2.590 -0.1464 -0.3476  0.5323
 9939TIP3    H151308   5.124   4.802   2.660 -0.0686  3.2220 -0.4629
 9939TIP3    H251309   5.116   4.738   2.523  0.9486  1.2327  0.3597
 9940TIP3   OH251310   3.237   0.554   3.050  0.4970 -0.4596  0.3492
 9940TIP3    H151311   3.274   0.544   3.138  1.6622 -0.9064 -0.1775
 9940TIP3    H251312   3.297   0.612   3.005 -1.3664  1.7590  0.5443
 9941TIP3   OH251313   4.272   2.601  10.841 -0.4697  0.2330 -0.0758
 9941TIP3    H151314   4.269   2.565  10.753 -2.8214  0.6326 -0.2411
 9941TIP3    H251315   4.296   2.527  10.897  1.2896  0.0422 -1.0477
 9942TIP3   OH251316   1.650   2.968  15.263  0.4660 -0.4399  0.1207
 9942TIP3    H151317   1.620   3.059  15.260 -0.1810 -0.5928  1.2684
 9942TIP3    H251318   1.576   2.917  15.229  0.1984 -0.6528  0.9955
 9943TIP3   OH251319   2.436   1.111   5.967 -0.4280  0.4043  0.0684
 9943TIP3    H151320   2.499   1.174   6.004 -0.4868  0.7569 -0.4162
 9943TIP3    H251321   2.351   1.148   5.987 -0.4785  0.0569  0.5000
 9944TIP3   OH251322   6.566   1.056  13.763  0.0332  0.3844  0.4976
 9944TIP3    H151323   6.556   1.123  13.695 -1.7917  1.8156  2.0713
 9944TIP3    H251324   6.507   0.986  13.737  0.9856 -0.0958 -0.4793
 9945TIP3   OH251325   6.562   4.472  10.510 -0.2287  0.3969  0.0995
 9945TIP3    H151326   6.630   4.454  10.576  0.1270  1.1063 -0.0586
 9945TIP3    H251327   6.600   4.541  10.456 -1.3120  1.2185  0.3581
 9946TIP3   OH251328   4.100   6.935   1.878 -0.1778  0.5966  0.0913
 9946TIP3    H151329   4.188   6.899   1.891 -0.8281 -0.6105  1.5592
 9946TIP3    H251330   4.106   6.988   1.799  1.1477 -1.8940 -1.6052
 9947TIP3   OH251331   1.681   4.738   5.813  0.0139 -0.5165  0.3690
 9947TIP3    H151332   1.668   4.768   5.724  0.3034  0.0390  0.5041
 9947TIP3    H251333   1.644   4.807   5.868 -1.6663 -1.6013  0.6806
 9948TIP3   OH251334   0.571   5.529   3.996  0.2746  0.0075 -0.2276
 9948TIP3    H151335   0.549   5.621   3.977 -0.9310 -0.1152  0.4389
 9948TIP3    H251336   0.491   5.494   4.036  0.8603 -1.2297 -0.1121
 9949TIP3   OH251337   0.269   6.857  14.080  0.0260 -0.2011 -0.7665
 9949TIP3    H151338   0.210   6.933  14.074 -0.4915 -0.4186  1.0786
 9949TIP3    H251339   0.211   6.782  14.072  0.2035 -0.4101 -0.1323
 9950TIP3   OH251340   0.058   5.723  11.299 -0.1890 -0.2485  0.2385
 9950TIP3    H151341   0.049   5.695  11.208  0.6132  1.6753 -0.4935
 9950TIP3    H251342  -0.026   5.762  11.321 -0.5424 -1.1320  0.5056
 9951TIP3   OH251343   2.892   4.364  14.337  0.0493 -0.7957 -0.1735
 9951TIP3    H151344   2.935   4.378  14.421  1.3884  0.7225 -1.0508
 9951TIP3    H251345   2.802   4.395  14.350  0.5483  0.4444  0.4164
 9952TIP3   OH251346   5.451   5.323  12.179 -0.1489 -0.3688  0.2859
 9952TIP3    H151347   5.495   5.299  12.261  2.3979  1.3725 -0.4151
 9952TIP3    H251348   5.434   5.417  12.188  0.3416 -0.1086 -1.2076
 9953TIP3   OH251349   3.496   2.195   4.414 -0.1027 -0.5053  0.5477
 9953TIP3    H151350   3.569   2.133   4.423 -0.3939 -1.1438 -1.0426
 9953TIP3    H251351   3.446   2.161   4.340  0.0516  1.9449 -0.7978
 9954TIP3   OH251352   1.849   2.653  14.087 -0.3014  0.2913 -0.4818
 9954TIP3    H151353   1.876   2.745  14.086  1.2132 -0.0459  1.8797
 9954TIP3    H251354   1.897   2.614  14.014 -1.4425  1.4384 -1.9095
 9955TIP3   OH251355   4.927   6.441  11.127  0.0574 -0.1664  0.0349
 9955TIP3    H151356   5.016   6.412  11.105 -0.4901 -1.1919 -0.8951
 9955TIP3    H251357   4.920   6.527  11.085  0.2048 -0.6224 -0.9719
 9956TIP3   OH251358   0.531   4.288   0.049  0.3688  0.0976  0.5142
 9956TIP3    H151359   0.483   4.234   0.112 -2.2264 -0.8089 -2.0374
 9956TIP3    H251360   0.572   4.225  -0.010  0.5911  0.8955 -0.2053
 9957TIP3   OH251361   3.701   5.165  12.778  0.3758  0.0039 -0.3504
 9957TIP3    H151362   3.761   5.096  12.809 -1.8142 -2.1217 -0.6020
 9957TIP3    H251363   3.654   5.192  12.857  0.0992  0.0574 -0.5333
 9958TIP3   OH251364   6.831   4.396   9.544  0.4185  0.0603  0.1523
 9958TIP3    H151365   6.754   4.452   9.558  0.8559  0.6582  0.1872
 9958TIP3    H251366   6.819   4.323   9.605 -0.0571  0.2122  0.2470
 9959TIP3   OH251367   3.142   3.700   1.931 -0.3250 -0.2233 -0.4523
 9959TIP3    H151368   3.164   3.608   1.917  0.7915  0.3416 -3.1382
 9959TIP3    H251369   3.048   3.705   1.917 -0.1243 -0.7088 -2.1271
 9960TIP3   OH251370   0.181   1.067   4.698 -0.5252  0.2650 -0.2396
 9960TIP3    H151371   0.238   1.084   4.773 -0.3426  0.2767 -0.3797
 9960TIP3    H251372   0.195   0.975   4.677  2.3783  1.0741 -2.6512
 9961TIP3   OH251373   6.596   4.342   1.222  0.1925  0.2848 -0.1741
 9961TIP3    H151374   6.687   4.324   1.245  0.0091  0.6643  0.9684
 9961TIP3    H251375   6.582   4.432   1.252 -1.2396 -0.5756  2.0532
 9962TIP3   OH251376   1.354   6.256   3.843 -0.4199  0.0255 -0.1871
 9962TIP3    H151377   1.428   6.196   3.841 -1.2252 -0.9984 -0.6553
 9962TIP3    H251378   1.389   6.339   3.812  0.7270 -0.1911  0.4840
 9963TIP3   OH251379   2.970   0.507   2.830  0.0185  0.4389  0.3651
 9963TIP3    H151380   3.056   0.528   2.791 -0.4662 -1.5520 -2.0026
 9963TIP3    H251381   2.913   0.578   2.800  0.7742  1.8039  1.9916
 9964TIP3   OH251382   1.867   6.190  12.573  0.3097  0.2924 -0.1558
 9964TIP3    H151383   1.959   6.169  12.593  0.3054  1.5549  1.3773
 9964TIP3    H251384   1.867   6.283  12.553 -0.4968  0.0650 -1.3053
 9965TIP3   OH251385   6.063   1.818   5.499  0.0767 -0.1112 -0.0405
 9965TIP3    H151386   6.036   1.843   5.411  0.6918 -3.3498 -1.2739
 9965TIP3    H251387   6.158   1.825   5.498  0.0767 -0.0191  0.4193
 9966TIP3   OH251388   3.091   5.408  10.534  0.6015  0.4523 -0.4731
 9966TIP3    H151389   3.174   5.374  10.569  0.1641 -0.6086 -0.4424
 9966TIP3    H251390   3.052   5.334  10.489  0.3650  1.3505 -1.8152
 9967TIP3   OH251391   0.213   1.948   4.275 -0.2420  0.2758  0.0400
 9967TIP3    H151392   0.199   2.026   4.328 -0.0078  0.5141 -0.2462
 9967TIP3    H251393   0.292   1.908   4.311 -0.1752  0.3495 -0.0246
 9968TIP3   OH251394   0.732   3.424   3.253 -0.2548 -0.1898  0.4417
 9968TIP3    H151395   0.773   3.509   3.236 -0.6894  0.3085  1.7528
 9968TIP3    H251396   0.641   3.435   3.225  0.1288 -0.8621 -1.1867
 9969TIP3   OH251397   2.759   0.354   1.430 -0.3652 -0.1228 -0.0651
 9969TIP3    H151398   2.741   0.270   1.387  0.7580  0.2739 -1.3710
 9969TIP3    H251399   2.854   0.366   1.420 -0.6216  1.7018 -0.6693
 9970TIP3   OH251400   1.078   4.970  14.454  0.3144 -0.5866  0.3073
 9970TIP3    H151401   1.097   5.063  14.466  0.6787 -0.8205  1.6197
 9970TIP3    H251402   1.075   4.959  14.359  1.1228  0.5901  0.1209
 9971TIP3   OH251403   6.246   3.921  11.539  0.2816 -0.2148  0.6124
 9971TIP3    H151404   6.204   3.999  11.503 -1.0173 -1.3813 -0.4666
 9971TIP3    H251405   6.338   3.929  11.513 -0.0680  0.3921 -0.4749
 9972TIP3   OH251406   6.815   2.606   2.662 -0.8404 -0.1092 -0.1277
 9972TIP3    H151407   6.905   2.606   2.628 -1.2138  0.5457 -1.1775
 9972TIP3    H251408   6.821   2.561   2.746  0.4693 -0.0813 -0.1826
 9973TIP3   OH251409   5.348   4.399   5.374 -0.2618 -0.2305 -0.5772
 9973TIP3    H151410   5.292   4.401   5.452  0.4401 -2.6158  0.0759
 9973TIP3    H251411   5.302   4.452   5.310 -0.3042  2.8890  1.7811
 9974TIP3   OH251412   3.498   2.086  15.210 -0.0515 -0.4959  0.1629
 9974TIP3    H151413   3.559   2.026  15.167  1.3068  1.7669 -1.2879
 9974TIP3    H251414   3.549   2.123  15.282 -1.6918 -2.7905  2.7282
 9975TIP3   OH251415   5.038   0.039   3.636 -0.4721 -0.2289 -0.0035
 9975TIP3    H151416   5.097   0.012   3.566 -0.0594 -0.9753  0.6038
 9975TIP3    H251417   5.050  -0.028   3.704 -1.7049 -0.1628  0.3104
 9976TIP3   OH251418   1.479   4.310  14.339  0.2470 -0.5346  0.3859
 9976TIP3    H151419   1.545   4.374  14.310 -0.4171  0.3157  0.6899
 9976TIP3    H251420   1.519   4.267  14.414  1.6436 -2.1600 -1.1978
 9977TIP3   OH251421   6.835   1.687   4.093  0.1017 -0.0263 -0.4539
 9977TIP3    H151422   6.851   1.618   4.029 -1.2314  0.5335 -1.4286
 9977TIP3    H251423   6.740   1.687   4.105  0.2267  0.6545  0.6641
 9978TIP3   OH251424   2.007   3.183   5.060  0.3738  0.1899 -0.1457
 9978TIP3    H151425   2.086   3.143   5.095  0.7526 -0.5355 -1.7309
 9978TIP3    H251426   1.978   3.243   5.129  0.7324 -1.5420  1.6186
 9979TIP3   OH251427   5.449   4.722  12.958  0.0854  0.3055 -0.5325
 9979TIP3    H151428   5.472   4.638  12.919  0.5841 -1.2058  2.6380
 9979TIP3    H251429   5.356   4.734  12.937 -0.4302 -1.8951  0.2096
 9980TIP3   OH251430   7.090   6.938  12.074  0.4683  0.7036  0.3015
 9980TIP3    H151431   7.028   6.874  12.041  4.3095 -3.1911 -0.1982
 9980TIP3    H251432   7.067   6.948  12.166 -1.1787 -0.1420  0.0292
 9981TIP3   OH251433   3.484   5.434   3.205 -0.0533  0.1724  0.3063
 9981TIP3    H151434   3.484   5.529   3.214  3.8598  0.5337 -1.5898
 9981TIP3    H251435   3.429   5.417   3.128  1.7355  1.3085 -1.3074
 9982TIP3   OH251436   5.095   1.162  10.581  0.4217 -0.0559  0.2669
 9982TIP3    H151437   5.144   1.212  10.516 -1.5988 -0.1732 -1.4243
 9982TIP3    H251438   5.035   1.226  10.620 -1.3518 -0.8322 -1.0745
 9983TIP3   OH251439   1.055   4.168  14.118 -0.0416  0.2628  0.7941
 9983TIP3    H151440   1.020   4.235  14.176 -0.2847 -0.7570  1.8783
 9983TIP3    H251441   1.116   4.214  14.061 -1.0327  1.5913  0.7453
 9984TIP3   OH251442   0.819   5.425   5.224 -0.0359 -0.5346 -0.3540
 9984TIP3    H151443   0.742   5.409   5.278 -0.0514  0.3036 -0.1091
 9984TIP3    H251444   0.805   5.372   5.146 -0.9200 -0.3155 -0.3581
 9985TIP3   OH251445   6.865   6.318  14.355 -0.8230  0.3144  0.0893
 9985TIP3    H151446   6.824   6.396  14.394 -0.9873 -0.4640  1.5360
 9985TIP3    H251447   6.793   6.259  14.338 -0.5775 -0.0122  0.1714
 9986TIP3   OH251448   3.297   1.189   4.233 -0.3317 -0.1134  0.1150
 9986TIP3    H151449   3.354   1.266   4.242  0.5345 -0.1503 -3.3524
 9986TIP3    H251450   3.209   1.221   4.253  0.3437  1.0552  1.3574
 9987TIP3   OH251451   2.662   2.940  14.551  0.0495 -0.2445  0.2308
 9987TIP3    H151452   2.674   2.852  14.585 -1.9024 -0.4486  0.5065
 9987TIP3    H251453   2.567   2.950  14.543  0.0820  2.4556  1.9454
 9988TIP3   OH251454   1.057   4.287  11.345 -0.3961 -0.6550  0.2726
 9988TIP3    H151455   1.105   4.232  11.284 -0.5169  0.0080 -0.4360
 9988TIP3    H251456   0.966   4.280  11.318 -0.3593  0.2268 -0.0938
 9989TIP3   OH251457   2.258   5.617  15.136 -0.1025  0.5935 -0.3581
 9989TIP3    H151458   2.177   5.600  15.185 -0.1400  2.0735  0.1458
 9989TIP3    H251459   2.328   5.609  15.201  0.3178 -1.6377 -0.9817
 9990TIP3   OH251460   2.789   5.301   0.798  0.1651 -0.3976 -0.1128
 9990TIP3    H151461   2.698   5.287   0.772 -0.3006  0.6647  0.8941
 9990TIP3    H251462   2.812   5.386   0.759  0.2381  0.0439  0.8725
 9991TIP3   OH251463   2.759   7.130  14.752 -0.6550 -0.2579 -0.1991
 9991TIP3    H151464   2.822   7.058  14.746  1.6808  1.6740 -0.4513
 9991TIP3    H251465   2.707   7.111  14.830  0.5472 -1.7152  0.2817
 9992TIP3   OH251466   0.225   1.459   0.551 -0.2327  0.3877 -0.2472
 9992TIP3    H151467   0.147   1.432   0.600 -0.0980  0.0387 -0.2153
 9992TIP3    H251468   0.282   1.499   0.617 -0.5494  1.0090 -0.3455
 9993TIP3   OH251469   6.215   7.007   1.413  0.6298  0.0673  0.1668
 9993TIP3    H151470   6.151   7.002   1.342 -0.5326 -0.6553  1.2358
 9993TIP3    H251471   6.272   6.932   1.399  1.2532  0.6757 -0.7460
 9994TIP3   OH251472   1.592   3.641   3.153 -0.1082  0.1612  0.0708
 9994TIP3    H151473   1.687   3.640   3.164  0.0538  1.3966 -0.8945
 9994TIP3    H251474   1.576   3.594   3.072 -0.1359  1.3898 -0.6648
 9995TIP3   OH251475   1.143   6.566  14.579  0.4741  0.4319  0.2996
 9995TIP3    H151476   1.180   6.535  14.662 -0.8378 -0.0079  0.7412
 9995TIP3    H251477   1.173   6.503  14.514 -1.4213 -1.3544  1.0419
 9996TIP3   OH251478   6.751   1.440  15.568 -0.1071  0.5605  0.3363
 9996TIP3    H151479   6.692   1.488  15.626  0.0719 -0.4262  1.3721
 9996TIP3    H251480   6.825   1.498  15.555 -1.0226  1.5891 -0.5228
 9997TIP3   OH251481   2.094   6.084   1.402 -0.2829  0.2792  0.1060
 9997TIP3    H151482   2.135   6.008   1.362 -1.5819 -0.3809 -0.0321
 9997TIP3    H251483   2.164   6.150   1.406  0.6624 -0.6584 -0.4539
 9998TIP3   OH251484   2.148   0.289   1.169 -0.5381  0.0078 -0.8590
 9998TIP3    H151485   2.072   0.242   1.135 -0.6338 -0.5198  0.0537
 9998TIP3    H251486   2.217   0.223   1.176 -0.9783 -0.2884  1.4255
 9999TIP3   OH251487   2.567   2.484  15.467 -0.2916  0.5838 -0.5812
 9999TIP3    H151488   2.637   2.495  15.402 -0.7373 -0.2545 -1.2203
 9999TIP3    H251489   2.583   2.398  15.506 -1.4675 -0.0255 -1.3827
10000TIP3   OH251490   1.577   2.000  12.152  0.1255  0.2502  0.6321
10000TIP3    H151491   1.570   2.035  12.063  2.7458  1.3281  0.7552
10000TIP3    H251492   1.491   2.016  12.191 -1.3592 -0.9728 -1.8851
10001TIP3   OH251493   3.132   0.402  10.076 -0.0280 -0.4105  0.4645
10001TIP3    H151494   3.184   0.398   9.995 -0.7405 -1.1993  0.0338
10001TIP3    H251495   3.106   0.311  10.092  1.7327 -0.6172  2.6703
10002TIP3   OH251496   5.046   6.122  13.960 -0.1623 -0.0842  0.4230
10002TIP3    H151497   5.004   6.203  13.932  0.3275  0.3937  1.0308
10002TIP3    H251498   5.108   6.102  13.890  1.1803  1.1985  1.1934
10003TIP3   OH251499   2.957   5.069  11.793  0.5006 -0.3544  0.1439
10003TIP3    H151500   2.981   5.045  11.703 -0.3633 -0.9960  0.0726
10003TIP3    H251501   3.036   5.051  11.844  1.9171  2.4939 -0.8393
10004TIP3   OH251502   0.087   5.209   2.052 -0.4812  0.5319  0.8024
10004TIP3    H151503   0.080   5.121   2.088  2.5089 -1.0430 -1.9449
10004TIP3    H251504   0.022   5.211   1.982  0.9147 -0.3755 -0.5658
10005TIP3   OH251505   4.298   1.330   3.157  0.0455  0.7234 -0.2973
10005TIP3    H151506   4.210   1.299   3.138 -2.2053  4.7926  2.1004
10005TIP3    H251507   4.317   1.393   3.087 -0.3829  2.1429  0.8156
10006TIP3   OH251508   3.229   1.355  14.448  0.6850 -0.3116 -0.1177
10006TIP3    H151509   3.303   1.340  14.507  0.7207  0.0355 -0.0717
10006TIP3    H251510   3.186   1.433  14.484  0.3086 -0.4958 -0.1552
10007TIP3   OH251511   4.928   0.856  13.322 -0.0781 -0.1899 -0.2301
10007TIP3    H151512   5.019   0.847  13.350 -0.7294 -1.2307  1.7035
10007TIP3    H251513   4.924   0.944  13.285  1.1206  0.9278  2.0853
10008TIP3   OH251514   1.695   4.144   0.727  0.7810 -0.0030 -0.1873
10008TIP3    H151515   1.639   4.071   0.755  0.0826 -0.5218 -2.6552
10008TIP3    H251516   1.754   4.159   0.801 -2.3122  0.3147  2.4482
10009TIP3   OH251517   0.796   0.835   6.150  0.4712 -0.2389  0.1430
10009TIP3    H151518   0.875   0.794   6.115  0.6878  1.1874 -1.1100
10009TIP3    H251519   0.822   0.925   6.168 -0.9036  0.2919 -0.4224
10010TIP3   OH251520   3.688   6.716   0.902 -0.1037 -0.3366 -0.5372
10010TIP3    H151521   3.738   6.708   0.821 -1.7988 -0.3175 -1.6337
10010TIP3    H251522   3.754   6.723   0.970  1.3856  0.2012 -1.9686
10011TIP3   OH251523   4.307   1.712  13.579  0.1558  0.6388 -0.1033
10011TIP3    H151524   4.270   1.736  13.664  0.4729 -0.1967  0.2790
10011TIP3    H251525   4.243   1.743  13.515 -0.1777  1.0997  0.4464
10012TIP3   OH251526   0.679   1.531   0.414  0.4476 -0.2607 -0.2493
10012TIP3    H151527   0.679   1.455   0.471 -0.5323 -2.7048 -3.2621
10012TIP3    H251528   0.598   1.578   0.436  0.3633 -0.8095  0.6735
10013TIP3   OH251529   4.654   7.110   5.158  0.2867 -0.3792  0.3471
10013TIP3    H151530   4.703   7.035   5.191  0.1121 -0.4448  0.4641
10013TIP3    H251531   4.581   7.120   5.220  0.3303 -0.0905  0.3558
10014TIP3   OH251532   3.803   0.829  10.784  0.1111  0.9149  0.4323
10014TIP3    H151533   3.749   0.768  10.733  0.6968 -0.4099  1.3253
10014TIP3    H251534   3.890   0.822  10.745  0.7893 -0.8288  2.1187
10015TIP3   OH251535   5.238   1.186   1.490  0.2510 -0.2690 -0.1105
10015TIP3    H151536   5.194   1.103   1.469  1.7377 -1.6013  1.7070
10015TIP3    H251537   5.315   1.187   1.434 -0.3486  0.4899 -0.9565
10016TIP3   OH251538   0.431   2.886  11.198 -0.7920 -0.3411 -0.1538
10016TIP3    H151539   0.513   2.926  11.226 -1.3790  1.0691 -0.3561
10016TIP3    H251540   0.421   2.809  11.253  0.3759 -0.2003  0.2765
10017TIP3   OH251541   6.081   0.806   0.488  0.3636 -0.1345 -0.4022
10017TIP3    H151542   6.031   0.885   0.508  0.6327  0.3128 -1.4263
10017TIP3    H251543   6.020   0.750   0.441 -0.3149 -1.2492  1.6664
10018TIP3   OH251544   4.273   6.905   5.187 -0.0598  0.0609  0.0646
10018TIP3    H151545   4.283   6.823   5.234  0.6552 -0.8145 -1.5574
10018TIP3    H251546   4.318   6.970   5.242 -1.4966 -0.4011  1.8497
10019TIP3   OH251547   2.268   2.648  14.495 -0.2810  0.5435 -0.1623
10019TIP3    H151548   2.216   2.569  14.512 -0.1592  0.5537  0.2624
10019TIP3    H251549   2.327   2.655  14.570  0.5966  0.3345 -0.8182
10020TIP3   OH251550   6.596   6.144  13.333 -0.1717  0.0311  0.1795
10020TIP3    H151551   6.548   6.225  13.316 -1.1480 -0.4402  0.6531
10020TIP3    H251552   6.542   6.075  13.294 -1.1174 -0.7789  2.7680
10021TIP3   OH251553   5.540   2.858   1.800 -0.1295  0.0125  0.3973
10021TIP3    H151554   5.480   2.928   1.777 -1.2185 -0.0936  2.6048
10021TIP3    H251555   5.502   2.779   1.762 -1.5276 -0.0688  1.8575
10022TIP3   OH251556   2.680   6.745   1.826  0.5858  0.1974  0.2803
10022TIP3    H151557   2.774   6.749   1.843  0.3723 -0.1256  1.7317
10022TIP3    H251558   2.670   6.676   1.760  1.5004  1.5111 -1.2991
10023TIP3   OH251559   5.428   6.725  13.431 -0.8999  0.0156  0.0051
10023TIP3    H151560   5.493   6.729  13.502  0.3939 -2.5520 -0.8818
10023TIP3    H251561   5.445   6.802  13.378  0.5652  0.0906  0.5384
10024TIP3   OH251562   0.306   4.876   3.789 -0.3396 -0.1319  0.4880
10024TIP3    H151563   0.386   4.827   3.770 -0.5439  0.2689 -1.6198
10024TIP3    H251564   0.252   4.815   3.839  0.0097 -1.5636 -0.8079
10025TIP3   OH251565   6.643   5.646  12.455 -0.7605 -0.5428  0.2899
10025TIP3    H151566   6.646   5.615  12.364  0.4221 -2.1572  0.8340
10025TIP3    H251567   6.675   5.736  12.450  0.1942 -0.9174 -0.8037
10026TIP3   OH251568   1.487   4.743   5.081  0.7014  0.3079 -0.8837
10026TIP3    H151569   1.564   4.694   5.108 -0.2326 -0.3699  0.7306
10026TIP3    H251570   1.501   4.831   5.117  0.0847 -0.2253  0.7712
10027TIP3   OH251571   2.772   4.186   4.471  0.3987 -0.1836 -0.0276
10027TIP3    H151572   2.776   4.122   4.400 -0.6428  0.9673 -1.1804
10027TIP3    H251573   2.724   4.141   4.541  3.2082 -2.0563  0.8387
10028TIP3   OH251574   0.788   4.783   4.203  0.2576  0.2842 -0.6708
10028TIP3    H151575   0.716   4.731   4.236 -0.7116  1.6182 -0.6160
10028TIP3    H251576   0.819   4.735   4.126 -0.9280 -0.1236 -0.9130
10029TIP3   OH251577   1.134   4.887   3.528  0.2550  0.3578  0.1311
10029TIP3    H151578   1.177   4.820   3.582 -2.9853 -2.3747 -0.3696
10029TIP3    H251579   1.114   4.957   3.590  0.7539 -0.6125  1.4460
10030TIP3   OH251580   3.421   6.262   3.078 -0.2230 -0.1141 -0.4344
10030TIP3    H151581   3.466   6.276   2.995 -0.7710  0.7802 -0.5960
10030TIP3    H251582   3.466   6.188   3.119  0.3162 -0.2858 -1.3365
10031TIP3   OH251583   0.370   0.361   5.957 -0.4095  0.5975 -0.5366
10031TIP3    H151584   0.460   0.374   5.989 -0.6359  1.1721 -0.1373
10031TIP3    H251585   0.382   0.311   5.875  0.2176 -0.1625 -0.0039
10032TIP3   OH251586   0.971   0.914  14.985 -0.1682  0.4011  0.0537
10032TIP3    H151587   1.057   0.941  14.952 -0.3496 -0.2684 -1.0003
10032TIP3    H251588   0.935   0.993  15.025 -0.2844  1.5025 -2.1042
10033TIP3   OH251589   4.825   5.808   2.959  0.2096 -0.5516 -0.8067
10033TIP3    H151590   4.832   5.856   2.877  1.0859  0.5525 -0.1106
10033TIP3    H251591   4.916   5.789   2.983  0.1320  1.2163  1.0936
10034TIP3   OH251592   6.106   1.808   3.354 -0.4282 -0.0803 -0.3945
10034TIP3    H151593   6.109   1.728   3.302  2.6156  0.0335 -0.6047
10034TIP3    H251594   6.107   1.879   3.290  0.9603  0.0670 -0.2405
10035TIP3   OH251595   2.880   0.296  14.359  0.0627 -0.4775  0.2150
10035TIP3    H151596   2.882   0.353  14.436  2.1816 -0.7616  0.4378
10035TIP3    H251597   2.865   0.356  14.285 -0.1382  0.0412  0.6721
10036TIP3   OH251598   5.337   3.834   5.783 -0.0710 -0.2488  0.3692
10036TIP3    H151599   5.273   3.783   5.734 -0.6032  1.1289 -0.4182
10036TIP3    H251600   5.387   3.880   5.716  1.2282 -0.6907  1.0119
10037TIP3   OH251601   5.635   5.724   5.911  0.6564  0.1524  0.4019
10037TIP3    H151602   5.642   5.676   5.994  0.2536  1.5223  1.2713
10037TIP3    H251603   5.543   5.748   5.906  0.4629 -0.7933 -0.9907
10038TIP3   OH251604   0.155   5.362  12.000  0.5093 -0.2314 -0.2313
10038TIP3    H151605   0.169   5.278  12.045  1.0665  0.2639  0.5502
10038TIP3    H251606   0.197   5.427  12.057 -1.1003  0.7660 -0.0925
10039TIP3   OH251607   2.772   2.754  11.725 -0.0186  0.2910 -0.2946
10039TIP3    H151608   2.710   2.714  11.786  2.7897 -1.6185  1.5890
10039TIP3    H251609   2.778   2.692  11.653  0.8645 -0.4269  0.3604
10040TIP3   OH251610   3.298   3.730  15.151  0.5534  0.3110  0.0666
10040TIP3    H151611   3.389   3.754  15.133  0.2099  1.6137 -0.0716
10040TIP3    H251612   3.247   3.803  15.116 -0.5361 -0.3088  0.3180
10041TIP3   OH251613   0.137   5.995  13.474  0.0154  0.6816  0.1191
10041TIP3    H151614   0.187   6.059  13.424 -1.6361  0.2041 -2.2794
10041TIP3    H251615   0.172   5.910  13.447  0.5144  0.4493  1.4089
10042TIP3   OH251616   4.995   4.378  12.846 -0.1315 -0.6111  0.0333
10042TIP3    H151617   5.052   4.370  12.769  0.6155  0.5582  0.4547
10042TIP3    H251618   4.961   4.467  12.842 -0.6572 -0.7738  0.6824
10043TIP3   OH251619   5.472   3.010   5.289  0.3161  1.0051  0.1438
10043TIP3    H151620   5.406   3.008   5.358  2.1303 -0.3133  1.9781
10043TIP3    H251621   5.510   3.098   5.296  0.9689  0.6506  1.3700
10044TIP3   OH251622   2.452   2.311   0.499  0.0467 -0.3288 -0.1677
10044TIP3    H151623   2.359   2.323   0.517  0.0441 -1.6537  0.8466
10044TIP3    H251624   2.497   2.347   0.577  0.3733 -0.0852 -0.4621
10045TIP3   OH251625   1.770   1.879  12.014 -0.4580  0.0445 -0.3718
10045TIP3    H151626   1.718   1.937  12.069 -0.9018 -0.1704 -0.5572
10045TIP3    H251627   1.837   1.843  12.072  1.3398  2.5264 -0.7340
10046TIP3   OH251628   0.672   1.602  13.483 -0.1558 -0.8934 -0.9748
10046TIP3    H151629   0.645   1.654  13.407  0.4238 -0.5548 -0.9529
10046TIP3    H251630   0.649   1.656  13.559  0.4233 -0.6723 -0.9513
10047TIP3   OH251631   4.768   6.506   1.323 -0.2373 -0.4650 -0.0934
10047TIP3    H151632   4.762   6.497   1.418  0.1827  1.5991  0.1728
10047TIP3    H251633   4.858   6.480   1.302 -0.3801 -1.0763  0.0443
10048TIP3   OH251634   4.693   1.329  14.710  0.8711  0.2290  0.2937
10048TIP3    H151635   4.770   1.354  14.761  1.2046 -0.8799  0.3598
10048TIP3    H251636   4.688   1.234  14.720 -1.9075  0.4494  2.2969
10049TIP3   OH251637   6.413   0.003  14.984 -0.5038 -0.6401  0.4831
10049TIP3    H151638   6.417  -0.028  14.894  2.6906  2.0506 -0.5102
10049TIP3    H251639   6.323   0.036  14.995 -0.4646  0.7002 -2.4194
10050TIP3   OH251640   5.961   1.072  14.284 -0.1552  0.5936 -0.6870
10050TIP3    H151641   5.867   1.057  14.297 -0.1350  0.8952 -0.1355
10050TIP3    H251642   5.994   1.094  14.372  0.2195  1.5972 -1.0622
10051TIP3   OH251643   3.188   5.579  14.960 -0.1510  0.2341 -0.1095
10051TIP3    H151644   3.137   5.588  14.880 -0.6506  0.8194  0.2737
10051TIP3    H251645   3.254   5.648  14.955  1.8385 -1.6465 -1.4851
10052TIP3   OH251646   4.981   0.363   5.862  0.3059  0.3897  0.1439
10052TIP3    H151647   5.064   0.326   5.832  0.5808 -0.4976  1.8133
10052TIP3    H251648   5.004   0.450   5.895  1.0558 -0.5752  2.4266
10053TIP3   OH251649   3.189   2.106   9.993  0.0351  0.0638  0.2318
10053TIP3    H151650   3.181   2.110   9.897  1.3331 -1.2488  0.0270
10053TIP3    H251651   3.216   2.016  10.011 -1.1205  0.0125  1.9349
10054TIP3   OH251652   6.026   1.323  13.308  0.0394 -0.3125 -0.1075
10054TIP3    H151653   6.052   1.238  13.343 -0.3070 -0.5811 -0.4896
10054TIP3    H251654   5.942   1.306  13.264 -0.6787  0.4774  0.9039
10055TIP3   OH251655   6.251   6.429   0.884 -0.3952 -0.4524  0.1492
10055TIP3    H151656   6.169   6.430   0.836  0.4249  1.2204 -1.3295
10055TIP3    H251657   6.264   6.520   0.913  1.9749 -0.0781 -1.6787
10056TIP3   OH251658   0.241   5.906   2.102  0.1754 -0.6080  0.0535
10056TIP3    H151659   0.275   5.816   2.106  0.5463 -0.4709  0.0004
10056TIP3    H251660   0.176   5.910   2.173 -0.5610 -1.2098 -0.5586
10057TIP3   OH251661   3.151   0.786  11.388  0.0002  0.3001  0.0145
10057TIP3    H151662   3.226   0.845  11.387  0.4470 -0.2493 -0.0458
10057TIP3    H251663   3.161   0.733  11.308 -0.3777  0.1305  0.0747
10058TIP3   OH251664   5.319   1.950   4.783 -0.2070  0.3892 -0.0592
10058TIP3    H151665   5.342   1.928   4.874  0.4092 -0.3676 -0.3901
10058TIP3    H251666   5.307   2.045   4.785 -2.9225  0.1284  1.3941
10059TIP3   OH251667   2.801   0.599  13.390 -0.2837 -0.1882 -0.2278
10059TIP3    H151668   2.776   0.647  13.311 -0.6149  2.8698  1.5849
10059TIP3    H251669   2.728   0.613  13.451  0.9210 -0.5315  1.3729
10060TIP3   OH251670   0.238   0.782   4.638  0.1435 -0.0504  0.1091
10060TIP3    H151671   0.220   0.717   4.571  0.2102 -0.1058  0.1440
10060TIP3    H251672   0.309   0.744   4.690  1.5729  0.8631 -1.0565
10061TIP3   OH251673   3.600   5.862   5.105  0.5801 -0.5585 -0.0416
10061TIP3    H151674   3.577   5.945   5.147  0.2230 -0.5556 -0.2357
10061TIP3    H251675   3.668   5.885   5.042  2.1440 -0.7900  1.5015
10062TIP3   OH251676   3.802   5.535  12.738  0.4497  0.3142 -0.7055
10062TIP3    H151677   3.764   5.514  12.823 -0.8339 -0.3752 -1.4155
10062TIP3    H251678   3.739   5.594  12.697  1.5206  1.4179 -0.8126
10063TIP3   OH251679   2.188   6.045  10.790  0.2870 -0.4020  0.1540
10063TIP3    H151680   2.185   5.998  10.873 -0.9613  1.2603  1.1041
10063TIP3    H251681   2.184   6.138  10.814 -1.0560  0.1082 -1.7775
10064TIP3   OH251682   6.606   0.387  13.961  0.6194  0.4824 -0.8638
10064TIP3    H151683   6.611   0.331  14.038 -1.8255 -0.4047 -1.2442
10064TIP3    H251684   6.547   0.340  13.901  1.0122  1.9834 -2.5183
10065TIP3   OH251685   4.420   6.349   1.845 -0.5124 -0.3404  0.2209
10065TIP3    H151686   4.429   6.256   1.866  0.3902 -0.3522 -0.1517
10065TIP3    H251687   4.403   6.391   1.930 -1.4274 -0.8959  0.3161
10066TIP3   OH251688   1.264   0.893   4.362  0.1276  0.3297 -0.4630
10066TIP3    H151689   1.186   0.893   4.418  0.8464  0.3697  0.5607
10066TIP3    H251690   1.282   0.986   4.346 -1.3712  0.3382 -2.6819
10067TIP3   OH251691   1.203   6.159  10.853 -0.4362 -0.3860  0.4817
10067TIP3    H151692   1.276   6.208  10.816 -0.9559 -0.3560 -0.5371
10067TIP3    H251693   1.150   6.134  10.777  0.0767 -2.9978  0.8566
10068TIP3   OH251694   5.314   7.132  13.256  0.5254  0.3757 -0.4489
10068TIP3    H151695   5.384   7.196  13.241  1.9198 -0.9470  0.1046
10068TIP3    H251696   5.357   7.047  13.247 -0.9578 -0.4858  0.2122
10069TIP3   OH251697   3.192   6.981  10.709 -0.3797  0.0947 -0.0124
10069TIP3    H151698   3.197   6.908  10.771  0.4478 -0.1060 -0.3061
10069TIP3    H251699   3.106   7.021  10.726 -1.2388 -1.4959 -0.4861
10070TIP3   OH251700   4.087   1.096   0.243  0.0699  0.0114  0.0178
10070TIP3    H151701   4.014   1.070   0.187 -1.0349 -0.2012  1.5102
10070TIP3    H251702   4.046   1.141   0.317  1.5380  0.8401  0.3708
10071TIP3   OH251703   5.576   5.314   1.566 -0.4777 -0.7912  0.5979
10071TIP3    H151704   5.489   5.352   1.554 -0.3613 -0.7894 -0.3427
10071TIP3    H251705   5.579   5.242   1.503  1.6896  1.7829 -2.5806
10072TIP3   OH251706   5.339   3.589   3.513  0.2187  0.1936  0.2115
10072TIP3    H151707   5.286   3.598   3.592 -1.9923  0.6238 -1.2373
10072TIP3    H251708   5.300   3.651   3.451  1.1310 -0.9681 -1.6087
10073TIP3   OH251709   6.315   1.448  13.375 -0.6010 -0.0846 -0.6482
10073TIP3    H151710   6.328   1.436  13.281 -1.7935 -2.3832 -0.5871
10073TIP3    H251711   6.230   1.490  13.382 -0.8578 -0.6017 -0.5984
10074TIP3   OH251712   6.517   4.624   5.387 -0.3943 -0.5993 -0.2335
10074TIP3    H151713   6.535   4.704   5.436  0.2061 -0.2925 -0.9447
10074TIP3    H251714   6.490   4.561   5.454  3.8042 -1.2845  1.1467
10075TIP3   OH251715   3.521   3.639   3.865  0.2970  0.0567  0.2484
10075TIP3    H151716   3.440   3.596   3.894 -0.0276  0.2577 -0.3339
10075TIP3    H251717   3.566   3.663   3.945  1.0290 -2.3676  0.6318
10076TIP3   OH251718   2.173   6.129   3.072 -0.8850  0.1789 -0.7810
10076TIP3    H151719   2.230   6.079   3.131 -0.1634 -0.6403 -2.1173
10076TIP3    H251720   2.134   6.063   3.014  0.9568  1.1600 -3.3277
10077TIP3   OH251721   5.257   6.113   9.569  0.6595 -0.1423 -0.1895
10077TIP3    H151722   5.298   6.038   9.611  0.9096  0.1665  0.1286
10077TIP3    H251723   5.175   6.079   9.533  0.7322 -0.5472  0.0245
10078TIP3   OH251724   4.441   1.164   1.216  0.2276 -0.4645 -0.1396
10078TIP3    H151725   4.449   1.132   1.306  0.1893 -0.5364 -0.1616
10078TIP3    H251726   4.530   1.156   1.180  0.3839  0.1676  0.0915
10079TIP3   OH251727   5.945   1.996   2.926  0.1244  0.1889  0.2323
10079TIP3    H151728   5.964   2.000   3.020  0.5920 -2.9791  0.3876
10079TIP3    H251729   6.013   1.938   2.891 -1.5874 -0.8249 -1.5849
10080TIP3   OH251730   1.042   5.628   4.665 -0.2800 -0.2619  0.4157
10080TIP3    H151731   1.040   5.606   4.572 -1.5494 -0.3836  0.4626
10080TIP3    H251732   0.981   5.701   4.673  1.3909  1.1698  0.8197
10081TIP3   OH251733   3.032   0.368   1.809 -0.3319  0.6540  0.5303
10081TIP3    H151734   3.012   0.366   1.903  1.6572  0.0800  0.9693
10081TIP3    H251735   3.072   0.454   1.795  0.7081  0.1804  0.5174
10082TIP3   OH251736   4.278   4.539  12.291  0.3928 -0.4791  0.5004
10082TIP3    H151737   4.232   4.542  12.375 -1.3377 -0.3728 -0.4140
10082TIP3    H251738   4.308   4.629  12.278 -0.9332 -0.0597  0.1752
10083TIP3   OH251739   5.284   4.192   3.161 -0.1338  0.3531  0.0472
10083TIP3    H151740   5.357   4.212   3.103  0.7271 -1.6843  0.3198
10083TIP3    H251741   5.325   4.179   3.247 -1.1373  1.4361  0.7197
10084TIP3   OH251742   6.247   3.456  10.793 -0.1033  0.0205 -0.1884
10084TIP3    H151743   6.275   3.427  10.880 -0.5425 -1.0107 -0.3753
10084TIP3    H251744   6.175   3.398  10.770 -0.8682  1.1205 -0.7002
10085TIP3   OH251745   5.159   4.807  10.212  0.5762 -0.6323  0.0282
10085TIP3    H151746   5.086   4.842  10.161  0.3145  2.0015  1.9999
10085TIP3    H251747   5.134   4.716  10.232 -1.5285 -0.2117 -0.4860
10086TIP3   OH251748   2.729   3.025  12.823  0.3777  0.3129  0.4330
10086TIP3    H151749   2.700   3.114  12.845 -3.2893 -0.4392 -0.6210
10086TIP3    H251750   2.683   2.969  12.886 -0.6808 -1.0340 -1.4357
10087TIP3   OH251751   2.802   4.115  14.909 -0.0941  0.1517 -0.2976
10087TIP3    H151752   2.755   4.179  14.963 -0.2562  0.4065 -0.7328
10087TIP3    H251753   2.863   4.073  14.969  0.0310  0.7332 -0.0076
10088TIP3   OH251754   0.090   5.955  11.613 -0.2983 -0.6614 -0.7579
10088TIP3    H151755   0.035   5.978  11.688  0.2772  0.5091 -0.6640
10088TIP3    H251756   0.038   5.980  11.537 -0.6106 -1.2205 -0.7305
10089TIP3   OH251757   2.755   0.730  12.462 -0.2422 -0.4434 -0.5207
10089TIP3    H151758   2.702   0.705  12.387 -1.1863 -0.0312 -0.0070
10089TIP3    H251759   2.694   0.733  12.536 -0.2852  3.2918 -0.4837
10090TIP3   OH251760   4.224   0.005  10.358 -0.0193 -0.3113  0.3410
10090TIP3    H151761   4.281  -0.002  10.282 -0.2593  0.3270  0.0928
10090TIP3    H251762   4.210   0.099  10.369 -1.7440 -0.4676 -0.1493
10091TIP3   OH251763   5.355   5.426   1.226  0.3915 -0.0021 -0.8541
10091TIP3    H151764   5.304   5.449   1.148  0.6056  2.0588 -0.4690
10091TIP3    H251765   5.412   5.355   1.197 -2.2998 -2.0562 -1.4153
10092TIP3   OH251766   4.753   3.928  12.254  0.0066 -0.3717 -0.7131
10092TIP3    H151767   4.690   3.857  12.245  0.1322 -0.5637 -0.1055
10092TIP3    H251768   4.713   4.002  12.207  0.7434 -1.3726 -3.0637
10093TIP3   OH251769   1.620   0.079  14.651 -0.0759 -0.2889  0.4386
10093TIP3    H151770   1.622   0.173  14.669 -0.4821 -0.1677 -0.1158
10093TIP3    H251771   1.701   0.062  14.603 -0.6822  0.0516 -0.7244
10094TIP3   OH251772   2.349   5.027   4.344 -0.2551 -0.2701  0.4845
10094TIP3    H151773   2.353   5.077   4.426 -1.3549 -0.1831  0.5071
10094TIP3    H251774   2.338   4.936   4.373  0.3184 -0.3613  0.4311
10095TIP3   OH251775   6.851   2.762  15.672 -0.5706 -0.1446  0.7049
10095TIP3    H151776   6.927   2.813  15.700  0.4718  0.0150 -2.1451
10095TIP3    H251777   6.776   2.813  15.703  0.4302  0.6951  1.8935
10096TIP3   OH251778   4.159   1.034   2.362  0.3740 -0.1768 -0.0529
10096TIP3    H151779   4.245   1.007   2.396  0.6234  0.6926  0.0491
10096TIP3    H251780   4.159   1.130   2.372 -1.7709 -0.3320  2.7551
10097TIP3   OH251781   5.761   5.843   5.406  0.0279  0.4082  0.3338
10097TIP3    H151782   5.837   5.784   5.399 -0.5782 -0.3822  0.1787
10097TIP3    H251783   5.775   5.891   5.487  0.0399 -0.6846  0.9960
10098TIP3   OH251784   6.904   7.113  14.854 -0.0554 -0.0706 -0.5624
10098TIP3    H151785   6.911   7.169  14.777  0.4544 -0.2733 -0.6672
10098TIP3    H251786   6.913   7.024  14.821  0.2204 -0.1572 -0.2676
10099TIP3   OH251787   7.093   5.767   0.800  0.6187  0.9681  0.1542
10099TIP3    H151788   7.156   5.838   0.791 -0.8987  2.2024 -1.4465
10099TIP3    H251789   7.104   5.736   0.890  4.8329 -0.2938 -0.5670
10100TIP3   OH251790   4.816   5.544   2.851  0.3608 -0.2931  0.1186
10100TIP3    H151791   4.857   5.518   2.934 -0.1316 -0.7375  0.2289
10100TIP3    H251792   4.752   5.610   2.877 -0.8150 -1.4611  0.3025
10101TIP3   OH251793   3.822   1.536  13.332 -0.0299 -0.1907  0.2993
10101TIP3    H151794   3.798   1.517  13.241  1.0179  0.7958 -0.2145
10101TIP3    H251795   3.918   1.537  13.331  0.0254 -1.2825  1.6737
10102TIP3   OH251796   3.236   3.433   1.914  0.2512 -0.4350 -0.1843
10102TIP3    H151797   3.280   3.427   1.999 -1.0686 -0.1178  0.5377
10102TIP3    H251798   3.308   3.428   1.851  1.2128 -1.2235  0.9193
10103TIP3   OH251799   5.469   3.634  14.638 -0.0210 -0.9273  0.1179
10103TIP3    H151800   5.556   3.668  14.615 -1.0571  1.2283 -0.9637
10103TIP3    H251801   5.408   3.691  14.590 -2.0545 -2.0381  1.2536
10104TIP3   OH251802   4.546   1.676   3.438 -1.0912 -0.2748  0.1439
10104TIP3    H151803   4.556   1.755   3.384 -0.1214  1.0195  2.1007
10104TIP3    H251804   4.634   1.654   3.466 -1.5220 -1.1320  0.8853
10105TIP3   OH251805   1.888   5.705  13.387  0.1441  0.1851 -0.1168
10105TIP3    H151806   1.860   5.769  13.452 -1.5406 -0.7254  0.1118
10105TIP3    H251807   1.875   5.749  13.303  1.7970  1.1644  0.1055
10106TIP3   OH251808   4.380   6.820   0.917  0.3008  0.6375 -0.2714
10106TIP3    H151809   4.470   6.851   0.927 -0.1445  2.0307 -0.3849
10106TIP3    H251810   4.380   6.771   0.835  0.4266  2.7438 -1.5737
10107TIP3   OH251811   0.595   4.451   0.262 -0.0494 -0.2286  0.4745
10107TIP3    H151812   0.628   4.389   0.197 -0.8274 -0.3178  0.1539
10107TIP3    H251813   0.542   4.512   0.212  1.3013  1.1626  0.6715
10108TIP3   OH251814   2.646   4.921   0.196  0.2769 -0.0864  0.9057
10108TIP3    H151815   2.671   4.862   0.125  1.0715 -0.0405  1.1354
10108TIP3    H251816   2.727   4.934   0.246  0.5676  2.5107 -0.0906
10109TIP3   OH251817   4.371   2.116   0.201  0.1052  0.2719  0.0553
10109TIP3    H151818   4.353   2.043   0.260  1.2173 -0.7195 -0.7804
10109TIP3    H251819   4.402   2.186   0.258  2.0645 -0.9804  0.6123
10110TIP3   OH251820   4.537   2.086  14.474 -0.4062 -0.0955  0.4592
10110TIP3    H151821   4.608   2.139  14.437 -0.6235  0.1025  0.3186
10110TIP3    H251822   4.571   2.054  14.557  0.8992 -2.2616 -0.8140
10111TIP3   OH251823   3.965   0.693  11.597  0.2127 -0.0026 -0.0841
10111TIP3    H151824   3.943   0.600  11.589 -0.0926  0.0990 -0.5117
10111TIP3    H251825   3.901   0.737  11.540 -0.6581  0.6137  1.3184
10112TIP3   OH251826   2.520   2.122  13.257 -0.0790 -0.4311  0.1047
10112TIP3    H151827   2.556   2.175  13.328  1.1440 -0.6067 -0.3706
10112TIP3    H251828   2.502   2.185  13.187  1.5406 -0.6142 -0.5267
10113TIP3   OH251829   3.048   6.397   3.729  0.5419  0.3545 -0.2474
10113TIP3    H151830   3.023   6.348   3.807 -2.1425 -1.7901 -2.2256
10113TIP3    H251831   3.031   6.489   3.751 -0.6280 -0.2359  1.5074
10114TIP3   OH251832   7.004   6.618   3.059  0.3598  0.2971 -0.0859
10114TIP3    H151833   7.042   6.540   3.100 -2.2847  0.8624  3.9739
10114TIP3    H251834   6.910   6.600   3.056 -0.2483  2.9820  0.2614
10115TIP3   OH251835   6.911   4.546   5.918  0.3875 -0.0901 -0.8460
10115TIP3    H151836   7.001   4.557   5.888  1.1399  1.9629  1.8074
10115TIP3    H251837   6.906   4.594   6.000 -2.8624 -1.0730 -0.2906
10116TIP3   OH251838   3.310   0.999  11.749 -0.4208  0.0127 -0.4153
10116TIP3    H151839   3.316   0.926  11.811 -0.6527  0.4132  0.0818
10116TIP3    H251840   3.331   1.076  11.801  1.6802  0.1351 -1.3307
10117TIP3   OH251841   5.088   4.140  13.029  0.3400 -0.0294  0.0503
10117TIP3    H151842   5.114   4.212  12.972  0.0975 -1.0680 -1.4087
10117TIP3    H251843   5.133   4.063  12.994 -1.2137 -1.0221  0.1463
10118TIP3   OH251844   0.398   4.985  11.251 -0.1773  0.6227 -0.1318
10118TIP3    H151845   0.455   5.059  11.272  1.0469 -0.5072  0.7011
10118TIP3    H251846   0.454   4.925  11.201 -1.3633  0.5770 -1.4605
10119TIP3   OH251847   6.633   4.920   2.357 -0.1648 -0.0557  0.1643
10119TIP3    H151848   6.615   4.908   2.451 -0.9832 -1.7442 -0.1710
10119TIP3    H251849   6.548   4.911   2.315  0.2477  0.3338 -0.7804
10120TIP3   OH251850   4.520   1.728  15.409  0.0568  0.2933  0.3211
10120TIP3    H151851   4.460   1.674  15.357  0.7615 -0.1344 -0.0592
10120TIP3    H251852   4.514   1.693  15.497 -0.9746  0.8746  0.4954
10121TIP3   OH251853   3.256   5.202   4.955 -0.6997  0.3594  0.0769
10121TIP3    H151854   3.258   5.141   4.881 -0.2851  0.1347  0.2699
10121TIP3    H251855   3.347   5.209   4.982 -0.3448  2.9976 -1.4987
10122TIP3   OH251856   4.181   1.045  11.476 -0.4715  0.6864 -0.3707
10122TIP3    H151857   4.196   0.958  11.440  1.0712  0.3531  0.9755
10122TIP3    H251858   4.201   1.105  11.404  0.8320 -0.0097 -0.6211
10123TIP3   OH251859   3.726   0.171   0.759 -0.1074 -0.1878 -0.1736
10123TIP3    H151860   3.694   0.099   0.814 -1.8888  0.8582  0.2481
10123TIP3    H251861   3.773   0.227   0.820  1.4061 -1.0257 -0.5296
10124TIP3   OH251862   4.558   2.367  13.618 -0.2427  0.1042 -0.5793
10124TIP3    H151863   4.637   2.381  13.669 -1.7098 -0.8060  2.1437
10124TIP3    H251864   4.505   2.445  13.632 -1.4701 -0.9436  1.0129
10125TIP3   OH251865   2.147   3.865  11.150 -0.6571  0.0963 -0.2811
10125TIP3    H151866   2.211   3.934  11.137  1.3677 -1.3651  1.3212
10125TIP3    H251867   2.138   3.858  11.245 -2.6074 -0.3137 -0.4402
10126TIP3   OH251868   5.357   4.466   3.587  0.1056  0.1795 -0.6462
10126TIP3    H151869   5.447   4.441   3.606  0.1560  0.0253 -1.0837
10126TIP3    H251870   5.339   4.428   3.501  0.2975  1.9147 -1.5002
10127TIP3   OH251871   0.890   1.385  13.341 -0.5866  0.2332 -0.0884
10127TIP3    H151872   0.843   1.437  13.276 -0.4527  1.1937  0.5578
10127TIP3    H251873   0.832   1.385  13.418 -0.4087 -0.2542  0.0517
10128TIP3   OH251874   4.717   1.594   9.580 -0.0562 -0.7382  0.3424
10128TIP3    H151875   4.762   1.620   9.661  0.2425  0.5504 -0.2037
10128TIP3    H251876   4.772   1.629   9.510 -0.5534 -1.4319 -0.4189
10129TIP3   OH251877   6.898   1.148  10.284  0.0006 -0.0869  0.1967
10129TIP3    H151878   6.906   1.210  10.211  1.3330 -1.0545 -0.5313
10129TIP3    H251879   6.972   1.168  10.341  0.9861 -1.5335 -0.5071
10130TIP3   OH251880   3.154   4.080   0.385  0.3976 -0.2584  0.1976
10130TIP3    H151881   3.236   4.031   0.391  0.2147 -0.6089 -0.1607
10130TIP3    H251882   3.121   4.081   0.475  1.4953  1.1309  0.6404
10131TIP3   OH251883   6.807   0.570  13.944 -0.1164 -0.2601 -0.0326
10131TIP3    H151884   6.738   0.505  13.954 -0.9534  0.3409 -1.5602
10131TIP3    H251885   6.883   0.530  13.986 -1.1586 -1.2985  0.9337
10132TIP3   OH251886   3.797   5.428   5.773 -0.0770  0.5095 -0.1499
10132TIP3    H151887   3.860   5.452   5.706 -0.8777  1.4895 -0.5787
10132TIP3    H251888   3.850   5.403   5.848  0.8785  2.9524  0.0922
10133TIP3   OH251889   0.922   6.049  11.299 -0.3767 -0.1817  0.4464
10133TIP3    H151890   0.960   6.071  11.214 -1.0133  0.9833  0.4436
10133TIP3    H251891   0.828   6.049  11.284 -0.4902 -0.1176  1.1183
10134TIP3   OH251892   3.030   5.517   9.946 -0.5237 -0.2102  0.0851
10134TIP3    H151893   3.089   5.443   9.959 -0.2220  0.1989  1.1554
10134TIP3    H251894   3.086   5.594   9.953 -0.5599  0.1530 -2.4575
10135TIP3   OH251895   2.333   2.120  10.451  0.1953  0.1517  0.2829
10135TIP3    H151896   2.300   2.031  10.445 -1.4897  0.8204 -1.0417
10135TIP3    H251897   2.289   2.158  10.527  0.5224  0.0302  0.5377
10136TIP3   OH251898   6.653   6.164  14.291  0.3386 -0.0580  0.3545
10136TIP3    H151899   6.618   6.190  14.206 -0.3613 -1.5877  0.1401
10136TIP3    H251900   6.580   6.121  14.335  1.5886 -2.3264  0.3491
10137TIP3   OH251901   4.716   2.568   3.323  0.1188 -0.2897  0.1050
10137TIP3    H151902   4.780   2.507   3.288  0.4710  0.4676 -0.6226
10137TIP3    H251903   4.669   2.600   3.245 -0.6278 -0.2691  0.5529
10138TIP3   OH251904   5.451   2.493   1.029  0.4414 -0.4149  0.0355
10138TIP3    H151905   5.402   2.452   0.958  0.6994 -1.1524  0.2765
10138TIP3    H251906   5.387   2.501   1.100  0.1733  0.3585 -0.2810
10139TIP3   OH251907   2.612   1.246   0.590 -0.1908  0.3958  0.3153
10139TIP3    H151908   2.658   1.329   0.599  0.5672 -0.0791  0.9556
10139TIP3    H251909   2.521   1.266   0.612 -0.2211  1.2514 -0.5234
10140TIP3   OH251910   0.872   0.899   2.015  0.4500 -0.0320 -0.7113
10140TIP3    H151911   0.935   0.971   2.005 -0.3978  0.6700 -1.1971
10140TIP3    H251912   0.912   0.825   1.969  0.4474  0.7212 -1.9818
10141TIP3   OH251913   4.216   6.200  12.007 -0.1466  0.5051 -0.1386
10141TIP3    H151914   4.143   6.205  11.945  0.2404  0.2863 -0.6189
10141TIP3    H251915   4.291   6.171  11.954  0.1983  0.3501  0.4227
10142TIP3   OH251916   2.535   7.031   1.503 -0.3739  0.7312 -0.1066
10142TIP3    H151917   2.473   7.101   1.524 -1.4906 -1.1245  3.6326
10142TIP3    H251918   2.608   7.044   1.563 -0.5880 -1.1756  0.6603
10143TIP3   OH251919   0.507   5.789   3.970  0.4637  0.4445  0.9228
10143TIP3    H151920   0.422   5.774   4.013  0.0783  0.5674  0.2195
10143TIP3    H251921   0.503   5.880   3.941  0.4373  0.1622  0.0219
10144TIP3   OH251922   6.721   3.516  11.242  0.4998 -0.1668  0.0163
10144TIP3    H151923   6.802   3.497  11.290  0.3991 -1.7672 -0.3932
10144TIP3    H251924   6.651   3.482  11.299  0.1348  0.7475  0.1339
10145TIP3   OH251925   6.721   3.376   4.251  0.0402  0.1755  0.0933
10145TIP3    H151926   6.741   3.295   4.203 -0.9795  1.5967 -2.9784
10145TIP3    H251927   6.628   3.390   4.237  0.5506  2.9187 -1.3605
10146TIP3   OH251928   1.337   1.067  15.404  0.2376  0.1729  0.7311
10146TIP3    H151929   1.325   0.972  15.400 -1.2881  0.3263  1.1363
10146TIP3    H251930   1.280   1.102  15.336  0.0931  0.8497  1.1924
10147TIP3   OH251931   1.598   3.976   3.082 -0.4547  0.0923 -0.0971
10147TIP3    H151932   1.525   3.980   3.020 -0.1647  0.6684 -0.4110
10147TIP3    H251933   1.603   3.884   3.107 -0.1229 -0.2972 -1.4812
10148TIP3   OH251934   6.342   2.578   1.792 -0.1480 -0.2581 -0.0596
10148TIP3    H151935   6.357   2.647   1.728 -1.3354 -0.5188 -0.6520
10148TIP3    H251936   6.330   2.624   1.875 -0.3988  0.2110 -0.3512
10149TIP3   OH251937   4.371   6.475   2.087 -0.1251 -0.1109  0.3482
10149TIP3    H151938   4.315   6.531   2.033  0.1407 -1.3196 -1.2652
10149TIP3    H251939   4.315   6.444   2.157 -1.1600 -0.3625 -0.5718
10150TIP3   OH251940   0.945   2.251  11.762 -0.6685  0.0649  0.0397
10150TIP3    H151941   1.034   2.217  11.772 -0.1862  0.6429 -1.8985
10150TIP3    H251942   0.934   2.311  11.836  0.5121 -0.0964  0.3652
10151TIP3   OH251943   0.291   4.230   9.638  0.2319 -0.1403  0.0620
10151TIP3    H151944   0.266   4.234   9.546 -0.3213 -2.3454  0.0698
10151TIP3    H251945   0.228   4.287   9.682 -1.4434 -1.4041 -0.5900
10152TIP3   OH251946   2.790   7.028  12.951 -0.2810  0.2587  0.2273
10152TIP3    H151947   2.742   6.982  12.882  1.8072  2.1149 -2.6898
10152TIP3    H251948   2.753   7.116  12.951  1.2800  0.9362 -0.1820
10153TIP3   OH251949   3.858   6.620  10.765 -0.1549  0.3677 -0.0842
10153TIP3    H151950   3.900   6.617  10.851  0.2532 -0.6063 -0.2951
10153TIP3    H251951   3.921   6.663  10.709  0.4750 -0.8210 -0.3318
10154TIP3   OH251952   5.050   6.447   2.169  0.0302  0.4275  0.5271
10154TIP3    H151953   4.973   6.423   2.118 -1.1244  3.3407  0.7418
10154TIP3    H251954   5.105   6.369   2.167 -1.6616 -0.8233 -1.9535
10155TIP3   OH251955   2.519   1.000  14.736  0.2976  0.4427 -0.0005
10155TIP3    H151956   2.512   0.905  14.727 -0.8520  0.6516 -1.6330
10155TIP3    H251957   2.613   1.017  14.731  0.5340 -0.6166  0.5019
10156TIP3   OH251958   6.133   2.185  12.854 -0.5228 -0.1480  0.0592
10156TIP3    H151959   6.222   2.187  12.816  0.0401  1.8616  1.3178
10156TIP3    H251960   6.147   2.187  12.948 -1.8663  1.6978  0.2750
10157TIP3   OH251961   1.494   2.692   2.590 -0.2934  0.1919 -0.5153
10157TIP3    H151962   1.506   2.677   2.497  0.1415 -0.3955 -0.3706
10157TIP3    H251963   1.578   2.667   2.629 -1.1003 -1.4301  0.2488
10158TIP3   OH251964   6.949   1.964   2.191 -0.1309 -0.2224  0.1071
10158TIP3    H151965   7.004   2.026   2.144 -0.7204 -0.9283 -1.5853
10158TIP3    H251966   6.867   1.962   2.142 -0.8662 -0.8537  1.2894
10159TIP3   OH251967   0.749   2.811   1.811 -0.1647 -0.3763 -0.7729
10159TIP3    H151968   0.756   2.812   1.716  0.8896  0.5928 -0.6974
10159TIP3    H251969   0.825   2.859   1.842 -0.1153 -1.2614  0.5951
10160TIP3   OH251970   2.366   2.547   5.521 -0.4915 -0.2297  0.1148
10160TIP3    H151971   2.401   2.570   5.607 -0.7807  0.2180  0.1155
10160TIP3    H251972   2.318   2.465   5.536 -1.0714  0.1756  0.5133
10161TIP3   OH251973   2.850   3.606   3.799 -0.9820 -0.5078  0.1808
10161TIP3    H151974   2.806   3.621   3.716  6.2169  2.6021 -3.9658
10161TIP3    H251975   2.865   3.694   3.835  4.1259 -0.7703 -0.6394
10162TIP3   OH251976   2.174   3.654   1.944 -0.1481 -0.8009 -0.4905
10162TIP3    H151977   2.249   3.612   1.903  1.7624  0.5579  1.4170
10162TIP3    H251978   2.190   3.646   2.038 -1.7047  0.7381 -0.0385
10163TIP3   OH251979   4.814   6.078   4.493  0.1595 -0.1519  0.4254
10163TIP3    H151980   4.723   6.066   4.521  0.3418 -1.6521  0.4200
10163TIP3    H251981   4.866   6.060   4.571  0.5179 -1.0911 -0.0162
10164TIP3   OH251982   4.260   3.228  14.496 -0.2039 -0.1064  0.2541
10164TIP3    H151983   4.352   3.203  14.487 -0.8571 -2.0209 -1.7786
10164TIP3    H251984   4.247   3.296  14.430 -0.3584 -0.1293  0.2609
10165TIP3   OH251985   4.158   4.042  12.287  0.6644 -0.9605  0.1453
10165TIP3    H151986   4.129   3.997  12.366 -0.4775 -0.0101  0.3098
10165TIP3    H251987   4.218   4.109  12.319 -0.0847 -0.3317  0.2791
10166TIP3   OH251988   0.101   1.720   0.673  0.2296  0.4092 -0.5040
10166TIP3    H151989   0.113   1.760   0.587  0.7079  0.9609 -0.1858
10166TIP3    H251990   0.161   1.767   0.731 -0.0215 -0.0119  0.1171
10167TIP3   OH251991   6.020   6.710  15.256 -0.2983 -0.3283  0.4625
10167TIP3    H151992   6.013   6.780  15.191  0.8486 -0.0585  0.6059
10167TIP3    H251993   5.933   6.705  15.295 -0.6038  0.5095 -0.0769
10168TIP3   OH251994   2.643   4.326   2.285  0.4886  0.5497 -0.0023
10168TIP3    H151995   2.715   4.296   2.340  0.1535  2.6592  1.7264
10168TIP3    H251996   2.564   4.295   2.329  0.2546 -1.2261 -1.5575
10169TIP3   OH251997   0.752   4.410  10.236  0.1263  0.6737 -0.3372
10169TIP3    H151998   0.687   4.395  10.167  0.7325  0.7730 -0.9427
10169TIP3    H251999   0.723   4.490  10.279 -0.0686  0.8129 -0.7155
10170TIP3   OH252000   6.650   0.902   2.716 -0.4085  0.2631 -0.3905
10170TIP3    H152001   6.572   0.929   2.764 -0.4699 -0.3970 -0.1175
10170TIP3    H252002   6.617   0.860   2.637 -0.3458 -0.6561  0.0664
10171TIP3   OH252003   0.195   0.819  11.136 -0.1033  0.1087 -0.3043
10171TIP3    H152004   0.204   0.904  11.179  0.5067 -0.1181  0.0303
10171TIP3    H252005   0.197   0.839  11.042  2.2899  0.2906 -0.2805
10172TIP3   OH252006   5.221   2.056  14.750  0.6232 -0.3183 -0.0242
10172TIP3    H152007   5.288   2.099  14.697  0.9905 -0.1945  0.5289
10172TIP3    H252008   5.212   2.111  14.828  2.2717 -2.0305  1.4970
10173TIP3   OH252009   5.572   1.820  15.178 -0.1482  0.2403  0.5383
10173TIP3    H152010   5.555   1.835  15.272 -1.9411  1.1495  0.1210
10173TIP3    H252011   5.579   1.725  15.170 -1.5373  0.0356  1.3878
10174TIP3   OH252012   0.523   4.015   1.025  0.1463 -0.2395  0.5290
10174TIP3    H152013   0.454   4.062   0.978 -1.1351 -0.1765  2.3633
10174TIP3    H252014   0.477   3.953   1.081  1.6990 -1.8003  0.1865
10175TIP3   OH252015   4.547   5.541   3.218 -0.6978 -0.1975 -0.3875
10175TIP3    H152016   4.603   5.463   3.223 -0.2787  0.0454 -1.0923
10175TIP3    H252017   4.593   5.607   3.271 -1.1254 -0.4620  0.3276
10176TIP3   OH252018   7.009   4.400   0.978  0.4231 -0.6061 -0.2628
10176TIP3    H152019   6.955   4.322   0.965  0.4571 -0.6356 -0.2265
10176TIP3    H252020   7.039   4.423   0.890 -0.0848 -0.2752 -0.3522
10177TIP3   OH252021   2.094   6.142  11.340  0.3221  0.1428 -0.2704
10177TIP3    H152022   2.040   6.081  11.290  1.0333 -0.4621 -0.3180
10177TIP3    H252023   2.059   6.139  11.429  1.4908 -1.7621  0.1770
10178TIP3   OH252024   4.118   6.299  11.394  0.2625 -0.1984 -0.0932
10178TIP3    H152025   4.077   6.327  11.476  2.9230  0.7222  1.0163
10178TIP3    H252026   4.095   6.367  11.331 -0.4054 -0.0402  0.3119
10179TIP3   OH252027   4.216   6.115  15.601  0.1243 -0.0579 -0.3050
10179TIP3    H152028   4.249   6.141  15.515 -0.7496  3.0906  0.1795
10179TIP3    H252029   4.138   6.063  15.581 -1.4120  2.5076 -1.5602
10180TIP3   OH252030   2.879   2.565   4.963 -0.2581 -0.2000 -0.4714
10180TIP3    H152031   2.972   2.555   4.942  0.1009 -3.3209  1.8945
10180TIP3    H252032   2.873   2.650   5.007  1.6831 -0.4057  0.2688
10181TIP3   OH252033   2.444   3.801   1.789  0.0926  0.2151 -0.0217
10181TIP3    H152034   2.458   3.772   1.879  4.3917 -1.4928 -1.0192
10181TIP3    H252035   2.503   3.875   1.777  1.2553 -0.9216 -1.9357
10182TIP3   OH252036   3.033   1.481  10.822 -0.5376 -0.3080 -0.1963
10182TIP3    H152037   3.000   1.431  10.896  0.4309 -0.9585 -0.1822
10182TIP3    H252038   3.044   1.417  10.752  0.0841 -0.0023 -0.3906
10183TIP3   OH252039   5.153   1.986   1.215  0.5470 -0.6322  0.2377
10183TIP3    H152040   5.066   1.947   1.227  0.6151 -0.5513  0.9964
10183TIP3    H252041   5.214   1.920   1.249  0.7772 -0.6230 -0.1491
10184TIP3   OH252042   1.735   5.020  13.855  0.1440 -0.4491  0.4231
10184TIP3    H152043   1.772   4.998  13.941  1.1204 -1.7873 -0.3084
10184TIP3    H252044   1.811   5.039  13.800 -0.4044 -0.7360 -0.4541
10185TIP3   OH252045   0.607   0.139  14.057 -0.2341  0.3978  0.5284
10185TIP3    H152046   0.691   0.098  14.077  0.9331  2.1514 -0.4990
10185TIP3    H252047   0.546   0.102  14.121  1.0471 -1.7329  0.6082
10186TIP3   OH252048   3.312   5.357   3.893 -0.7957  0.0019 -0.0459
10186TIP3    H152049   3.221   5.336   3.870 -0.8974  0.7517 -0.3403
10186TIP3    H252050   3.305   5.422   3.963 -0.4817 -0.1765  0.1549
10187TIP3   OH252051   6.300   3.233   5.113  0.1953  0.3387 -0.3441
10187TIP3    H152052   6.392   3.205   5.108  0.5012  1.2508  0.0564
10187TIP3    H252053   6.251   3.162   5.071  0.8717 -1.2261  1.3603
10188TIP3   OH252054   5.091   1.632   3.050 -0.4784 -0.1380 -0.3836
10188TIP3    H152055   5.119   1.706   3.105 -1.4022 -0.3331  0.3803
10188TIP3    H252056   5.157   1.628   2.980 -0.0550  1.0006 -0.0808
10189TIP3   OH252057   5.041   0.149   1.387  0.0287  0.5045 -0.5226
10189TIP3    H152058   4.967   0.137   1.328  0.3052  0.3717 -0.8415
10189TIP3    H252059   5.006   0.130   1.474 -0.4383  0.9369 -0.6158
10190TIP3   OH252060   1.949   3.133  12.279 -0.0302 -0.0971 -0.1977
10190TIP3    H152061   2.001   3.204  12.240  0.6753  1.4632  3.2379
10190TIP3    H252062   1.883   3.178  12.332 -0.0738 -1.9984  1.4483
10191TIP3   OH252063   1.434   6.857   0.330  0.1810  0.5825  0.4599
10191TIP3    H152064   1.517   6.881   0.371  0.8645 -1.4567  0.3919
10191TIP3    H252065   1.458   6.806   0.253 -1.1085 -0.7823  0.8980
10192TIP3   OH252066   7.016   6.105  14.878  0.2785 -0.5105 -0.4055
10192TIP3    H152067   7.006   6.111  14.783 -0.0658  1.7352 -0.3009
10192TIP3    H252068   6.930   6.077  14.910 -0.1730  0.5007 -0.6766
10193TIP3   OH252069   5.020   7.032   0.346 -0.2665 -0.1235  0.6181
10193TIP3    H152070   5.027   7.014   0.440  2.1919  0.6096  0.6325
10193TIP3    H252071   5.061   7.117   0.334  0.5853 -0.7500 -1.2815
10194TIP3   OH252072   6.574   4.559  14.276 -0.4839 -0.5811 -0.3212
10194TIP3    H152073   6.629   4.627  14.236  0.0780 -0.7145  0.2208
10194TIP3    H252074   6.627   4.523  14.346 -0.1761 -2.6410 -1.5400
10195TIP3   OH252075   7.144   3.611  12.291  0.0164 -0.1676 -0.4961
10195TIP3    H152076   7.136   3.605  12.386  0.1975  3.4283 -0.1201
10195TIP3    H252077   7.216   3.671  12.276 -0.3697 -0.1978 -2.9272
10196TIP3   OH252078   4.965   2.797  14.990 -0.2298 -0.4010  0.0599
10196TIP3    H152079   5.011   2.763  15.067 -1.8400  1.4653  1.9922
10196TIP3    H252080   5.029   2.852  14.946  0.6416 -1.2680  0.2112
10197TIP3   OH252081   6.822   3.248   3.719  0.1308  0.0478 -0.2703
10197TIP3    H152082   6.752   3.272   3.658 -1.2063 -0.0391  1.1835
10197TIP3    H252083   6.891   3.312   3.703 -1.1321  1.4453 -0.2751
10198TIP3   OH252084   1.250   3.159   1.488  0.2983 -0.6698  0.7438
10198TIP3    H152085   1.330   3.164   1.540 -0.0485  0.8255  1.2055
10198TIP3    H252086   1.280   3.167   1.397  0.7065 -0.5885  0.8846
10199TIP3   OH252087   0.456   4.127   9.822  0.1712 -0.2499 -0.4013
10199TIP3    H152088   0.426   4.172   9.742  0.8392  1.9271  0.4889
10199TIP3    H252089   0.388   4.148   9.887  0.3011 -0.8916 -0.0570
10200TIP3   OH252090   5.347   3.568  13.642 -0.4451  0.1904  0.0007
10200TIP3    H152091   5.428   3.594  13.687 -0.2389  0.1009 -0.3101
10200TIP3    H252092   5.366   3.479  13.611 -1.7836 -1.1636  2.6593
10201TIP3   OH252093   6.082   0.635   5.305  0.7361  0.5060  0.0038
10201TIP3    H152094   6.105   0.574   5.235  1.8225  0.6993  0.1655
10201TIP3    H252095   6.119   0.596   5.384  0.2609  0.7092  0.3313
10202TIP3   OH252096   1.321   4.716  10.068  0.0398 -0.2906  0.2156
10202TIP3    H152097   1.377   4.650  10.109  0.1366  0.0105  0.5721
10202TIP3    H252098   1.252   4.665  10.024  0.9593 -0.7117 -0.8040
10203TIP3   OH252099   4.457   1.174  10.694 -0.1087  0.2089 -0.0838
10203TIP3    H152100   4.503   1.188  10.777  0.0442 -1.0804  0.0776
10203TIP3    H252101   4.472   1.254  10.644  1.2804  0.3223  0.4577
10204TIP3   OH252102   4.917   1.609   5.635 -0.2208 -0.0304  0.6685
10204TIP3    H152103   4.910   1.668   5.709  0.2190  1.1920 -0.2298
10204TIP3    H252104   4.893   1.662   5.559  1.0149 -0.7462 -0.2726
10205TIP3   OH252105   6.537   6.796   5.816  0.3013  0.1535  0.4463
10205TIP3    H152106   6.469   6.855   5.847 -0.0867  0.1779 -0.4206
10205TIP3    H252107   6.489   6.724   5.774  0.7982 -0.1087  0.3159
10206TIP3   OH252108   4.723   6.941  12.517  0.4089 -0.5274 -0.0027
10206TIP3    H152109   4.755   7.030  12.499  2.4839 -1.3843 -0.8151
10206TIP3    H252110   4.678   6.915  12.437 -0.9875  0.1017  0.5630
10207TIP3   OH252111   2.726   2.625   0.417 -0.1139  0.5614 -0.0612
10207TIP3    H152112   2.820   2.636   0.400  0.2098 -2.1909 -0.5355
10207TIP3    H252113   2.683   2.670   0.344  0.9489 -0.3842 -1.3210
10208TIP3   OH252114   2.296   4.799   4.500  0.3350  0.3643  0.1259
10208TIP3    H152115   2.340   4.715   4.499  0.8261  0.6169 -0.7532
10208TIP3    H252116   2.312   4.834   4.588 -0.3340 -0.6752  0.6872
10209TIP3   OH252117   2.878   2.691   2.134 -0.0229  0.3679 -0.2550
10209TIP3    H152118   2.919   2.632   2.071 -0.1361  1.4488 -1.3608
10209TIP3    H252119   2.786   2.692   2.110 -0.0490  0.8747 -0.1360
10210TIP3   OH252120   2.236   4.762   3.546  0.2350 -0.3231  0.2373
10210TIP3    H152121   2.205   4.852   3.559  1.6246 -0.0259  1.7498
10210TIP3    H252122   2.157   4.709   3.550 -0.7021  0.8444 -1.2980
10211TIP3   OH252123   4.331   2.263   2.633 -0.3481  0.3139  0.4395
10211TIP3    H152124   4.293   2.308   2.557  0.8939  0.5223 -0.0849
10211TIP3    H252125   4.261   2.205   2.663 -1.9999  2.5192  1.1284
10212TIP3   OH252126   6.952   4.549   4.935 -0.8759 -0.2354 -0.0551
10212TIP3    H152127   6.979   4.592   5.016 -1.2303  0.3650 -0.2497
10212TIP3    H252128   6.910   4.468   4.964  0.8862 -1.0979  0.2702
10213TIP3   OH252129   0.691   3.639   5.201  0.6904  0.2305 -0.3009
10213TIP3    H152130   0.606   3.616   5.237  0.7494 -0.0381 -0.3311
10213TIP3    H252131   0.732   3.555   5.180  0.4605  0.3761 -1.4478
10214TIP3   OH252132   0.973   3.430  13.568  0.1163 -0.1793 -0.6416
10214TIP3    H152133   0.964   3.394  13.656  0.7570  2.4434  0.6095
10214TIP3    H252134   1.019   3.362  13.519 -1.3895 -2.2362  0.6543
10215TIP3   OH252135   1.298   1.337  13.801 -0.4709 -0.1718 -0.3037
10215TIP3    H152136   1.336   1.424  13.795  0.7558 -0.7138 -0.6250
10215TIP3    H252137   1.262   1.332  13.889 -1.2228  0.9154 -0.5341
10216TIP3   OH252138   5.364   1.071   4.833  0.0648 -0.4751 -0.3151
10216TIP3    H152139   5.420   1.131   4.783 -0.6883  2.2026  1.7981
10216TIP3    H252140   5.406   1.065   4.919 -1.4335 -0.5559  0.4452
10217TIP3   OH252141   1.684   6.721  12.054  0.3911 -0.1537  0.6252
10217TIP3    H152142   1.760   6.767  12.090  0.8949 -0.1112 -0.4304
10217TIP3    H252143   1.718   6.634  12.032 -0.8084 -1.5042  3.6177
10218TIP3   OH252144   5.671   0.981  14.353  0.4245  0.1681  0.0448
10218TIP3    H152145   5.687   1.047  14.421 -0.6014  0.5761 -0.0827
10218TIP3    H252146   5.647   0.902  14.402  3.0220 -0.5756  0.2538
10219TIP3   OH252147   5.583   6.933   5.148 -0.2223 -0.2508  0.3760
10219TIP3    H152148   5.515   6.962   5.087  0.0299 -0.6380 -0.1009
10219TIP3    H252149   5.629   7.012   5.173 -1.7247  0.2425  1.8252
10220TIP3   OH252150   0.993   3.658  11.615 -0.2572 -0.3359 -0.0908
10220TIP3    H152151   1.017   3.746  11.643  1.3236 -0.3181 -1.4038
10220TIP3    H252152   1.013   3.655  11.522 -2.5212 -1.3677 -0.6359
10221TIP3   OH252153   3.608   2.362  13.114  0.4613 -0.3488 -0.4211
10221TIP3    H152154   3.582   2.270  13.116 -1.7976  0.2354 -0.1564
10221TIP3    H252155   3.629   2.383  13.205 -1.0935 -0.0871 -0.1069
10222TIP3   OH252156   3.620   6.432   4.906 -0.0099 -0.2247 -0.0602
10222TIP3    H152157   3.565   6.360   4.875 -0.3473 -0.6664  1.4795
10222TIP3    H252158   3.576   6.511   4.876 -3.0827 -0.3927  3.2569
10223TIP3   OH252159   0.310   3.366   2.063 -0.0905  0.7471 -0.2723
10223TIP3    H152160   0.250   3.323   2.125 -1.4857  0.9393 -1.4295
10223TIP3    H252161   0.336   3.447   2.107  0.7412 -0.1545  0.9739
10224TIP3   OH252162   6.140   4.933  11.380  0.2693 -0.6467 -0.2063
10224TIP3    H152163   6.144   4.841  11.408 -0.7423 -1.1199 -1.5494
10224TIP3    H252164   6.231   4.956  11.360  0.9053 -0.5948  2.3155
10225TIP3   OH252165   0.418   2.995   0.142 -0.1977 -0.4410 -0.3050
10225TIP3    H152166   0.508   3.028   0.144  0.2911 -1.7197 -0.3994
10225TIP3    H252167   0.423   2.915   0.089 -1.2888 -0.8281  0.1542
10226TIP3   OH252168   0.746   1.793   0.576  0.2223  0.4766 -0.3114
10226TIP3    H152169   0.679   1.740   0.532 -1.4898  0.7372  1.8370
10226TIP3    H252170   0.746   1.876   0.529 -1.7995  0.8674  0.2914
10227TIP3   OH252171   3.040   2.351   3.336 -0.5606  0.1309 -0.3355
10227TIP3    H152172   3.028   2.351   3.241 -0.3678  2.7916 -0.4427
10227TIP3    H252173   3.135   2.350   3.348 -0.5518  1.1480 -0.2424
10228TIP3   OH252174   4.809   7.131   2.709 -0.1186  0.0344 -0.6959
10228TIP3    H152175   4.824   7.112   2.617 -0.2061 -0.0818 -0.6866
10228TIP3    H252176   4.896   7.123   2.750 -0.1939 -0.6032 -0.6473
10229TIP3   OH252177   0.614   1.344  13.536 -0.0256  0.7276 -0.0327
10229TIP3    H152178   0.638   1.436  13.524 -1.2858  0.9974 -0.5747
10229TIP3    H252179   0.586   1.337  13.627 -0.6099  1.0447 -0.1857
10230TIP3   OH252180   0.079   5.474   4.050 -0.2115 -0.2567  0.0586
10230TIP3    H152181   0.018   5.403   4.030 -2.5706  1.1135  1.9389
10230TIP3    H252182   0.106   5.458   4.140 -0.7716  1.1861  0.5029
10231TIP3   OH252183   6.310   1.529   2.569 -0.5664 -0.4152 -0.0633
10231TIP3    H152184   6.276   1.607   2.612  1.7178 -0.1077  1.3486
10231TIP3    H252185   6.403   1.527   2.592 -0.0705 -2.3826 -1.8549
10232TIP3   OH252186   2.448   3.682   0.452 -0.5124  0.2493  0.0802
10232TIP3    H152187   2.504   3.722   0.519  0.5277 -0.7203 -0.1836
10232TIP3    H252188   2.487   3.596   0.436 -0.9129  0.3382 -1.5522
10233TIP3   OH252189   2.272   4.930   0.118 -0.4256  0.0642  0.7301
10233TIP3    H152190   2.278   4.838   0.092  0.4412  0.2407  0.2597
10233TIP3    H252191   2.201   4.966   0.065  0.7931  0.2267 -0.8655
10234TIP3   OH252192   5.382   3.589  15.463 -0.4951  0.4779 -0.4747
10234TIP3    H152193   5.352   3.649  15.531  0.2480  0.8113 -0.4297
10234TIP3    H252194   5.337   3.507  15.481  0.1775  0.3779  0.7983
10235TIP3   OH252195   1.261   6.498   5.203 -0.6400  0.1506 -0.5597
10235TIP3    H152196   1.223   6.509   5.116 -1.5920 -1.7365 -0.4398
10235TIP3    H252197   1.191   6.525   5.263 -0.5332  0.0101 -0.3702
10236TIP3   OH252198   0.616   6.043   4.627  0.3345 -0.1424  0.4369
10236TIP3    H152199   0.538   6.031   4.573 -0.4574  1.4166  1.1719
10236TIP3    H252200   0.619   5.966   4.683 -0.7051 -0.2072  0.4154
10237TIP3   OH252201   4.673   4.051  12.008 -0.6242  0.3875  0.8358
10237TIP3    H152202   4.678   3.978  11.947 -2.0843  1.7524 -1.0333
10237TIP3    H252203   4.752   4.102  11.991 -1.2152  0.9763 -0.2646
10238TIP3   OH252204   1.197   3.231   4.847 -0.3184 -0.0419 -0.3362
10238TIP3    H152205   1.186   3.173   4.922  1.4918 -2.1003 -1.5575
10238TIP3    H252206   1.232   3.312   4.884 -1.5633 -0.1709  1.2496
10239TIP3   OH252207   5.424   4.376   4.704  0.7899 -0.4232 -0.0389
10239TIP3    H152208   5.459   4.415   4.624  0.6866 -0.4493 -0.0964
10239TIP3    H252209   5.424   4.282   4.687 -0.9465 -0.3323 -0.7068
10240TIP3   OH252210   0.757   2.191  14.192  0.0502  0.2864  0.2202
10240TIP3    H152211   0.725   2.149  14.271  1.1227  0.3844  0.7097
10240TIP3    H252212   0.690   2.257  14.172 -1.1191 -0.9125  0.0202
10241TIP3   OH252213   2.008   1.798   5.260 -0.1442 -0.0571 -0.3723
10241TIP3    H152214   1.969   1.767   5.342 -1.3063  0.8656 -0.5381
10241TIP3    H252215   2.026   1.891   5.276  0.8567 -0.1847 -0.7268
10242TIP3   OH252216   0.942   3.159  13.723 -0.5414  0.3788 -0.2975
10242TIP3    H152217   0.971   3.085  13.670  2.5426 -0.2713  2.0297
10242TIP3    H252218   0.883   3.121  13.788 -0.8293  0.3837 -0.5567
10243TIP3   OH252219   5.164   6.376  15.633  0.3442  0.0444 -0.6191
10243TIP3    H152220   5.163   6.372  15.538  1.5881  0.9577 -0.6974
10243TIP3    H252221   5.201   6.462  15.653 -1.0889  0.3987  0.7016
10244TIP3   OH252222   1.225   2.172   5.389 -0.0970 -0.2261 -0.1054
10244TIP3    H152223   1.235   2.210   5.301  2.5847  2.6516  1.2434
10244TIP3    H252224   1.306   2.122   5.402 -0.3484 -0.4032  0.8215
10245TIP3   OH252225   4.327   0.929   2.680  0.6074  0.4926 -0.6503
10245TIP3    H152226   4.349   0.882   2.600 -0.2221  0.6272 -0.9662
10245TIP3    H252227   4.358   0.872   2.750  0.1629 -0.2576 -1.0427
10246TIP3   OH252228   1.442   1.420   1.234 -0.8255 -0.3469  0.5094
10246TIP3    H152229   1.517   1.407   1.176  0.5111 -1.2417  2.3645
10246TIP3    H252230   1.371   1.446   1.175  1.4174  2.7936 -1.1289
10247TIP3   OH252231   3.957   4.731  12.288  0.1440 -0.4127  0.3203
10247TIP3    H152232   3.880   4.785  12.271  0.7954  0.8507  1.2327
10247TIP3    H252233   4.014   4.744  12.212 -0.7141 -1.7465 -0.5993
10248TIP3   OH252234   4.084   0.453   0.725  0.0818 -0.0956 -0.2710
10248TIP3    H152235   4.082   0.521   0.657 -2.6439  1.5638  1.2722
10248TIP3    H252236   4.167   0.468   0.771  1.8036 -1.0131 -2.8619
10249TIP3   OH252237   4.725   0.009  15.462 -0.1311 -0.4048 -0.1701
10249TIP3    H152238   4.655   0.073  15.445 -0.9123 -0.6138  1.9313
10249TIP3    H252239   4.721  -0.051  15.387 -1.7135  0.0277 -0.4769
10250TIP3   OH252240   0.851   3.761   0.987  0.2394 -0.3554  0.7850
10250TIP3    H152241   0.941   3.793   0.980 -0.0870  0.4326 -0.0732
10250TIP3    H252242   0.801   3.820   0.932 -0.9055 -0.4280  1.7137
10251TIP3   OH252243   2.383   1.524   1.052  0.2936 -0.3001 -0.2115
10251TIP3    H152244   2.472   1.557   1.042 -0.4786  1.9775 -0.0820
10251TIP3    H252245   2.329   1.585   1.002 -1.4535 -0.1911  1.6851
10252TIP3   OH252246   5.730   1.956  10.589 -0.2671  0.1401  0.2301
10252TIP3    H152247   5.798   1.902  10.549  0.3020  0.1026  1.2262
10252TIP3    H252248   5.689   1.899  10.653 -1.6137 -0.0054 -0.7134
10253TIP3   OH252249   3.885   1.040   0.065 -0.1451 -0.1224  0.0413
10253TIP3    H152250   3.854   0.959   0.024  0.8090 -0.1294 -0.6921
10253TIP3    H252251   3.807   1.095   0.072 -0.1784  0.2844 -2.7061
10254TIP3   OH252252   6.500   7.030   1.499 -0.4017 -0.3266  0.9307
10254TIP3    H152253   6.410   7.045   1.528 -1.1735  0.1186 -1.4433
10254TIP3    H252254   6.540   6.979   1.570 -2.7756 -1.3147  1.6701
10255TIP3   OH252255   4.697   6.139  12.982  0.0665  0.0544 -0.3149
10255TIP3    H152256   4.763   6.071  12.992 -0.2829 -0.0887  1.1928
10255TIP3    H252257   4.614   6.096  13.004 -0.4431  0.4315 -1.4149
10256TIP3   OH252258   2.789   3.839   3.159 -0.1086  0.6378  0.3494
10256TIP3    H152259   2.865   3.894   3.178  1.6505 -1.1729 -0.9577
10256TIP3    H252260   2.713   3.897   3.172  1.5272  2.8747  0.5411
10257TIP3   OH252261   6.454   7.109   2.191 -0.7002  0.1106 -0.4854
10257TIP3    H152262   6.422   7.030   2.234  2.4607 -0.7763  0.4720
10257TIP3    H252263   6.402   7.180   2.230 -2.7217 -1.3189 -0.4458
10258TIP3   OH252264   3.528   3.956   4.334 -0.2399 -0.3828 -0.7681
10258TIP3    H152265   3.619   3.948   4.360 -0.3579 -1.7278 -0.6967
10258TIP3    H252266   3.496   4.032   4.382  0.4765 -0.7228  0.2953
10259TIP3   OH252267   1.834   6.813  11.797 -0.0355 -0.1772 -0.1687
10259TIP3    H152268   1.745   6.840  11.821  0.6886  0.4598  2.0468
10259TIP3    H252269   1.884   6.894  11.796  0.7175 -0.6332 -0.5742
10260TIP3   OH252270   3.804   4.538   0.593  0.0948  0.2091  0.0820
10260TIP3    H152271   3.786   4.478   0.520 -0.1223 -0.3627  0.5992
10260TIP3    H252272   3.899   4.534   0.604 -0.0055 -0.7125  0.6760
10261TIP3   OH252273   5.950   2.135  11.403 -0.5680 -0.1604  0.1381
10261TIP3    H152274   5.903   2.214  11.376  1.7692  0.2190 -3.4147
10261TIP3    H252275   5.900   2.063  11.365 -0.3176 -0.0294 -0.4518
10262TIP3   OH252276   5.111   0.820   3.896  0.0314 -0.1228 -0.1421
10262TIP3    H152277   5.100   0.912   3.874 -1.5130  0.2909  2.0028
10262TIP3    H252278   5.025   0.781   3.882  0.7266 -1.3477 -1.3001
10263TIP3   OH252279   4.729   2.459   1.876  0.0067  0.1082  0.0817
10263TIP3    H152280   4.698   2.492   1.960 -0.6094  1.3751 -0.6045
10263TIP3    H252281   4.658   2.479   1.815  1.4690  1.5856 -1.2391
10264TIP3   OH252282   0.967   0.654   1.593  0.7655 -0.2828  0.2339
10264TIP3    H152283   0.949   0.734   1.643  0.5771 -0.4213  0.3898
10264TIP3    H252284   1.061   0.657   1.577  0.6572  0.3091 -0.3409
10265TIP3   OH252285   4.491   2.577   1.828 -0.0130  0.5131 -0.3251
10265TIP3    H152286   4.428   2.605   1.762  0.4895 -2.2757 -2.1940
10265TIP3    H252287   4.441   2.521   1.887  0.3975 -0.7441 -1.1225
10266TIP3   OH252288   2.114   4.821   1.712  0.1708 -0.2373  0.1259
10266TIP3    H152289   2.144   4.846   1.800 -0.7245 -0.6360  0.5590
10266TIP3    H252290   2.105   4.725   1.717  1.3620 -0.4104 -0.8046
10267TIP3   OH252291   0.777   6.995   1.180 -0.0285 -0.7133 -0.4024
10267TIP3    H152292   0.759   7.073   1.128 -1.5165 -0.4263  0.4649
10267TIP3    H252293   0.776   6.923   1.117 -1.9536 -0.3965 -0.8170
10268TIP3   OH252294   5.225   4.784  13.194  0.2793 -0.0177  0.3360
10268TIP3    H152295   5.198   4.732  13.117 -0.3366 -0.2184  0.6807
10268TIP3    H252296   5.190   4.735  13.269  1.9022 -0.4707  0.8414
10269TIP3   OH252297   4.972   2.210   3.953  0.0194 -0.1556 -0.0088
10269TIP3    H152298   4.974   2.162   3.870 -1.9466 -0.3109 -0.0050
10269TIP3    H252299   5.001   2.146   4.018  2.6690  0.2716 -0.6259
10270TIP3   OH252300   1.079   5.107   2.187  0.3689 -0.4195  0.1558
10270TIP3    H152301   1.067   5.058   2.268  1.1352 -0.1398  0.4466
10270TIP3    H252302   1.111   5.042   2.124 -1.6123 -0.9581 -0.3557
10271TIP3   OH252303   1.209   3.024  11.956  0.4085 -1.0322  0.1381
10271TIP3    H152304   1.208   3.119  11.973  1.1616 -0.8650 -0.6656
10271TIP3    H252305   1.117   2.999  11.956  0.1280 -0.0822 -0.7444
10272TIP3   OH252306   5.767   3.932   3.138 -0.6539  0.7423 -0.6394
10272TIP3    H152307   5.747   3.992   3.066 -0.7678  0.2174 -1.0453
10272TIP3    H252308   5.839   3.975   3.185  0.6373  0.2820 -2.0968
10273TIP3   OH252309   6.073   5.316   3.219  0.1322  0.5997  0.2875
10273TIP3    H152310   6.033   5.394   3.258 -0.5565 -0.2087  1.2726
10273TIP3    H252311   6.044   5.316   3.128  0.9957  2.0319 -0.0155
10274TIP3   OH252312   7.123   1.649   2.536 -0.6494  0.2134  0.0707
10274TIP3    H152313   7.214   1.658   2.506 -0.1976 -0.0343  1.2957
10274TIP3    H252314   7.071   1.687   2.466  0.3581 -0.2322 -0.9624
10275TIP3   OH252315   1.675   3.022  14.343 -0.1529 -0.3864  0.0747
10275TIP3    H152316   1.615   2.953  14.314 -0.4852 -0.0112 -0.1557
10275TIP3    H252317   1.762   2.989  14.320 -0.3263 -0.6182 -0.2685
10276TIP3   OH252318   5.988   6.197   3.586  0.3644 -0.2117  0.7146
10276TIP3    H152319   6.062   6.195   3.647 -0.4997  2.6410  2.0344
10276TIP3    H252320   5.943   6.279   3.605 -0.6507  0.2868 -3.0650
10277TIP3   OH252321   5.904   0.513  10.999 -0.3619  0.0799 -0.3054
10277TIP3    H152322   5.943   0.480  10.918 -1.1902 -1.1810 -0.2146
10277TIP3    H252323   5.977   0.515  11.061  0.0561  0.0212 -0.7881
10278TIP3   OH252324   4.345   3.720  14.626 -0.7018 -0.3637 -0.6750
10278TIP3    H152325   4.408   3.791  14.612  1.3149 -1.5215  1.8212
10278TIP3    H252326   4.368   3.654  14.562  1.0130 -0.9637  0.5076
10279TIP3   OH252327   2.020   3.173   0.986  0.3477 -0.0806 -0.3344
10279TIP3    H152328   2.097   3.179   1.042  1.7530 -2.8211 -1.7475
10279TIP3    H252329   1.956   3.122   1.036  0.7250 -0.5468 -0.3159
10280TIP3   OH252330   1.851   4.565  13.595  0.1262  0.0377  0.1545
10280TIP3    H152331   1.885   4.643  13.552 -1.8721  1.0007  0.1716
10280TIP3    H252332   1.902   4.493  13.559  2.1412  1.3365  0.2502
10281TIP3   OH252333   4.319   0.057   2.602  0.0189  0.0159  0.0647
10281TIP3    H152334   4.276   0.037   2.685 -1.5662 -0.3499 -0.8092
10281TIP3    H252335   4.247   0.071   2.540  1.1483  1.4577 -0.9921
10282TIP3   OH252336   3.776   3.197  11.273 -0.1648  0.0138  0.3619
10282TIP3    H152337   3.728   3.268  11.315  0.1309 -0.0862  0.8723
10282TIP3    H252338   3.798   3.231  11.186  0.8459  0.9419  0.9576
10283TIP3   OH252339   1.278   2.759  11.139  0.5981  0.2215 -0.3963
10283TIP3    H152340   1.193   2.726  11.169  0.6883  1.1178  0.9646
10283TIP3    H252341   1.342   2.708  11.189  0.7701  1.3078  0.5410
10284TIP3   OH252342   1.131   3.929   3.428  0.6931 -0.2015 -0.6333
10284TIP3    H152343   1.178   3.967   3.353 -1.5068 -0.2066 -2.0945
10284TIP3    H252344   1.111   3.840   3.401 -0.8255  0.0449 -0.4061
10285TIP3   OH252345   3.129   4.853   9.734 -0.4436  0.6593  0.6512
10285TIP3    H152346   3.123   4.757   9.741 -0.6706  0.5648 -0.5643
10285TIP3    H252347   3.038   4.881   9.723 -0.4319  1.0753  1.5541
10286TIP3   OH252348   5.556   2.457  12.510  0.0732  0.1989 -0.7088
10286TIP3    H152349   5.577   2.423  12.597  0.3497  0.8700 -0.5098
10286TIP3    H252350   5.588   2.547  12.510 -1.0995  0.6324 -1.0641
10287TIP3   OH252351   4.187   4.497   2.142 -0.1697 -0.9783 -0.4351
10287TIP3    H152352   4.205   4.507   2.235 -0.3856 -0.3761 -0.4533
10287TIP3    H252353   4.154   4.583   2.115 -0.3923 -1.2394 -0.9993
10288TIP3   OH252354   0.657   6.281  15.030  0.0680 -0.5592  0.0926
10288TIP3    H152355   0.737   6.294  15.082  0.0610 -2.2703  0.6055
10288TIP3    H252356   0.674   6.327  14.948  0.8510  0.6083  0.8841
10289TIP3   OH252357   2.109   3.340  14.778  0.8119 -0.1689 -0.1607
10289TIP3    H152358   2.050   3.409  14.808  0.3952 -0.7781  0.4424
10289TIP3    H252359   2.125   3.285  14.855  1.5581 -0.4535 -0.5006
10290TIP3   OH252360   4.764   3.646   1.605  0.4687 -0.0045 -0.2679
10290TIP3    H152361   4.754   3.737   1.577  2.0195  0.6465  1.1014
10290TIP3    H252362   4.852   3.642   1.643 -0.0525 -1.7426  0.8917
10291TIP3   OH252363   5.206   6.473  10.466  0.3211 -0.3039  0.2737
10291TIP3    H152364   5.158   6.500  10.387 -0.0967  0.6567  0.8345
10291TIP3    H252365   5.141   6.425  10.518 -0.0869  1.0702  1.0719
10292TIP3   OH252366   2.529   5.045  12.257  0.0683  0.3590 -0.5496
10292TIP3    H152367   2.571   5.069  12.174 -0.8910 -0.4144 -1.2891
10292TIP3    H252368   2.600   5.013  12.312  0.8167  1.4898 -0.8342
10293TIP3   OH252369   1.368   3.005  10.614  0.3295 -0.0203  0.2972
10293TIP3    H152370   1.284   3.029  10.653  1.0152  1.2695  1.0553
10293TIP3    H252371   1.351   3.007  10.520 -0.8137 -1.1021  0.4514
10294TIP3   OH252372   0.093   2.433  13.192  0.4292  0.2427  0.2784
10294TIP3    H152373   0.108   2.363  13.128 -0.4530  0.6332 -0.3645
10294TIP3    H252374   0.050   2.502  13.143 -0.8510  0.2995  1.4319
10295TIP3   OH252375   4.180   0.656   0.544 -0.8768  0.4818 -0.5039
10295TIP3    H152376   4.154   0.692   0.459 -3.0113 -1.4381 -0.7776
10295TIP3    H252377   4.275   0.642   0.536 -0.9526  0.7335 -2.4303
10296TIP3   OH252378   0.615   1.618  11.822 -0.5110  0.2812 -0.0387
10296TIP3    H152379   0.635   1.580  11.907  0.0736  3.0549  1.1788
10296TIP3    H252380   0.520   1.629  11.822 -1.0096 -2.8788 -1.3017
10297TIP3   OH252381   3.433   3.735   0.720  0.4388  0.2058 -0.3064
10297TIP3    H152382   3.393   3.792   0.784  3.4238  5.2179 -2.3318
10297TIP3    H252383   3.474   3.665   0.772 -1.7143  0.8896  2.5543
10298TIP3   OH252384   7.087   2.943  10.014  0.3368  0.1821 -0.6628
10298TIP3    H152385   7.035   2.864  10.029 -0.9764  0.9541 -0.9776
10298TIP3    H252386   7.127   2.962  10.099 -1.3992  0.5946  0.1058
10299TIP3   OH252387   5.264   3.809   4.748 -0.5383  0.4120 -0.1632
10299TIP3    H152388   5.229   3.768   4.670 -1.7250  1.3366 -0.1349
10299TIP3    H252389   5.275   3.737   4.810 -1.9890  0.0251 -0.3240
10300TIP3   OH252390   0.524   4.989  12.856  0.1458  0.2433 -0.5439
10300TIP3    H152391   0.558   5.079  12.848  1.3774 -0.1552 -0.0126
10300TIP3    H252392   0.474   4.990  12.938  1.5126  0.0556  0.3230
10301TIP3   OH252393   4.679   0.901   2.784  0.0141  0.5359 -0.3100
10301TIP3    H152394   4.716   0.813   2.789 -1.4679 -0.1725 -1.0966
10301TIP3    H252395   4.628   0.910   2.865 -1.1471  0.0072 -0.9532
10302TIP3   OH252396   6.065   4.497  12.512  0.0316  0.0054 -0.0920
10302TIP3    H152397   6.008   4.485  12.588 -1.0057 -2.3197 -1.1383
10302TIP3    H252398   6.151   4.518  12.549 -0.7105  0.0970  1.6623
10303TIP3   OH252399   5.553   3.029  11.380 -0.3155 -0.9159 -0.3271
10303TIP3    H152400   5.529   3.121  11.373  0.7169 -0.6644 -0.8337
10303TIP3    H252401   5.615   3.026  11.454  0.7844 -0.9286 -1.2137
10304TIP3   OH252402   4.021   5.737  12.902 -0.1858 -0.2660 -0.0922
10304TIP3    H152403   3.946   5.694  12.862 -0.1228  1.7063 -2.5291
10304TIP3    H252404   4.097   5.706  12.853  0.1909  0.3543  0.0782
10305TIP3   OH252405   3.613   5.866  11.096 -0.5011 -0.1000 -0.4811
10305TIP3    H152406   3.648   5.821  11.173 -3.2733 -1.3431  0.1677
10305TIP3    H252407   3.560   5.937  11.132 -0.7530  0.1355 -1.2935
10306TIP3   OH252408   6.983   0.995  10.987  0.4155 -0.5970 -0.4828
10306TIP3    H152409   6.987   0.907  11.024 -1.1871 -0.9849 -1.1065
10306TIP3    H252410   7.003   1.054  11.060  1.9656 -1.4732 -0.1709
10307TIP3   OH252411   2.562   5.611  10.347 -0.0393  0.4134 -0.6059
10307TIP3    H152412   2.531   5.699  10.370  0.2544  0.3635  0.0016
10307TIP3    H252413   2.620   5.587  10.419 -0.0526 -0.2483 -0.8145
10308TIP3   OH252414   3.559   5.611   0.560 -0.5894  0.2992 -0.2452
10308TIP3    H152415   3.565   5.524   0.520  0.3030 -0.4411  1.4130
10308TIP3    H252416   3.635   5.617   0.617 -2.1437  1.0200  1.8915
10309TIP3   OH252417   7.085   1.566   2.258 -0.0521 -0.8473 -0.3058
10309TIP3    H152418   7.068   1.492   2.199  2.5046 -1.9120  0.1732
10309TIP3    H252419   7.053   1.535   2.343 -1.7910 -0.1389 -0.6598
10310TIP3   OH252420   2.337   2.196  11.268 -0.2603  0.2767  0.1499
10310TIP3    H152421   2.328   2.291  11.257 -1.1000  0.2965  0.8975
10310TIP3    H252422   2.369   2.165  11.183 -0.4533  1.1697 -0.2623
10311TIP3   OH252423   5.263   5.053   1.431 -0.1373  0.1591 -0.0412
10311TIP3    H152424   5.251   5.067   1.524  0.1633 -0.2130  0.0561
10311TIP3    H252425   5.301   4.966   1.424  1.8702  1.0041 -0.3642
10312TIP3   OH252426   4.470   0.391   3.537 -0.1233 -0.6994  0.2369
10312TIP3    H152427   4.377   0.378   3.521  0.2820 -2.8025 -0.6238
10312TIP3    H252428   4.508   0.409   3.451  0.4354 -1.0774  0.3953
10313TIP3   OH252429   4.540   5.827   6.109  0.0960 -0.0440 -0.1273
10313TIP3    H152430   4.592   5.747   6.110  0.4723  0.1633  1.8259
10313TIP3    H252431   4.451   5.797   6.090  0.0283 -1.1253  1.6044
10314TIP3   OH252432   0.153   5.432  10.548 -0.1068 -0.0491 -0.3644
10314TIP3    H152433   0.224   5.370  10.532 -0.0255 -0.4107  1.3012
10314TIP3    H252434   0.075   5.377  10.555 -0.3457  0.2265 -0.8072
10315TIP3   OH252435   0.795   2.059  13.225  0.0622 -0.0610 -0.4842
10315TIP3    H152436   0.713   2.010  13.236  0.4085 -0.6016 -0.2636
10315TIP3    H252437   0.852   1.998  13.178  1.2623 -0.7546  1.7359
10316TIP3   OH252438   2.543   0.357   2.692 -0.5701  0.1327  0.2170
10316TIP3    H152439   2.537   0.450   2.670  2.5031  0.1808 -0.8928
10316TIP3    H252440   2.601   0.354   2.767 -0.3030 -0.9168 -0.0169
10317TIP3   OH252441   5.813   4.067   9.752  0.3998  0.1632  0.0908
10317TIP3    H152442   5.793   4.024   9.669  1.6568 -1.1836  0.4405
10317TIP3    H252443   5.756   4.145   9.754 -1.2735 -0.9756 -0.9935
10318TIP3   OH252444   0.325   5.585  12.039 -0.2965  0.0961  0.5512
10318TIP3    H152445   0.285   5.661  12.080  3.2914  3.0572 -0.8870
10318TIP3    H252446   0.303   5.593  11.946  0.8577 -0.0663  0.2501
10319TIP3   OH252447   2.465   2.746  11.081  0.2473 -0.0792  0.1617
10319TIP3    H152448   2.448   2.699  10.999  0.2980  0.0166  0.0962
10319TIP3    H252449   2.544   2.797  11.063 -0.5584  1.0862 -0.2169
10320TIP3   OH252450   0.971   1.568   1.593  0.7310 -0.1831  0.1557
10320TIP3    H152451   0.988   1.640   1.533  2.1765  0.4703  1.2675
10320TIP3    H252452   1.003   1.600   1.678 -0.8739 -1.2081  1.2009
10321TIP3   OH252453   7.104   0.343  15.443 -0.6917  0.5123 -0.1824
10321TIP3    H152454   7.063   0.382  15.520  1.5996 -0.0730  1.4750
10321TIP3    H252455   7.142   0.261  15.476 -0.2143 -0.0869 -2.1130
10322TIP3   OH252456   2.853   4.094  13.701  0.6179 -0.5617 -0.0146
10322TIP3    H152457   2.869   4.189  13.704 -0.0767 -0.4403  0.0469
10322TIP3    H252458   2.911   4.062  13.632  0.0432  0.0883 -0.8235
10323TIP3   OH252459   2.711   2.038  11.698  0.1402  0.7595 -0.2294
10323TIP3    H152460   2.766   1.983  11.753 -0.1922  0.5984 -0.0566
10323TIP3    H252461   2.621   2.020  11.727 -0.1224  0.0001 -1.4058
10324TIP3   OH252462   6.529   4.687   0.413 -0.0023 -0.3519  0.2844
10324TIP3    H152463   6.481   4.647   0.486 -1.4213  0.9427  0.1160
10324TIP3    H252464   6.553   4.774   0.445 -1.4063  0.5704 -1.0463
10325TIP3   OH252465   4.643   6.045   3.060  0.0007 -0.0093 -0.5367
10325TIP3    H152466   4.549   6.034   3.074  0.0734 -1.9265 -1.2752
10325TIP3    H252467   4.670   5.967   3.012  1.9271  0.6518 -0.6387
10326TIP3   OH252468   0.608   2.420  15.398  0.0163  0.3729  0.5338
10326TIP3    H152469   0.635   2.329  15.400 -0.9274  0.0555  3.2537
10326TIP3    H252470   0.548   2.426  15.324  0.1438 -1.1972  0.2828
10327TIP3   OH252471   6.560   0.801   5.654 -0.1474  0.1570 -0.2479
10327TIP3    H152472   6.472   0.788   5.690 -0.0428 -0.1195 -0.0885
10327TIP3    H252473   6.584   0.889   5.680 -0.4347  0.2874 -0.4152
10328TIP3   OH252474   0.642   5.835   2.640  0.1948  0.2556  0.4470
10328TIP3    H152475   0.655   5.745   2.610  1.8212  0.5552  0.2039
10328TIP3    H252476   0.626   5.826   2.734 -0.4893 -0.3362  0.2859
10329TIP3   OH252477   5.829   6.546  14.818 -0.4249 -0.0826  0.0964
10329TIP3    H152478   5.789   6.619  14.771  0.5093  0.5201  0.2220
10329TIP3    H252479   5.760   6.514  14.876 -0.4567  1.5477  0.9993
10330TIP3   OH252480   5.708   2.683  14.084  0.0993 -0.7442  0.2945
10330TIP3    H152481   5.735   2.699  13.993  1.4943 -1.7891  0.4941
10330TIP3    H252482   5.774   2.728  14.136  0.0076 -1.1920  0.7990
10331TIP3   OH252483   6.402   1.090  11.503 -0.0415 -0.1698 -0.7874
10331TIP3    H152484   6.464   1.033  11.457  0.8681 -0.4984  0.7562
10331TIP3    H252485   6.336   1.030  11.539  0.0056 -0.0731 -0.5378
10332TIP3   OH252486   6.341   0.028  10.711 -0.0837 -0.6860 -0.0907
10332TIP3    H152487   6.422  -0.019  10.732 -0.8108 -0.6434  3.5120
10332TIP3    H252488   6.273  -0.039  10.714 -0.6050 -0.1419  0.8538
10333TIP3   OH252489   6.439   4.031   5.445  0.0639  0.6659  0.3349
10333TIP3    H152490   6.355   3.993   5.420  0.7539 -0.5447 -0.2290
10333TIP3    H252491   6.502   3.960   5.432  0.8518  0.7581  3.0882
10334TIP3   OH252492   7.111   1.361  13.126  0.6266 -0.1243 -0.7776
10334TIP3    H152493   7.179   1.414  13.167 -2.0955  1.6382  1.8546
10334TIP3    H252494   7.140   1.271  13.138  2.2342  0.5437  0.7529
10335TIP3   OH252495   3.361   2.769   0.475 -0.4781  0.3102  0.8150
10335TIP3    H152496   3.347   2.693   0.419  1.2690  0.1324  0.5670
10335TIP3    H252497   3.377   2.733   0.562  1.5447  0.2551  0.4766
10336TIP3   OH252498   3.617   6.182  13.261  0.1778  0.0180 -0.1941
10336TIP3    H152499   3.592   6.099  13.302 -0.7838  0.1032 -0.5904
10336TIP3    H252500   3.674   6.156  13.188 -0.8270 -0.3625 -0.8587
10337TIP3   OH252501   1.359   1.148   5.088  0.3848  0.1213  0.1120
10337TIP3    H152502   1.428   1.198   5.045 -0.7278  0.8365 -0.9086
10337TIP3    H252503   1.348   1.071   5.033 -1.0847  1.0693 -0.9958
10338TIP3   OH252504   3.706   4.033   1.653  0.3975  0.2773  0.8851
10338TIP3    H152505   3.779   4.087   1.685  0.4467 -0.0899  1.4069
10338TIP3    H252506   3.638   4.097   1.630  1.8014  0.8521 -2.2121
10339TIP3   OH252507   2.343   6.684   0.780 -0.1776 -0.1122  0.2093
10339TIP3    H152508   2.311   6.773   0.766  0.6453  0.3780  1.2613
10339TIP3    H252509   2.435   6.695   0.805  0.3043 -1.3555 -0.9116
10340TIP3   OH252510   6.086   3.226   4.676  0.0727 -0.1762 -0.0499
10340TIP3    H152511   6.136   3.296   4.717  1.2986 -2.6390  3.1827
10340TIP3    H252512   6.101   3.237   4.582  3.4486  1.5673  0.5436
10341TIP3   OH252513   0.171   2.354  12.871  0.3720 -0.5055 -0.5107
10341TIP3    H152514   0.209   2.441  12.871 -0.4403 -0.1208  0.9830
10341TIP3    H252515   0.091   2.362  12.819 -1.1377  0.3560  1.8249
10342TIP3   OH252516   6.091   6.684  13.636  0.5481 -0.1489  0.1550
10342TIP3    H152517   6.054   6.601  13.606  0.7205  0.1116 -0.8038
10342TIP3    H252518   6.106   6.734  13.556  0.0425  0.9809  0.7471
10343TIP3   OH252519   2.170   2.374   2.282  0.3738 -0.6043 -0.2878
10343TIP3    H152520   2.242   2.323   2.319 -0.2583 -0.7328  0.8054
10343TIP3    H252521   2.135   2.318   2.212 -0.0373 -1.5116  0.6123
10344TIP3   OH252522   5.168   0.618   1.190  0.1347 -0.3896  1.1487
10344TIP3    H152523   5.187   0.684   1.256  1.9493  1.2335 -0.8558
10344TIP3    H252524   5.079   0.588   1.210 -0.6993  2.5280  2.2458
10345TIP3   OH252525   0.632   5.753  10.315 -0.1049  0.6285  0.3119
10345TIP3    H152526   0.537   5.765  10.318 -0.2062  0.3902 -1.1287
10345TIP3    H252527   0.644   5.658  10.326 -0.0266  0.6726  0.6061
10346TIP3   OH252528   5.647   5.766   1.558  0.0799 -0.1370 -0.1112
10346TIP3    H152529   5.596   5.694   1.519  1.3320 -0.5660 -1.0194
10346TIP3    H252530   5.652   5.831   1.488 -0.8770  0.7846  0.6410
10347TIP3   OH252531   3.191   1.083   4.624 -0.4769  0.3280 -0.2765
10347TIP3    H152532   3.180   1.009   4.565  2.5606  0.5394 -1.3004
10347TIP3    H252533   3.138   1.062   4.700 -0.5689 -2.3811 -0.9931
10348TIP3   OH252534   0.699   3.657  12.645 -0.0395  0.0426 -0.5025
10348TIP3    H152535   0.616   3.645  12.597 -0.2869 -0.3800  0.0219
10348TIP3    H252536   0.672   3.664  12.737  0.4178  0.9875 -0.4296
10349TIP3   OH252537   4.349   5.942   5.626  0.2767  0.3151 -0.3497
10349TIP3    H152538   4.271   5.925   5.678 -0.9920  1.5383 -1.7353
10349TIP3    H252539   4.397   6.009   5.674  0.0139  0.1999  0.0721
10350TIP3   OH252540   3.064   2.964  13.323 -0.4372  0.4053  0.4476
10350TIP3    H152541   3.109   2.940  13.242 -1.1749 -2.5206  0.8057
10350TIP3    H252542   3.114   3.038  13.357  2.5944 -1.0805 -0.4552
10351TIP3   OH252543   1.844   2.302  11.590  0.5599  0.0625 -0.2152
10351TIP3    H152544   1.808   2.213  11.596 -2.3762  1.2394  1.4875
10351TIP3    H252545   1.875   2.309  11.500 -0.7455 -2.1028 -0.9116
10352TIP3   OH252546   4.392   0.887   9.485  0.1027  0.2719  0.2441
10352TIP3    H152547   4.406   0.883   9.390 -0.7115 -2.0119  0.1569
10352TIP3    H252548   4.297   0.894   9.494  0.0831 -0.7112  0.8804
10353TIP3   OH252549   0.344   5.902   5.446  0.0078  0.3012  0.6277
10353TIP3    H152550   0.370   5.828   5.501  0.1804 -0.5440 -0.5473
10353TIP3    H252551   0.402   5.898   5.370 -1.3963  0.3254 -0.4892
10354TIP3   OH252552   7.128   3.212   1.281  0.5253 -0.7164  0.1995
10354TIP3    H152553   7.215   3.250   1.272  0.3589 -0.4018 -0.1013
10354TIP3    H252554   7.103   3.186   1.193  0.3447 -0.8673  0.2932
10355TIP3   OH252555   3.460   6.484  15.050 -0.1821 -0.4205  0.2873
10355TIP3    H152556   3.498   6.396  15.040  0.3706 -0.1161 -0.4211
10355TIP3    H252557   3.410   6.497  14.970  0.7517  0.3821 -0.1919
10356TIP3   OH252558   1.342   3.034   5.466  0.1474 -0.7431 -0.4735
10356TIP3    H152559   1.296   2.965   5.418 -0.0950 -1.3964  0.6682
10356TIP3    H252560   1.276   3.100   5.483  0.2582 -0.4579 -1.1102
10357TIP3   OH252561   3.876   5.706   0.567  0.2563 -0.0333  0.4946
10357TIP3    H152562   3.817   5.642   0.607 -2.1183  1.0044 -1.0967
10357TIP3    H252563   3.889   5.772   0.635  1.7519 -1.5262  1.7303
10358TIP3   OH252564   1.918   3.898  13.039  0.0594 -0.0715  0.1304
10358TIP3    H152565   1.833   3.890  13.082  0.6617 -0.3753  1.3146
10358TIP3    H252566   1.982   3.878  13.108  1.0610 -0.9033 -0.9965
10359TIP3   OH252567   1.253   5.400   1.487  0.0475 -0.1681  0.1998
10359TIP3    H152568   1.179   5.449   1.524 -0.7314  0.4855 -2.1078
10359TIP3    H252569   1.221   5.367   1.403  2.2253 -0.2918 -0.6446
10360TIP3   OH252570   6.224   5.615   3.305  0.1341  0.0083 -0.1346
10360TIP3    H152571   6.144   5.655   3.338  1.9430  1.1577  3.4165
10360TIP3    H252572   6.244   5.664   3.225 -2.0477  0.4732 -0.4547
10361TIP3   OH252573   2.379   2.100   5.082 -0.6031 -0.2134  0.5427
10361TIP3    H152574   2.436   2.028   5.053  0.1229  0.2704  0.7313
10361TIP3    H252575   2.350   2.141   5.000 -1.8601 -1.3360  0.3981
10362TIP3   OH252576   0.800   6.772  13.681 -0.7263 -0.3177  0.4731
10362TIP3    H152577   0.719   6.763  13.631 -1.6192  3.1746  1.0455
10362TIP3    H252578   0.851   6.836  13.631  0.7445 -0.8049  1.2979
10363TIP3   OH252579   4.614   5.301  13.785 -0.6723 -0.4655 -0.5011
10363TIP3    H152580   4.629   5.335  13.873  0.6506 -0.3465 -0.7467
10363TIP3    H252581   4.546   5.235  13.796  0.1400 -1.1279  0.7832
10364TIP3   OH252582   2.841   5.226  12.352  0.1606 -0.0632 -0.0558
10364TIP3    H152583   2.865   5.274  12.431  0.7243 -1.3196  0.5641
10364TIP3    H252584   2.815   5.293  12.290 -0.6569  0.9440  1.3167
10365TIP3   OH252585   4.162   4.192   2.137  0.2407  0.0303  0.0807
10365TIP3    H152586   4.075   4.153   2.144 -0.1857  0.2518 -2.7570
10365TIP3    H252587   4.168   4.251   2.212 -2.7239  1.1875 -0.4424
10366TIP3   OH252588   1.413   6.433  13.484 -0.0542  0.2886 -0.1572
10366TIP3    H152589   1.468   6.387  13.547 -0.4795 -0.0185 -0.0056
10366TIP3    H252590   1.324   6.408  13.508 -0.2467  0.6020 -0.5416
10367TIP3   OH252591   6.848   4.844  13.297  0.0492  0.1209 -0.3589
10367TIP3    H152592   6.759   4.822  13.324 -0.0026  0.3823 -0.3156
10367TIP3    H252593   6.851   4.820  13.204 -0.3241  0.8778 -0.5756
10368TIP3   OH252594   3.855   0.632   1.868 -0.2993 -0.0696 -0.0916
10368TIP3    H152595   3.777   0.684   1.850  0.1939  1.4832  1.8942
10368TIP3    H252596   3.829   0.576   1.942  0.2477 -0.0275  0.1331
10369TIP3   OH252597   0.321   1.077   3.790  0.0708 -0.4104 -0.4675
10369TIP3    H152598   0.407   1.045   3.815 -0.0590 -0.3087  0.1360
10369TIP3    H252599   0.294   1.021   3.717  0.5331 -0.6085 -0.4856
10370TIP3   OH252600   6.159   1.071   4.199 -0.1171  0.1062  0.1840
10370TIP3    H152601   6.130   1.053   4.288 -0.2484  0.5804  0.2403
10370TIP3    H252602   6.253   1.055   4.200 -0.2468 -0.7317  0.1849
10371TIP3   OH252603   5.805   6.375   4.290 -0.6704 -0.8727 -0.0943
10371TIP3    H152604   5.866   6.444   4.263 -2.3414  0.2811 -1.0582
10371TIP3    H252605   5.837   6.349   4.377  1.2397 -0.3847 -0.6097
10372TIP3   OH252606   6.801   2.621   3.729  0.2659 -0.4360 -0.2792
10372TIP3    H152607   6.780   2.536   3.690  1.0074 -0.3358 -0.9379
10372TIP3    H252608   6.717   2.666   3.738  0.0516 -0.5179 -1.6780
10373TIP3   OH252609   1.259   4.100   0.647  0.2086 -0.2387 -0.1375
10373TIP3    H152610   1.186   4.162   0.647 -0.1487 -0.6443 -1.2223
10373TIP3    H252611   1.249   4.051   0.728 -0.7233 -0.2907 -0.2760
10374TIP3   OH252612   5.294   2.986   3.837 -0.3561  0.1948 -0.0120
10374TIP3    H152613   5.231   2.923   3.801 -0.4336 -0.0876  0.5966
10374TIP3    H252614   5.379   2.946   3.822 -0.3522  0.3574 -0.4178
10375TIP3   OH252615   1.505   3.625  13.118 -0.1329 -0.6143  0.2290
10375TIP3    H152616   1.506   3.529  13.122  2.0324 -0.6170  0.4412
10375TIP3    H252617   1.538   3.653  13.204  2.0473  0.2388 -0.8256
10376TIP3   OH252618   0.378   0.246   2.809 -0.6363  0.1027 -0.6178
10376TIP3    H152619   0.391   0.197   2.891  2.1097 -1.3350 -1.7993
10376TIP3    H252620   0.288   0.226   2.784 -0.8075 -1.2615  0.8824
10377TIP3   OH252621   4.706   3.308   4.965 -0.0244 -0.1313 -0.9717
10377TIP3    H152622   4.654   3.347   4.895 -0.2185  1.3843 -0.0469
10377TIP3    H252623   4.774   3.258   4.920  0.0512  1.0527 -2.2393
10378TIP3   OH252624   4.427   3.414   1.812  0.1316 -0.4815  0.8184
10378TIP3    H152625   4.508   3.371   1.840 -0.1718 -1.6646 -0.0870
10378TIP3    H252626   4.360   3.347   1.819 -0.4987  0.0581  0.1049
10379TIP3   OH252627   2.489   6.361   2.408 -0.2303  0.4446 -0.0120
10379TIP3    H152628   2.579   6.330   2.400 -0.1084  0.4829  1.0377
10379TIP3    H252629   2.437   6.282   2.418 -0.2188  0.4607  0.1723
10380TIP3   OH252630   3.186   7.106   3.441 -0.3641 -0.3190 -0.4786
10380TIP3    H152631   3.157   7.194   3.419 -1.3429 -1.2142 -3.1769
10380TIP3    H252632   3.256   7.087   3.379 -2.1241 -2.4184 -1.9825
10381TIP3   OH252633   0.029   4.643  15.640  0.0275  0.0676  0.5886
10381TIP3    H152634   0.015   4.597  15.723  2.6908  0.3331  1.2934
10381TIP3    H252635   0.082   4.719  15.664 -0.0065  0.7246 -1.2386
10382TIP3   OH252636   2.064   3.928   0.907 -0.5110  0.6026  0.9529
10382TIP3    H152637   2.095   4.018   0.912 -1.1350  0.9265 -0.5350
10382TIP3    H252638   1.976   3.931   0.944 -0.7368  0.7157  0.4112
10383TIP3   OH252639   3.699   3.232  13.145 -0.1864  0.2597 -0.0401
10383TIP3    H152640   3.607   3.215  13.123  0.6378  0.0678 -4.2149
10383TIP3    H252641   3.720   3.313  13.098  2.1664 -0.5940 -0.5919
10384TIP3   OH252642   1.831   3.200  12.533 -0.1833 -0.1923 -0.0380
10384TIP3    H152643   1.740   3.219  12.556  0.8517  3.1770  2.0857
10384TIP3    H252644   1.873   3.179  12.617  1.2860 -0.2115 -0.7437
10385TIP3   OH252645   0.063   3.047  12.201  0.3075  0.4436  0.1211
10385TIP3    H152646   0.047   3.005  12.285 -1.0309  1.2575  0.3105
10385TIP3    H252647   0.121   2.987  12.154 -0.3902 -0.8980  0.9177
10386TIP3   OH252648   2.273   0.818   0.896 -0.0742 -0.0764 -0.3788
10386TIP3    H152649   2.255   0.906   0.864 -2.4546 -0.1098  0.6234
10386TIP3    H252650   2.271   0.763   0.818  1.1850  0.6848 -0.9842
10387TIP3   OH252651   1.765   2.700   2.685 -0.8093 -0.3272 -0.6462
10387TIP3    H152652   1.850   2.667   2.713  0.0052  1.7082 -0.5495
10387TIP3    H252653   1.785   2.779   2.635 -2.5670 -0.6650 -2.0027
10388TIP3   OH252654   5.353   1.369   4.517 -0.0054  0.1905 -0.3799
10388TIP3    H152655   5.404   1.294   4.546 -0.9132 -0.1247  0.4531
10388TIP3    H252656   5.287   1.381   4.585 -1.1213  0.5044 -1.4813
10389TIP3   OH252657   6.558   6.518   5.004  0.0323 -0.3142 -0.1998
10389TIP3    H152658   6.560   6.608   5.036 -0.0410 -0.1494 -0.6588
10389TIP3    H252659   6.650   6.493   4.997  0.0509 -0.5333  0.6269
10390TIP3   OH252660   1.727   0.236   4.125  0.5071  0.3180  0.0244
10390TIP3    H152661   1.704   0.160   4.178 -0.5593  0.3664 -0.3495
10390TIP3    H252662   1.800   0.206   4.071  1.0430  0.0081  0.8986
10391TIP3   OH252663   5.185   2.752   5.612  0.0171 -0.0778  0.4495
10391TIP3    H152664   5.251   2.819   5.632  0.3961 -0.0478 -0.7982
10391TIP3    H252665   5.103   2.800   5.608  0.3900  0.5125 -1.2287
10392TIP3   OH252666   4.956   0.650   4.600 -0.2341 -0.3973  0.5356
10392TIP3    H152667   5.005   0.701   4.536 -1.3142  1.8685  1.4183
10392TIP3    H252668   4.972   0.694   4.683 -1.1518 -1.5610  1.3568
10393TIP3   OH252669   5.827   5.339   9.927 -0.1526  0.2108 -0.3482
10393TIP3    H152670   5.876   5.259   9.947 -1.6481  0.0006  3.0918
10393TIP3    H252671   5.894   5.406   9.916  1.1399 -1.3627 -3.1805
10394TIP3   OH252672   5.435   3.509  11.821 -0.3220  0.1588 -0.3375
10394TIP3    H152673   5.345   3.532  11.845 -0.3480  0.7258 -0.9736
10394TIP3    H252674   5.436   3.511  11.725  0.9065  2.2730 -0.3271
10395TIP3   OH252675   5.876   3.143  12.260  0.2570 -0.4674 -0.2237
10395TIP3    H152676   5.807   3.208  12.249  0.3225 -0.4038 -0.2623
10395TIP3    H252677   5.954   3.184  12.221  0.5069 -0.2282  0.5080
10396TIP3   OH252678   3.668   4.767   2.093 -0.4258 -0.7808  0.3158
10396TIP3    H152679   3.701   4.692   2.045 -0.3993 -0.9162  0.5464
10396TIP3    H252680   3.740   4.794   2.150  0.6130  1.1760 -1.7703
10397TIP3   OH252681   6.039   1.342   2.706 -0.1863  0.6518 -0.3355
10397TIP3    H152682   5.946   1.345   2.682 -0.7388 -3.0289  0.7731
10397TIP3    H252683   6.082   1.307   2.628 -0.2320 -0.5030  0.1438
10398TIP3   OH252684   0.246   3.786  10.233 -0.7927 -0.3110 -0.1484
10398TIP3    H152685   0.222   3.835  10.312  1.3968 -2.8356  2.2591
10398TIP3    H252686   0.211   3.698  10.248  1.1703 -1.3113 -1.1424
10399TIP3   OH252687   2.677   2.703  10.465 -0.3574  0.0561  0.4925
10399TIP3    H152688   2.605   2.646  10.439 -1.8641  1.1382  2.1241
10399TIP3    H252689   2.733   2.708  10.387 -1.3619 -1.7797 -0.4168
10400TIP3   OH252690   4.622   0.242   3.052  1.2000  0.7141 -0.5979
10400TIP3    H152691   4.668   0.285   3.124 -0.0318  2.1440 -0.6137
10400TIP3    H252692   4.532   0.234   3.082  1.2299 -1.3473 -0.8645
10401TIP3   OH252693   6.037   6.136  13.080 -0.0161  0.2041  0.1443
10401TIP3    H152694   6.072   6.083  13.152  0.7339  1.8003  1.0010
10401TIP3    H252695   6.099   6.124  13.009  0.3087  0.1824  0.4291
10402TIP3   OH252696   6.200   0.745  10.662 -0.1655  0.0839 -0.1206
10402TIP3    H152697   6.196   0.787  10.749  0.3326 -0.8107  0.3418
10402TIP3    H252698   6.236   0.658  10.679 -1.6797 -0.7575 -0.9911
10403TIP3   OH252699   4.037   0.455  14.606  0.0716  0.5404 -0.4845
10403TIP3    H152700   4.010   0.508  14.681 -1.6808 -0.7109 -0.1424
10403TIP3    H252701   4.002   0.367  14.626 -0.0093  0.0632 -2.5199
10404TIP3   OH252702   0.829   3.237   2.482  0.4595  0.2442 -0.2330
10404TIP3    H152703   0.853   3.208   2.394  0.9157 -2.6543  0.7631
10404TIP3    H252704   0.758   3.179   2.508  1.5107 -0.1653  1.9666
10405TIP3   OH252705   6.243   6.615   3.685  0.1154 -0.1500 -0.5229
10405TIP3    H152706   6.295   6.580   3.757 -1.6033 -1.9020 -0.0236
10405TIP3    H252707   6.304   6.668   3.634  1.9820 -0.9126  0.8060
10406TIP3   OH252708   3.351   2.164   4.659  0.2416  0.0870 -0.2961
10406TIP3    H152709   3.355   2.069   4.675  1.1089  0.3217  1.0313
10406TIP3    H252710   3.399   2.176   4.577  1.5056 -0.4774  0.3242
10407TIP3   OH252711   7.043   3.808   3.085  0.4007  0.0592 -0.4561
10407TIP3    H152712   7.108   3.760   3.136 -0.6245 -1.3377 -0.4045
10407TIP3    H252713   7.056   3.779   2.995  0.7844  0.8737 -0.6690
10408TIP3   OH252714   2.091   4.148   3.113 -0.1523 -0.0610  0.1724
10408TIP3    H152715   1.999   4.131   3.133  0.5086 -1.7821  2.0278
10408TIP3    H252716   2.097   4.243   3.105 -1.9287  0.1346  0.8781
10409TIP3   OH252717   0.469   5.596   1.710 -0.0300  0.3558  0.7352
10409TIP3    H152718   0.547   5.560   1.752  0.7015 -1.2771 -1.7959
10409TIP3    H252719   0.503   5.661   1.648 -0.8694  0.9631  0.8864
10410TIP3   OH252720   7.020   2.603  11.008  0.1813  0.2989 -0.3113
10410TIP3    H152721   6.944   2.553  11.040 -0.0217 -0.4341 -1.8374
10410TIP3    H252722   6.989   2.693  11.004  0.1781  0.4044  1.3698
10411TIP3   OH252723   6.277   6.947   4.208 -0.2147  0.5372  0.0873
10411TIP3    H152724   6.248   6.981   4.293 -0.1472 -0.0361  0.3431
10411TIP3    H252725   6.274   6.852   4.218  1.6612  0.4526  0.1031
10412TIP3   OH252726   1.377   5.908   4.072 -0.2041  0.3080  0.0665
10412TIP3    H152727   1.420   5.869   4.148 -0.0644  0.7217  0.2045
10412TIP3    H252728   1.340   5.990   4.106 -0.7979  0.1229 -0.1332
10413TIP3   OH252729   1.825   6.394  14.471  0.3978 -0.4165 -0.5405
10413TIP3    H152730   1.775   6.361  14.396 -0.6004 -1.3972  0.5242
10413TIP3    H252731   1.904   6.339  14.472 -1.0214 -2.6175  0.9164
10414TIP3   OH252732   1.797   1.042   4.892 -0.6523  0.0374  0.4252
10414TIP3    H152733   1.752   1.019   4.973 -3.0708  0.5954 -0.6684
10414TIP3    H252734   1.821   1.134   4.903 -1.9623  0.4296  0.1170
10415TIP3   OH252735   5.229   1.805  13.205  0.0375 -0.4660 -0.3990
10415TIP3    H152736   5.278   1.884  13.183  0.4058 -0.4433  0.4569
10415TIP3    H252737   5.151   1.809  13.149  0.4410  0.0911 -0.9364
10416TIP3   OH252738   5.210   3.105   2.247 -0.0534 -0.1372 -0.3727
10416TIP3    H152739   5.207   3.021   2.201  1.5763 -0.5778  0.2659
10416TIP3    H252740   5.280   3.153   2.204  0.7383 -0.1207  0.8900
10417TIP3   OH252741   2.341   5.704   2.254 -0.0062  0.3404 -0.0188
10417TIP3    H152742   2.253   5.710   2.217 -0.4632 -0.3936  0.9051
10417TIP3    H252743   2.396   5.754   2.194 -1.1488  1.2899 -0.2992
10418TIP3   OH252744   2.381   0.910   4.200  0.3460 -0.5809 -0.2716
10418TIP3    H152745   2.313   0.915   4.132  1.3659  0.7365 -1.2599
10418TIP3    H252746   2.414   0.821   4.194 -0.6371 -0.9447 -0.4450
10419TIP3   OH252747   4.433   0.372  10.614  0.2894  0.1259 -0.6915
10419TIP3    H152748   4.457   0.359  10.523  0.9911  0.0721 -0.5063
10419TIP3    H252749   4.357   0.315  10.627  0.8582 -0.7157 -0.9576
10420TIP3   OH252750   6.196   6.959  10.672  0.3287  0.0188 -0.2279
10420TIP3    H152751   6.164   6.894  10.734  0.8662  0.4252  0.4986
10420TIP3    H252752   6.246   6.909  10.608  1.7884 -0.2062  1.0046
10421TIP3   OH252753   0.997   4.488   4.426 -0.2932  0.6515  0.0715
10421TIP3    H152754   0.987   4.474   4.332 -1.0037  1.6614 -0.0216
10421TIP3    H252755   0.986   4.582   4.437 -0.7345  0.4759  1.2308
10422TIP3   OH252756   3.192   2.985   2.487  0.1847  0.5283 -0.0304
10422TIP3    H152757   3.135   2.931   2.431 -2.4974  0.9600  2.0382
10422TIP3    H252758   3.144   3.067   2.497  1.9697  1.5380  0.6155
10423TIP3   OH252759   3.737   6.141   1.321  0.3588 -0.4102  0.0231
10423TIP3    H152760   3.754   6.090   1.242 -0.2906 -0.2059 -0.2532
10423TIP3    H252761   3.795   6.103   1.387 -0.0910 -1.5041 -0.1842
10424TIP3   OH252762   3.837   6.911  13.392  0.2104  0.1813 -0.2808
10424TIP3    H152763   3.801   6.847  13.331 -0.5057  0.8897 -0.6203
10424TIP3    H252764   3.793   6.893  13.475  0.0604  0.1997 -0.3575
10425TIP3   OH252765   3.204   4.301  12.252  0.1518 -0.4517  0.4589
10425TIP3    H152766   3.189   4.289  12.345 -0.6477  0.1677  0.4229
10425TIP3    H252767   3.136   4.362  12.224  3.1811  3.2990  0.4209
10426TIP3   OH252768   1.969   2.955   4.302 -0.2730  0.0427 -0.3402
10426TIP3    H152769   2.049   2.904   4.313 -1.0140 -1.0688  0.1081
10426TIP3    H252770   1.970   3.017   4.375 -0.3819 -0.7637  0.3684
10427TIP3   OH252771   6.554   6.596  10.549 -0.5499 -0.4498 -0.2762
10427TIP3    H152772   6.471   6.608  10.504 -1.2090 -0.2880  0.9481
10427TIP3    H252773   6.604   6.536  10.492 -1.2730 -0.1121 -1.2867
10428TIP3   OH252774   2.083   7.046   5.300  0.0637  0.2431  0.1521
10428TIP3    H152775   2.065   7.084   5.214  0.2745  0.3744  0.1661
10428TIP3    H252776   2.032   7.100   5.361  0.7903  0.8577  0.2351
10429TIP3   OH252777   2.487   5.303   3.496 -0.0652 -0.2793  0.4934
10429TIP3    H152778   2.532   5.332   3.417 -0.7428 -0.9663 -0.1628
10429TIP3    H252779   2.459   5.384   3.540 -0.2505  0.0930 -0.3047
10430TIP3   OH252780   4.321   2.213   3.964  0.1212 -0.5423  0.1656
10430TIP3    H152781   4.272   2.284   4.006  0.2797 -0.2471 -0.1384
10430TIP3    H252782   4.385   2.258   3.909 -0.7308 -0.9197 -1.1644
10431TIP3   OH252783   0.079   4.405  11.136 -0.2897 -0.1093 -0.3079
10431TIP3    H152784   0.158   4.356  11.113 -0.2971  0.9240 -2.9206
10431TIP3    H252785   0.107   4.467  11.203  0.2486 -2.0500  1.3482
10432TIP3   OH252786   4.390   5.156   2.479  0.0120  0.4065  0.6034
10432TIP3    H152787   4.329   5.211   2.430 -0.2968  0.8795  1.5122
10432TIP3    H252788   4.477   5.193   2.459 -0.1174  0.6470  0.4814
10433TIP3   OH252789   7.021   3.772  12.093  0.0546  0.4294 -0.1507
10433TIP3    H152790   7.063   3.697  12.137  0.4277  0.6831 -0.0726
10433TIP3    H252791   7.087   3.804  12.032  0.3794  1.4834  0.7167
10434TIP3   OH252792   5.380   0.312   3.565 -0.0057 -0.0492  0.3506
10434TIP3    H152793   5.296   0.341   3.600 -0.5565 -0.1652 -0.8447
10434TIP3    H252794   5.376   0.333   3.472  1.2971 -0.0547  0.2736
10435TIP3   OH252795   2.487   4.541  11.058  0.1241 -0.2074  0.0143
10435TIP3    H152796   2.468   4.600  11.130 -2.3817 -0.4179 -0.3826
10435TIP3    H252797   2.418   4.475  11.062  0.3534 -0.6551 -2.1027
10436TIP3   OH252798   0.606   2.487   1.249 -0.0065  0.2420  0.1079
10436TIP3    H152799   0.622   2.445   1.334  1.7252 -1.3610 -0.9370
10436TIP3    H252800   0.570   2.418   1.194  1.3684  0.5087 -1.1968
10437TIP3   OH252801   3.617   5.778   3.402  0.9634  0.3358 -0.7079
10437TIP3    H152802   3.702   5.743   3.374  0.7781 -0.2897 -0.5114
10437TIP3    H252803   3.559   5.761   3.328  1.1877  1.5224 -1.1841
10438TIP3   OH252804   2.470   5.712  15.324  0.2062  0.7107 -0.3072
10438TIP3    H152805   2.477   5.808  15.324 -0.5662  0.7970 -1.6082
10438TIP3    H252806   2.432   5.691  15.409 -3.5398  1.9759 -1.4596
10439TIP3   OH252807   0.424   6.561  14.545  0.5314 -0.2170 -0.0574
10439TIP3    H152808   0.343   6.575  14.594 -0.1150 -0.1371 -1.1297
10439TIP3    H252809   0.419   6.470  14.516  0.8331 -0.2137 -0.1196
10440TIP3   OH252810   5.680   3.570  11.345  0.0014 -0.1191 -0.2347
10440TIP3    H152811   5.631   3.559  11.264  0.2730 -1.1520 -0.2767
10440TIP3    H252812   5.758   3.515  11.333  0.3610  0.2288  0.4641
10441TIP3   OH252813   6.250   4.343   2.112  0.2839  0.0022 -0.3157
10441TIP3    H152814   6.232   4.321   2.021  1.4597  0.2918 -0.6384
10441TIP3    H252815   6.346   4.338   2.119  0.1866 -0.3061  0.9779
10442TIP3   OH252816   4.777   0.190   1.271 -0.2179  0.3349  0.4867
10442TIP3    H152817   4.799   0.277   1.237  1.8189 -0.3012  0.0243
10442TIP3    H252818   4.772   0.134   1.193  0.1428 -0.2721  0.8915
10443TIP3   OH252819   6.074   4.584  15.085  0.4021 -0.1271 -0.2487
10443TIP3    H152820   6.020   4.548  15.155  0.1622  1.5750  0.4947
10443TIP3    H252821   6.018   4.582  15.007 -0.4419  0.7347  0.3050
10444TIP3   OH252822   4.421   4.125   1.548 -0.2238  0.2919  0.4116
10444TIP3    H152823   4.386   4.084   1.627 -1.6397 -1.3430 -0.9816
10444TIP3    H252824   4.415   4.219   1.565 -1.1111 -0.0110  1.9634
10445TIP3   OH252825   2.415   3.831  15.576  0.5521 -0.4509  0.5575
10445TIP3    H152826   2.404   3.746  15.618 -1.2129 -1.0486 -0.9933
10445TIP3    H252827   2.333   3.878  15.594  0.8682  0.3191  0.0536
10446TIP3   OH252828   7.111   0.886  14.055  0.1930 -0.2222  0.4808
10446TIP3    H152829   7.162   0.966  14.049  0.9547 -0.6356  1.2155
10446TIP3    H252830   7.091   0.877  14.148 -0.0212 -0.7989  0.3840
10447TIP3   OH252831   1.331   6.542   4.770  0.1448  0.0205 -0.3255
10447TIP3    H152832   1.357   6.634   4.771  0.9361 -0.1974 -0.1086
10447TIP3    H252833   1.406   6.496   4.731  0.5240 -0.7503  1.2282
10448TIP3   OH252834   1.586   0.014  11.017  0.4034  0.7160 -0.1897
10448TIP3    H152835   1.663  -0.033  10.986  0.4718 -0.1671  1.2194
10448TIP3    H252836   1.532   0.025  10.939  0.5665 -1.3885 -0.6762
10449TIP3   OH252837   0.838   3.610   3.483  0.2625 -0.2352  0.2108
10449TIP3    H152838   0.806   3.683   3.430  2.2244 -0.2259 -1.1038
10449TIP3    H252839   0.760   3.559   3.504 -1.2136  2.3218  1.3811
10450TIP3   OH252840   4.294   1.057   1.830 -0.4678  0.1743 -0.2027
10450TIP3    H152841   4.274   1.002   1.906 -2.8693 -0.9459 -1.5079
10450TIP3    H252842   4.297   0.995   1.756  1.2541  1.2867 -1.1194
10451TIP3   OH252843   2.549   4.571   3.454  0.0885 -0.2017  0.3018
10451TIP3    H152844   2.591   4.558   3.369 -0.3189 -1.6893  0.3033
10451TIP3    H252845   2.610   4.533   3.517 -0.4574 -0.8355  0.4661
10452TIP3   OH252846   1.219   6.171   0.614 -0.4902  0.7345  0.1990
10452TIP3    H152847   1.149   6.138   0.671 -0.2874 -1.4814 -0.7492
10452TIP3    H252848   1.288   6.198   0.675  0.2746 -2.8014  1.0961
10453TIP3   OH252849   6.345   7.087  13.655  0.0290 -0.1129  0.4641
10453TIP3    H152850   6.321   7.005  13.611 -2.5858  0.0746  1.3790
10453TIP3    H252851   6.274   7.148  13.633  1.0685  1.4204  1.1498
10454TIP3   OH252852   6.934   3.307   5.210  0.1804  0.0277 -0.2795
10454TIP3    H152853   6.953   3.227   5.161 -0.4675 -0.0395 -0.4292
10454TIP3    H252854   7.004   3.312   5.276  2.5446  1.3811 -2.6546
10455TIP3   OH252855   0.403   5.517  13.774  0.1819 -0.7784  1.2384
10455TIP3    H152856   0.347   5.443  13.800 -0.6060 -0.8004 -0.3435
10455TIP3    H252857   0.437   5.491  13.688  0.0752  0.6030  0.7638
10456TIP3   OH252858   1.165   0.426   5.444  0.1999  0.1002  0.4385
10456TIP3    H152859   1.076   0.449   5.417  0.5349  1.0855  0.1663
10456TIP3    H252860   1.157   0.410   5.538 -0.5386 -1.2472  0.1850
10457TIP3   OH252861   3.624   0.016   2.033 -0.2468  0.6349 -0.2611
10457TIP3    H152862   3.635   0.111   2.022  0.8358  0.4543 -0.8663
10457TIP3    H252863   3.709  -0.021   2.009 -0.1259 -0.3777  1.5615
10458TIP3   OH252864   3.019   6.253   0.746  0.0629 -0.4983 -0.4748
10458TIP3    H152865   2.996   6.173   0.793 -1.5105  0.3394  0.2694
10458TIP3    H252866   3.108   6.238   0.714  0.0061 -2.3074  0.1258
10459TIP3   OH252867   3.616   5.702   2.138  0.3263  0.5974 -0.0689
10459TIP3    H152868   3.619   5.796   2.154 -0.1247  0.6636 -0.3700
10459TIP3    H252869   3.529   5.686   2.103  1.3360  0.5005 -2.7786
10460TIP3   OH252870   4.409   4.828  13.596 -0.1310  0.1621 -0.0641
10460TIP3    H152871   4.386   4.735  13.596  0.4240 -0.1307  3.8638
10460TIP3    H252872   4.329   4.873  13.622  0.2106  0.5068  0.4156
10461TIP3   OH252873   6.541   5.268   1.352 -0.0306 -0.4372  0.1536
10461TIP3    H152874   6.529   5.323   1.429 -1.1385  1.3309 -1.2013
10461TIP3    H252875   6.453   5.247   1.322  0.3743 -1.3378 -0.4916
10462TIP3   OH252876   6.402   4.221   2.882 -0.5335  0.1093 -0.0352
10462TIP3    H152877   6.476   4.195   2.828 -0.1924  1.1399 -0.0708
10462TIP3    H252878   6.422   4.187   2.969 -0.0600  0.3100 -0.0650
10463TIP3   OH252879   6.499   4.878   4.453  0.4505  0.4489  0.0981
10463TIP3    H152880   6.420   4.904   4.500 -0.3146 -2.0269  0.2748
10463TIP3    H252881   6.539   4.961   4.427 -1.9208  1.7723  0.4207
10464TIP3   OH252882   6.039   1.726  15.380  0.1668  0.1793  0.2516
10464TIP3    H152883   6.084   1.809  15.394  1.5366 -0.5141  0.1419
10464TIP3    H252884   6.000   1.705  15.465  0.1377  0.7389  0.3808
10465TIP3   OH252885   1.641   6.214  12.233 -0.7805 -0.7098 -0.2808
10465TIP3    H152886   1.687   6.136  12.202  0.4214  0.2066 -0.9183
10465TIP3    H252887   1.581   6.183  12.300  0.6327 -2.0046  0.4370
10466TIP3   OH252888   1.100   1.073  14.795  0.1726 -0.6857  0.1203
10466TIP3    H152889   1.012   1.035  14.790  0.0260 -0.3716  0.3140
10466TIP3    H252890   1.088   1.156  14.841  0.4597 -0.2924 -0.5070
10467TIP3   OH252891   2.257   6.038  15.099 -0.0114 -0.2142 -0.5017
10467TIP3    H152892   2.259   6.001  15.186  1.4862 -2.0119 -1.2526
10467TIP3    H252893   2.225   5.968  15.043 -1.9727  1.2243 -1.3110
10468TIP3   OH252894   2.150   1.813   3.414 -0.2977 -0.4332 -0.0715
10468TIP3    H152895   2.149   1.727   3.370  1.0620 -0.3774 -0.2698
10468TIP3    H252896   2.224   1.807   3.475 -0.5731  0.3891  0.3489
10469TIP3   OH252897   1.602   0.482   4.384  0.1073  0.2430 -0.3827
10469TIP3    H152898   1.642   0.562   4.417  0.2757  0.5078 -1.1970
10469TIP3    H252899   1.631   0.476   4.293 -0.2276 -0.5325 -0.4531
10470TIP3   OH252900   6.072   2.028   3.182 -0.2036 -0.4038 -0.4147
10470TIP3    H152901   6.009   2.099   3.194  0.6871  0.3284  0.0582
10470TIP3    H252902   6.150   2.070   3.145  1.0947 -0.7126  1.7417
10471TIP3   OH252903   3.638   1.900   4.116  0.0357 -0.0894  0.3499
10471TIP3    H152904   3.573   1.948   4.064 -0.6593 -0.3797  0.9469
10471TIP3    H252905   3.592   1.875   4.196  0.8948 -0.2634  0.8017
10472TIP3   OH252906   4.554   2.870  15.727 -0.1219  0.4833  0.0924
10472TIP3    H152907   4.618   2.799  15.738 -0.6223  0.2495  1.6252
10472TIP3    H252908   4.598   2.948  15.762  0.0848  0.7757 -0.7716
10473TIP3   OH252909   2.103   2.408  12.113  0.9903  0.1906 -0.3117
10473TIP3    H152910   2.102   2.440  12.023  0.4814  1.8076  0.2346
10473TIP3    H252911   2.151   2.475  12.162 -0.1498  0.1730  0.8943
10474TIP3   OH252912   3.166   0.147  13.652  0.1881  0.4198 -0.9163
10474TIP3    H152913   3.191   0.204  13.580 -0.5693  0.1762 -1.3869
10474TIP3    H252914   3.141   0.207  13.723  1.6271  0.6617 -0.5823
10475TIP3   OH252915   1.340   6.628   3.484  0.7617  0.2489 -0.7260
10475TIP3    H152916   1.283   6.664   3.417  0.1294  0.3533 -0.1423
10475TIP3    H252917   1.405   6.577   3.436 -1.0542 -1.6399 -1.3206
10476TIP3   OH252918   0.076   2.451   2.612  0.6221 -1.0332  0.0474
10476TIP3    H152919   0.145   2.414   2.557  1.2852 -0.0249  0.1683
10476TIP3    H252920   0.049   2.530   2.565 -0.1960 -1.2212  0.1936
10477TIP3   OH252921   4.732   3.109   6.054 -0.7057 -0.3552 -0.1783
10477TIP3    H152922   4.662   3.174   6.051 -0.1955  0.2096 -0.2476
10477TIP3    H252923   4.786   3.136   6.129 -1.8851 -2.2049  1.4106
10478TIP3   OH252924   0.806   6.206   5.977 -0.2008 -0.4982 -0.8916
10478TIP3    H152925   0.787   6.295   6.006 -0.7645 -0.6560 -0.7660
10478TIP3    H252926   0.838   6.217   5.887  0.6215 -0.0963 -0.5599
10479TIP3   OH252927   1.950   5.036   4.876 -0.1698 -0.0589  0.0300
10479TIP3    H152928   1.999   5.060   4.797  0.7166  0.0647  0.5993
10479TIP3    H252929   1.938   5.119   4.922  0.0015 -0.2397  0.4013
10480TIP3   OH252930   1.199   4.251   3.309  0.1276 -0.0009  0.4851
10480TIP3    H152931   1.277   4.282   3.262  1.1940 -0.1710  2.0662
10480TIP3    H252932   1.196   4.157   3.291  1.1371 -0.2605  1.5250
10481TIP3   OH252933   5.555   5.783  13.811 -0.2183 -0.4945  0.1263
10481TIP3    H152934   5.493   5.780  13.884  0.8305 -0.8112  1.0369
10481TIP3    H252935   5.594   5.871  13.817 -1.4813  0.2014 -1.2501
10482TIP3   OH252936   2.184   2.503  11.871 -0.3778  0.1218  0.1481
10482TIP3    H152937   2.166   2.522  11.779 -2.4681  0.0118  0.4835
10482TIP3    H252938   2.182   2.588  11.914  0.4540  0.1573  0.1346
10483TIP3   OH252939   3.511   3.067  13.487  0.4050 -0.0773  0.0516
10483TIP3    H152940   3.541   3.018  13.564 -0.8889 -0.7041  0.1940
10483TIP3    H252941   3.533   3.010  13.413  1.1276  0.2639 -0.0046
10484TIP3   OH252942   6.814   1.005  13.469  0.2213 -0.2240  0.4176
10484TIP3    H152943   6.858   1.058  13.403  0.8621 -2.1818 -0.8441
10484TIP3    H252944   6.871   1.010  13.546  1.4080 -0.7488 -0.3850
10485TIP3   OH252945   0.130   1.696  10.032 -0.8145  0.0294 -0.1745
10485TIP3    H152946   0.087   1.779  10.048 -0.7554 -0.0956  0.6783
10485TIP3    H252947   0.064   1.642   9.990 -1.0590  0.2938 -0.1283
10486TIP3   OH252948   0.315   0.372   3.595 -0.0920 -0.1303  0.2481
10486TIP3    H152949   0.409   0.355   3.597 -0.1290 -0.4127 -0.0693
10486TIP3    H252950   0.304   0.440   3.529 -0.0231  0.5510  0.9396
10487TIP3   OH252951   1.558   5.682   3.680 -0.2925  0.1496  0.3372
10487TIP3    H152952   1.646   5.691   3.644 -0.3884 -1.2438 -0.3113
10487TIP3    H252953   1.558   5.736   3.759  0.8977  0.7669 -0.0698
10488TIP3   OH252954   5.067   1.824  12.994  0.5766 -0.1833 -0.2074
10488TIP3    H152955   5.094   1.915  12.985  1.1355 -0.3664 -0.4319
10488TIP3    H252956   4.971   1.827  12.993  0.5890  0.4275  0.0877
10489TIP3   OH252957   3.843   4.237   1.766  0.5817  0.3385  0.1282
10489TIP3    H152958   3.778   4.304   1.742  0.2314 -0.3650 -0.9621
10489TIP3    H252959   3.912   4.286   1.812 -0.4437  1.1849  0.8327
10490TIP3   OH252960   1.026   6.314   1.964  0.1920  0.5964  0.0934
10490TIP3    H152961   0.971   6.389   1.940 -0.7014 -0.2722 -0.6778
10490TIP3    H252962   1.014   6.252   1.892  1.6994  0.1110  0.2318
10491TIP3   OH252963   3.055   1.587   5.391 -0.2316  0.1764  0.1971
10491TIP3    H152964   2.981   1.578   5.330  1.0921  0.4154 -1.5183
10491TIP3    H252965   3.016   1.622   5.471 -1.7512  1.9568 -1.2225
10492TIP3   OH252966   4.698   5.965   4.738 -0.3164 -0.1472  0.4180
10492TIP3    H152967   4.670   6.046   4.695  2.5436  1.5093  1.4226
10492TIP3    H252968   4.699   5.900   4.667  3.1856  2.2031 -2.0491
10493TIP3   OH252969   6.529   6.657   3.279 -0.4960 -0.0895 -0.4080
10493TIP3    H152970   6.512   6.701   3.196 -0.4485  0.6565 -0.0252
10493TIP3    H252971   6.612   6.612   3.266  0.1531  1.0757 -0.3488
10494TIP3   OH252972   5.461   6.866  10.650  0.1082  1.0077 -0.3958
10494TIP3    H152973   5.494   6.943  10.603 -0.9272  1.3021 -0.6776
10494TIP3    H252974   5.367   6.865  10.630 -0.1074  0.3737  0.6053
10495TIP3   OH252975   2.258   2.190  12.779 -0.1484 -0.2734 -0.0418
10495TIP3    H152976   2.303   2.213  12.698 -0.8351 -1.8892 -0.9323
10495TIP3    H252977   2.190   2.256  12.789  0.9501  0.8581  0.0863
10496TIP3   OH252978   0.010   6.051   2.605  0.2837 -0.4794 -0.6723
10496TIP3    H152979  -0.066   6.011   2.647 -0.6980  0.6974 -1.2761
10496TIP3    H252980   0.074   6.061   2.677 -1.0330  0.6921  0.4050
10497TIP3   OH252981   6.338   5.655   4.343  0.1569  0.2959 -0.5105
10497TIP3    H152982   6.384   5.683   4.422 -0.5201  1.1939 -0.4140
10497TIP3    H252983   6.303   5.569   4.365  0.6020  0.2157 -0.1007
10498TIP3   OH252984   4.974   7.005   4.993 -0.5974  0.5466  0.2196
10498TIP3    H152985   4.938   6.929   4.946  0.0942  0.8865 -0.8841
10498TIP3    H252986   4.920   7.011   5.072 -1.1197 -0.6691 -0.0118
10499TIP3   OH252987   0.029   2.533  13.966  0.6528  0.3864 -0.4254
10499TIP3    H152988   0.012   2.463  13.903 -0.5595 -0.3959  0.7036
10499TIP3    H252989   0.118   2.563  13.946  1.3155 -1.6512 -0.7917
10500TIP3   OH252990   5.540   4.942  15.551 -0.1478  0.0575 -0.2151
10500TIP3    H152991   5.615   4.952  15.492  0.0947  1.1770  0.2694
10500TIP3    H252992   5.506   5.030  15.562 -1.2898 -0.3868 -0.0806
10501TIP3   OH252993   3.037   1.243   0.043 -0.4832  0.9969 -0.0668
10501TIP3    H152994   3.059   1.150   0.041 -1.8061  0.6368  0.6324
10501TIP3    H252995   3.061   1.275  -0.044 -0.2071 -0.0539 -0.3941
10502TIP3   OH252996   4.668   3.857  15.683  0.4075 -0.4729 -0.2383
10502TIP3    H152997   4.663   3.858  15.779 -4.1975  1.4145 -0.2809
10502TIP3    H252998   4.720   3.934  15.661  1.7810 -1.1048  0.6658
10503TIP3   OH252999   4.850   1.152   5.605 -0.5101  0.0840 -0.2015
10503TIP3    H153000   4.911   1.100   5.657 -1.0057 -1.9422 -1.5243
10503TIP3    H253001   4.813   1.215   5.667 -0.7430 -1.9057  1.8285
10504TIP3   OH253002   1.575   5.045  10.324 -0.5967  0.1923 -0.3199
10504TIP3    H153003   1.653   5.072  10.372  0.2611 -1.3807 -0.7662
10504TIP3    H253004   1.547   5.124  10.277  0.3484  0.9324  0.3305
10505TIP3   OH253005   6.382   5.370   4.466 -0.6125 -0.0795  1.1332
10505TIP3    H153006   6.473   5.400   4.471 -0.4202 -0.6777  1.3547
10505TIP3    H253007   6.353   5.365   4.557 -0.5695 -0.7403  1.1208
10506TIP3   OH253008   6.434   1.338  15.283  0.2007  0.2469 -0.1509
10506TIP3    H153009   6.453   1.412  15.339  1.0629 -1.7367  2.3770
10506TIP3    H253010   6.518   1.315  15.244  0.1872 -0.1257  0.0345
10507TIP3   OH253011   3.447   1.422   0.540  0.2186  0.1699 -0.0936
10507TIP3    H153012   3.355   1.406   0.517  0.2908 -0.0572 -0.2304
10507TIP3    H253013   3.451   1.516   0.556  0.2118  0.3979 -1.2961
10508TIP3   OH253014   2.763   4.086  14.506 -0.0401 -0.3198  0.9543
10508TIP3    H153015   2.721   4.170  14.490  0.1397 -0.1010  1.6081
10508TIP3    H253016   2.774   4.048  14.419 -3.4434 -1.3212  0.8113
10509TIP3   OH253017   4.412   6.472  15.664  0.8144 -0.0051 -0.9637
10509TIP3    H153018   4.359   6.454  15.586 -1.2577  1.3390  0.0781
10509TIP3    H253019   4.392   6.562  15.686  1.1115 -0.4532  1.3210
10510TIP3   OH253020   5.355   5.214  13.452  0.0538  0.0190 -0.1315
10510TIP3    H153021   5.261   5.210  13.470 -0.4679  1.5095 -2.2464
10510TIP3    H253022   5.369   5.148  13.385  0.4648  0.0219 -0.0477
10511TIP3   OH253023   2.421   4.749   5.099 -0.1184  0.4985 -0.1717
10511TIP3    H153024   2.515   4.761   5.084 -0.3313  0.3725 -1.8527
10511TIP3    H253025   2.380   4.793   5.024 -1.3337 -0.7485 -0.2792
10512TIP3   OH253026   1.071   6.039  13.385 -0.0493 -0.5646 -0.5247
10512TIP3    H153027   0.984   6.068  13.415 -0.4624 -0.5130 -1.7238
10512TIP3    H253028   1.063   6.035  13.290  1.9621  1.8084 -0.8847
10513TIP3   OH253029   4.160   5.800  13.174 -0.6568  0.4777 -0.4949
10513TIP3    H153030   4.102   5.831  13.104  1.4187  2.3766 -1.5302
10513TIP3    H253031   4.235   5.762  13.128  0.5706  1.3777  0.6654
10514TIP3   OH253032   2.448   1.469   4.221  0.4576  0.2583  0.1053
10514TIP3    H153033   2.444   1.529   4.146 -2.4748 -0.3944 -0.3870
10514TIP3    H253034   2.404   1.515   4.292  0.0494 -0.4935  0.3512
10515TIP3   OH253035   4.485   0.586   3.059 -0.1934  0.3126 -0.2210
10515TIP3    H153036   4.439   0.620   2.983  2.0482 -1.7075 -2.7023
10515TIP3    H253037   4.569   0.555   3.024  1.4171  0.1962  3.2837
10516TIP3   OH253038   6.796   0.679   0.270  0.1348 -0.9742 -0.1989
10516TIP3    H153039   6.836   0.633   0.343  1.5481  2.0121  1.0719
10516TIP3    H253040   6.702   0.666   0.282  0.4199 -2.2812  0.8941
10517TIP3   OH253041   1.556   5.472   5.425 -0.2507 -0.7817  0.4343
10517TIP3    H153042   1.605   5.552   5.442  0.9320 -1.4377  0.1996
10517TIP3    H253043   1.598   5.406   5.480 -0.0423 -1.6400 -0.7163
10518TIP3   OH253044   5.917   0.530   3.588  0.0908  0.0131  0.1791
10518TIP3    H153045   5.854   0.555   3.656 -0.8811  3.6802 -1.8416
10518TIP3    H253046   6.001   0.527   3.634 -1.0177 -1.7964  2.2908
10519TIP3   OH253047   0.421   2.462  11.860 -0.4802  0.1945  0.4310
10519TIP3    H153048   0.334   2.496  11.845 -0.9362 -0.8740  0.5617
10519TIP3    H253049   0.430   2.389  11.798  0.9637  1.3265 -0.7617
10520TIP3   OH253050   4.050   0.300   4.342 -0.4622  0.1987  0.0635
10520TIP3    H153051   4.057   0.290   4.437  1.2522 -0.1142 -0.0602
10520TIP3    H253052   4.002   0.222   4.313 -2.7896  1.2675  0.8268
10521TIP3   OH253053   1.899   1.821  12.788  0.0151  0.5568  0.0707
10521TIP3    H153054   1.841   1.752  12.820  2.0661 -1.2649  0.1659
10521TIP3    H253055   1.919   1.873  12.865 -0.8006  0.6754  0.2101
10522TIP3   OH253056   0.117   6.276   1.282  0.1202 -0.2088  0.1515
10522TIP3    H153057   0.033   6.287   1.326 -0.2347  0.2850 -0.6377
10522TIP3    H253058   0.098   6.287   1.189  0.8557 -1.2607 -0.1510
10523TIP3   OH253059   6.351   5.717  13.449  0.2062  0.3223 -0.1342
10523TIP3    H153060   6.344   5.747  13.540 -0.7540  2.0270 -0.7394
10523TIP3    H253061   6.441   5.741  13.424  0.4437 -0.0642  0.3240
10524TIP3   OH253062   6.575   6.305  11.721  0.2275 -0.3847  0.0645
10524TIP3    H153063   6.541   6.316  11.810  0.7642  0.6154  0.1610
10524TIP3    H253064   6.507   6.340  11.664  0.7043  0.7837  0.2033
10525TIP3   OH253065   6.529   1.878   0.573 -0.1343  0.5167 -0.1876
10525TIP3    H153066   6.582   1.831   0.638  0.2194  2.4831  1.0761
10525TIP3    H253067   6.563   1.849   0.489 -0.5587 -2.0909  0.4558
10526TIP3   OH253068   6.126   2.610  13.369 -0.3875 -0.3349  0.1478
10526TIP3    H153069   6.109   2.588  13.277 -0.5573 -0.4017  0.1940
10526TIP3    H253070   6.039   2.608  13.410 -0.4580  0.7404  0.0813
10527TIP3   OH253071   5.431   3.338  10.283 -0.6057 -0.0911  0.5143
10527TIP3    H153072   5.339   3.338  10.307 -0.5565 -0.0496  0.6999
10527TIP3    H253073   5.470   3.406  10.337 -0.6754  0.6648 -0.3532
10528TIP3   OH253074   0.535   3.652   0.726 -0.2144 -0.2680  0.2082
10528TIP3    H153075   0.545   3.585   0.794 -0.4298 -2.2226 -1.6038
10528TIP3    H253076   0.625   3.676   0.703 -0.0295 -1.9229 -0.9586
10529TIP3   OH253077   3.356   1.750   0.615 -0.4824  0.1373 -0.2008
10529TIP3    H153078   3.420   1.733   0.546  1.2225 -2.3408  1.8386
10529TIP3    H253079   3.372   1.842   0.640  3.6732 -0.7827  1.3907
10530TIP3   OH253080   1.496   5.486   2.797 -0.1697  0.4424  0.1666
10530TIP3    H153081   1.426   5.425   2.773 -1.4493  1.2549  1.6698
10530TIP3    H253082   1.576   5.440   2.775 -1.1437 -0.9730 -0.5787
10531TIP3   OH253083   7.110   4.408  12.520 -0.5940  0.0660 -0.1588
10531TIP3    H153084   7.160   4.489  12.507 -0.4143 -0.1593 -0.9798
10531TIP3    H253085   7.036   4.434  12.575 -0.2955  0.6898 -0.0366
10532TIP3   OH253086   1.817   4.072  15.142 -0.6315  0.0869 -0.5955
10532TIP3    H153087   1.835   3.981  15.118 -0.9937  0.2585 -1.5419
10532TIP3    H253088   1.735   4.067  15.192  0.2124 -0.2885  0.8035
10533TIP3   OH253089   4.057   3.871   4.819  0.0398  0.0403  0.0714
10533TIP3    H153090   3.982   3.828   4.859  0.6939  0.0736  1.3998
10533TIP3    H253091   4.027   3.960   4.800 -0.9830 -0.6164 -1.6990
10534TIP3   OH253092   6.540   2.825   4.558  0.3434  0.1115  0.3044
10534TIP3    H153093   6.555   2.744   4.606  1.1217 -0.4553 -0.8391
10534TIP3    H253094   6.554   2.801   4.466  0.3176  1.4742 -0.0790
10535TIP3   OH253095   2.265   6.936   0.724 -0.3140 -0.2171 -0.6809
10535TIP3    H153096   2.174   6.921   0.696 -0.4397  0.0109 -0.4024
10535TIP3    H253097   2.314   6.942   0.643 -0.6170  0.0757 -0.8473
10536TIP3   OH253098   3.904   0.280   2.531 -0.0113 -0.4965  0.0012
10536TIP3    H153099   3.904   0.282   2.435 -0.6045 -0.2099  0.0025
10536TIP3    H253100   3.833   0.221   2.554 -1.1551  0.9163  0.2701
10537TIP3   OH253101   2.319   0.850  15.061 -0.4237 -0.1191 -0.1827
10537TIP3    H153102   2.370   0.810  15.131  0.4668 -1.3267 -1.4509
10537TIP3    H253103   2.298   0.778  15.002 -1.9352  0.7034 -0.7041
10538TIP3   OH253104   3.933   5.924   4.381  0.1860  0.0920  0.1104
10538TIP3    H153105   3.865   5.901   4.318 -1.0792 -1.0217  1.7954
10538TIP3    H253106   4.009   5.873   4.353 -0.1777  0.0228 -0.8027
10539TIP3   OH253107   5.321   5.416  14.808 -0.6879 -0.7914  0.5833
10539TIP3    H153108   5.415   5.400  14.796 -0.8273 -0.3250 -1.3217
10539TIP3    H253109   5.310   5.416  14.903  1.2756 -0.6670  0.8629
10540TIP3   OH253110   6.114   6.065   3.274 -1.0964 -0.4257  0.1263
10540TIP3    H153111   6.093   6.155   3.247 -0.1877 -0.1326  0.3562
10540TIP3    H253112   6.122   6.017   3.192 -0.6338 -0.0677 -0.0470
10541TIP3   OH253113   6.531   6.083   2.487  0.8627  0.0785 -0.0639
10541TIP3    H153114   6.516   6.016   2.421 -0.6231  0.4974 -0.1754
10541TIP3    H253115   6.584   6.039   2.554  1.2080 -0.7463 -0.8604
10542TIP3   OH253116   3.467   6.219   4.868  0.3365  0.5625  0.1884
10542TIP3    H153117   3.448   6.125   4.863  0.0754  0.6128  0.1908
10542TIP3    H253118   3.390   6.260   4.829 -1.2100  0.9286  3.3079
10543TIP3   OH253119   3.135   4.402   1.334 -0.2152 -0.8716  0.2826
10543TIP3    H153120   3.196   4.418   1.406  1.1329 -3.4410 -0.1610
10543TIP3    H253121   3.187   4.419   1.255 -1.2939  0.6365 -0.1568
10544TIP3   OH253122   5.334   0.477  15.651 -0.4815  0.0483 -0.7274
10544TIP3    H153123   5.322   0.562  15.694 -1.5987  0.2140 -1.3426
10544TIP3    H253124   5.278   0.481  15.574  0.0127 -0.9872 -1.1578
10545TIP3   OH253125   4.221   3.610   0.013 -0.2153 -0.1135 -0.2138
10545TIP3    H153126   4.192   3.699   0.032  0.8368  0.1734  0.0835
10545TIP3    H253127   4.287   3.591   0.079 -1.4065 -1.6512  0.6378
10546TIP3   OH253128   3.962   5.681  15.632  0.0788 -0.2773 -0.3616
10546TIP3    H153129   3.901   5.612  15.606 -1.1192  0.2012  1.0345
10546TIP3    H253130   3.968   5.673  15.727  0.1225  1.3488 -0.1953
10547TIP3   OH253131   4.081   1.724  12.517  0.6120  0.1687 -0.8029
10547TIP3    H153132   4.111   1.810  12.546  1.3438 -0.3896  0.1556
10547TIP3    H253133   4.034   1.741  12.436 -1.2723  1.7755  0.5314
10548TIP3   OH253134   1.664   0.323  15.518  0.2096 -0.0303 -0.1179
10548TIP3    H153135   1.616   0.320  15.435  0.1043  1.9993 -0.1895
10548TIP3    H253136   1.596   0.331  15.585  0.3444  1.9585 -0.1541
10549TIP3   OH253137   2.272   4.352   2.917 -0.0833  0.0027  0.0891
10549TIP3    H153138   2.298   4.278   2.862  3.3661  2.3284 -1.7569
10549TIP3    H253139   2.190   4.382   2.880 -0.1255 -1.2486 -0.8896
10550TIP3   OH253140   3.869   4.144  11.684  0.3363 -0.0037 -0.2690
10550TIP3    H153141   3.910   4.109  11.764  1.1688 -0.2482 -0.7931
10550TIP3    H253142   3.930   4.121  11.614 -0.8220 -0.6101 -1.1143
10551TIP3   OH253143   6.837   5.454  14.211  0.1274  0.0235 -0.0162
10551TIP3    H153144   6.763   5.475  14.154  0.9484  2.2013 -0.3564
10551TIP3    H253145   6.803   5.387  14.270 -1.3172 -0.9269 -1.8193
10552TIP3   OH253146   1.789   5.065  12.527 -0.0860 -0.4490  0.0865
10552TIP3    H153147   1.871   5.106  12.499  0.1184  0.0458  1.3667
10552TIP3    H253148   1.770   5.001  12.458  1.2169 -0.3684 -0.3736
10553TIP3   OH253149   5.989   4.627   1.980  0.2364  0.1756 -0.1435
10553TIP3    H153150   6.030   4.646   2.065  0.3037 -0.8794  0.0741
10553TIP3    H253151   6.039   4.679   1.918  1.4118 -0.4470  0.2329
10554TIP3   OH253152   1.166   5.921  13.724  0.7958  0.1659  0.4450
10554TIP3    H153153   1.192   5.993  13.666 -0.7703  1.5396  1.3662
10554TIP3    H253154   1.084   5.888  13.685  0.7532 -0.1847  0.8257
10555TIP3   OH253155   6.384   0.441   3.920  0.3036  0.3351 -0.4112
10555TIP3    H153156   6.393   0.418   3.827  1.2764 -0.2553 -0.1860
10555TIP3    H253157   6.294   0.472   3.928 -0.8709 -2.6359 -0.9077
10556TIP3   OH253158   0.114   1.196  15.301  0.0487  0.0580 -0.0061
10556TIP3    H153159   0.084   1.287  15.309  0.0510  0.0532  0.0525
10556TIP3    H253160   0.179   1.199  15.230 -2.6269 -0.5362 -2.6868
10557TIP3   OH253161   6.422   2.840   0.416  0.0888  0.1950  0.5396
10557TIP3    H153162   6.437   2.898   0.341 -0.6763  0.0171  0.2325
10557TIP3    H253163   6.506   2.836   0.461  0.9346 -0.6818 -1.0156
10558TIP3   OH253164   4.830   1.132   2.799  0.2211  0.3672  0.1652
10558TIP3    H153165   4.768   1.063   2.778 -0.0936  0.5957  0.3433
10558TIP3    H253166   4.859   1.113   2.888  0.8178 -0.0451 -0.1078
10559TIP3   OH253167   2.711   6.685   3.917  0.1671 -0.0747 -0.7592
10559TIP3    H153168   2.791   6.669   3.968 -0.4303 -1.2179 -0.1547
10559TIP3    H253169   2.710   6.780   3.904  2.2489 -0.1473 -1.8266
10560TIP3   OH253170   3.759   4.817  14.371  0.1356 -0.2258 -0.1428
10560TIP3    H153171   3.708   4.892  14.339 -0.8509 -0.1191  1.5758
10560TIP3    H253172   3.850   4.841  14.355 -0.1580  1.4176  0.5016
10561TIP3   OH253173   3.190   6.727  15.525  0.1625 -0.5010 -0.0034
10561TIP3    H153174   3.137   6.655  15.559  1.8974 -2.9556 -2.1324
10561TIP3    H253175   3.270   6.686  15.495  2.9771  2.9015  2.1050
10562TIP3   OH253176   0.401   1.941  10.646 -0.3691 -0.2614 -0.8350
10562TIP3    H153177   0.444   2.021  10.676 -0.5246 -0.6665  0.5063
10562TIP3    H253178   0.454   1.912  10.572  0.2363  0.5591 -0.7352
10563TIP3   OH253179   6.764   1.971   2.856 -0.0152  0.0412  0.7888
10563TIP3    H153180   6.788   1.928   2.938 -1.0468 -2.9650 -0.3795
10563TIP3    H253181   6.798   1.914   2.788 -0.2176  1.8552 -0.9148
10564TIP3   OH253182   5.729   0.469   1.749  0.1902  0.2501  0.2176
10564TIP3    H153183   5.734   0.565   1.754 -1.6582  0.3382  1.9066
10564TIP3    H253184   5.636   0.451   1.739  0.3553 -1.4003  1.3144
10565TIP3   OH253185   6.547   1.318  14.949  0.6359  0.4524 -0.0839
10565TIP3    H153186   6.461   1.359  14.962 -1.1890 -2.4685 -1.9050
10565TIP3    H253187   6.567   1.334  14.857  0.8264 -0.9437 -0.3051
10566TIP3   OH253188   5.645   1.747   0.255  0.2307 -0.1173  0.2803
10566TIP3    H153189   5.632   1.827   0.305  1.5338  0.2151  0.1162
10566TIP3    H253190   5.564   1.697   0.268 -1.5991  2.1857 -1.4454
10567TIP3   OH253191   1.609   0.979  15.328  0.3107  0.3308 -0.2319
10567TIP3    H153192   1.691   1.028  15.336 -0.0324  0.6945  1.1231
10567TIP3    H253193   1.544   1.044  15.303  0.2283  0.2138 -0.3250
10568TIP3   OH253194   5.668   2.000   2.237  0.2691  0.2446 -0.7303
10568TIP3    H153195   5.694   1.924   2.185  1.5430  0.3909 -0.3165
10568TIP3    H253196   5.575   1.984   2.257  1.1772 -2.7227  1.8569
10569TIP3   OH253197   0.855   0.274   1.809  0.6778 -0.6894 -0.0220
10569TIP3    H153198   0.791   0.341   1.782 -0.2198 -0.8914  1.4776
10569TIP3    H253199   0.913   0.264   1.733 -0.5727  0.1046 -1.1286
10570TIP3   OH253200   7.018   0.938   0.752  0.0495  0.5988 -1.1254
10570TIP3    H153201   7.054   1.012   0.801 -1.7992  0.2351  0.9292
10570TIP3    H253202   6.986   0.977   0.671 -0.4715  2.0020 -0.2893
10571TIP3   OH253203   3.965   6.024   3.511  0.0077  0.0467  0.0776
10571TIP3    H153204   3.898   6.017   3.443  0.5523 -1.8390 -0.3335
10571TIP3    H253205   3.951   6.110   3.550 -1.6225  0.3434 -1.0555
10572TIP3   OH253206   2.315   1.483   3.258  0.3803  0.5030  0.1330
10572TIP3    H153207   2.261   1.451   3.330  1.2362 -0.8210  0.2184
10572TIP3    H253208   2.264   1.554   3.220 -0.3928  0.7804  1.6159
10573TIP3   OH253209   6.998   6.019   1.537  0.1010 -0.5739 -0.3028
10573TIP3    H153210   7.060   5.952   1.508  0.1868 -0.8676  0.5250
10573TIP3    H253211   6.927   5.970   1.579  0.1028 -0.1582  0.2044
10574TIP3   OH253212   4.398   0.689  11.531 -0.5776 -0.5776  0.1077
10574TIP3    H153213   4.330   0.695  11.465 -0.7754  0.5236  0.3998
10574TIP3    H253214   4.411   0.778  11.561  0.0443 -0.9582  1.0218
10575TIP3   OH253215   7.113   7.149   0.828 -0.1951 -0.4481  0.0253
10575TIP3    H153216   7.207   7.138   0.816 -0.2088 -0.7308  0.1762
10575TIP3    H253217   7.074   7.080   0.775 -0.3803  0.7408 -1.4741
10576TIP3   OH253218   2.173   1.472   2.474 -0.5455 -0.1060 -0.0804
10576TIP3    H153219   2.152   1.527   2.550 -0.4915  0.7562 -0.6757
10576TIP3    H253220   2.088   1.450   2.437 -0.6205 -1.2793  0.7275
10577TIP3   OH253221   0.003   0.140  11.190 -0.3954  0.0802 -0.1980
10577TIP3    H153222  -0.031   0.075  11.129  0.4678 -1.3206  0.7661
10577TIP3    H253223  -0.032   0.115  11.275  3.2085 -1.7342  0.9460
10578TIP3   OH253224   6.774   4.235  12.692 -0.0953 -0.0544 -0.0009
10578TIP3    H153225   6.698   4.261  12.640 -1.8230  1.3880  2.9409
10578TIP3    H253226   6.820   4.318  12.709 -0.9648 -0.0198  2.6330
10579TIP3   OH253227   6.523   1.205   3.756  0.2411  1.2869  0.2983
10579TIP3    H153228   6.557   1.134   3.811  0.2505  0.4156 -0.7926
10579TIP3    H253229   6.459   1.250   3.811 -0.2538  0.0093  0.8132
10580TIP3   OH253230   1.687   6.008   1.725  0.0195 -0.0178 -0.9632
10580TIP3    H153231   1.598   5.971   1.728  0.7867 -2.0422 -1.3148
10580TIP3    H253232   1.716   5.991   1.635  0.8925  0.3126 -0.7456
10581TIP3   OH253233   6.946   2.677   5.760  0.2273 -0.3703  0.4638
10581TIP3    H153234   6.996   2.597   5.741  1.5966  0.0750  1.9346
10581TIP3    H253235   6.996   2.720   5.830 -0.2263  1.9945 -0.5556
10582TIP3   OH253236   5.011   3.500   1.059 -0.3022 -0.2316 -0.6623
10582TIP3    H153237   5.053   3.586   1.060 -1.1004  0.1584  0.0868
10582TIP3    H253238   4.929   3.513   1.011 -0.4707 -0.5586 -0.4698
10583TIP3   OH253239   3.178   1.248   3.492 -0.7422  0.1851  0.4720
10583TIP3    H153240   3.115   1.177   3.505 -1.0849  0.3040 -0.4226
10583TIP3    H253241   3.128   1.328   3.509 -0.9339  0.2942 -0.5026
10584TIP3   OH253242   4.558   0.160   0.373 -0.6102  0.2388  0.0454
10584TIP3    H153243   4.584   0.072   0.344  1.6838  1.1062 -0.7280
10584TIP3    H253244   4.463   0.153   0.387 -0.8957 -1.7840 -2.1625
10585TIP3   OH253245   2.664   0.307   3.943  0.4945 -0.0790 -0.1866
10585TIP3    H153246   2.741   0.337   3.894 -0.0480  0.9245 -0.4461
10585TIP3    H253247   2.687   0.321   4.035 -0.0151  1.9031 -0.3145
10586TIP3   OH253248   6.183   4.249  14.615 -0.7655  0.6524  0.2805
10586TIP3    H153249   6.195   4.261  14.709  0.4540  3.1308 -0.1116
10586TIP3    H253250   6.234   4.170  14.594 -0.1153  0.7155  1.5319
10587TIP3   OH253251   6.275   3.052   0.628  0.0888  0.2422 -0.7575
10587TIP3    H153252   6.342   3.114   0.657 -1.5651  1.2421  1.1767
10587TIP3    H253253   6.227   3.030   0.708 -1.1425 -1.3789 -1.8780
10588TIP3   OH253254   1.983   0.848  13.107  0.4169  0.0144  0.5404
10588TIP3    H153255   1.983   0.941  13.082 -0.5008 -0.3072 -0.7521
10588TIP3    H253256   2.027   0.804  13.035 -0.8560 -0.7678  0.2179
10589TIP3   OH253257   0.199   3.943   4.594 -0.0728  0.1318  0.6349
10589TIP3    H153258   0.183   4.012   4.530  1.0111  0.9137  1.1594
10589TIP3    H253259   0.291   3.919   4.580 -0.7740 -2.1568 -0.4065
10590TIP3   OH253260   0.404   2.824   3.005 -0.5338 -0.1072 -0.2566
10590TIP3    H153261   0.351   2.745   3.013 -1.5727  0.4529 -1.3601
10590TIP3    H253262   0.383   2.875   3.082 -1.7061  0.1598 -0.7413
10591TIP3   OH253263   1.285   3.012   4.421 -0.1259  0.0577  0.3930
10591TIP3    H153264   1.274   2.919   4.440  0.4627  0.1594  1.2961
10591TIP3    H253265   1.226   3.056   4.482  1.4832  0.3749  1.7671
10592TIP3   OH253266   5.510   1.313  14.802  0.2927 -0.0950  0.0833
10592TIP3    H153267   5.457   1.393  14.802  1.2754  0.5835 -0.3754
10592TIP3    H253268   5.478   1.262  14.728 -1.1788 -0.7310  1.1162
10593TIP3   OH253269   1.753   3.729  10.906 -0.8746  0.1288  0.2398
10593TIP3    H153270   1.842   3.762  10.894 -1.5242  1.7743 -0.3329
10593TIP3    H253271   1.764   3.634  10.919  0.8512  0.0618 -1.2834
10594TIP3   OH253272   3.278   1.340   5.006  0.1131 -0.0351 -0.1114
10594TIP3    H153273   3.263   1.251   4.973 -0.9720 -0.3666  1.1726
10594TIP3    H253274   3.373   1.348   5.011  0.2653 -0.6438 -1.4392
10595TIP3   OH253275   5.033   0.788   4.821 -0.2310 -0.0622  0.3703
10595TIP3    H153276   5.021   0.881   4.839  0.0843  0.3687 -1.4044
10595TIP3    H253277   5.009   0.744   4.902 -0.2688  1.5702  1.2817
10596TIP3   OH253278   3.784   0.975   1.957 -0.4564  0.2677 -0.5879
10596TIP3    H153279   3.869   0.938   1.981 -1.6014 -0.8456  2.1562
10596TIP3    H253280   3.748   0.914   1.892 -0.2669 -0.7404  0.2387
10597TIP3   OH253281   1.283   3.555  14.550  0.6067  0.3410 -0.3144
10597TIP3    H153282   1.292   3.596  14.636  1.0622  0.7026 -0.5274
10597TIP3    H253283   1.362   3.582  14.503 -0.0126  0.7952 -1.1147
10598TIP3   OH253284   3.514   4.762   4.825 -0.1076 -0.6482  0.0536
10598TIP3    H153285   3.509   4.842   4.772  1.8875  0.4607  1.4224
10598TIP3    H253286   3.479   4.694   4.768  0.3583  0.7730 -2.0552
10599TIP3   OH253287   5.309   0.191   5.065 -0.2611 -0.1493 -0.1231
10599TIP3    H153288   5.285   0.210   5.156  2.0001 -1.9605  0.9319
10599TIP3    H253289   5.339   0.274   5.030  0.8851  0.1668  1.5066
10600TIP3   OH253290   6.716   3.293   0.268 -0.2731 -0.5624  0.4925
10600TIP3    H153291   6.777   3.363   0.290 -2.2831  1.3490  0.3305
10600TIP3    H253292   6.691   3.256   0.353  0.2180 -0.5978  0.6299
10601TIP3   OH253293   3.895   3.703   9.798  0.6392 -0.0707  0.4577
10601TIP3    H153294   3.830   3.681   9.732 -1.2200  0.6291  1.9385
10601TIP3    H253295   3.972   3.731   9.749 -0.4880 -0.0796 -1.3903
10602TIP3   OH253296   6.969   0.407   1.551 -0.1395  0.2100 -0.6203
10602TIP3    H153297   6.976   0.312   1.544 -1.6681  0.0055  0.2388
10602TIP3    H253298   7.040   0.432   1.611 -0.4214 -0.5183  0.0205
10603TIP3   OH253299   3.254   1.347   4.651  0.1871 -0.3337  0.6034
10603TIP3    H153300   3.168   1.378   4.622 -0.0421 -1.0889  0.4726
10603TIP3    H253301   3.246   1.252   4.652  1.1724 -0.4220  0.1483
10604TIP3   OH253302   4.432   4.199  10.881 -0.0796 -0.6234  0.2643
10604TIP3    H153303   4.482   4.207  10.799 -0.5715 -2.0053 -0.2019
10604TIP3    H253304   4.467   4.268  10.937 -2.0256  2.7313 -2.2483
10605TIP3   OH253305   3.270   3.647   4.224  0.0755 -0.6606  0.8394
10605TIP3    H153306   3.292   3.667   4.315 -0.0716  1.8018  0.3988
10605TIP3    H253307   3.335   3.696   4.173 -0.8895 -0.6218 -0.3786
10606TIP3   OH253308   1.208   3.111   3.618  0.0624 -0.5681 -1.0093
10606TIP3    H153309   1.190   3.139   3.528  0.4182 -0.1639 -0.9602
10606TIP3    H253310   1.288   3.059   3.612  0.4074 -0.0653 -0.8536
10607TIP3   OH253311   5.506   6.883   1.924 -0.2147  0.0852  0.0977
10607TIP3    H153312   5.463   6.908   2.005 -1.3161  0.9417 -0.7108
10607TIP3    H253313   5.436   6.882   1.859  0.9301  1.4161 -1.2502
10608TIP3   OH253314   0.233   4.316   1.894 -0.1535  0.0494 -0.5241
10608TIP3    H153315   0.212   4.410   1.890 -1.4978 -0.2684 -2.5146
10608TIP3    H253316   0.325   4.313   1.920 -0.8352  1.7803  2.6065
10609TIP3   OH253317   5.446   1.814   2.994  0.3584 -0.4977  0.2075
10609TIP3    H153318   5.466   1.730   2.954  1.5296  0.2352 -0.8071
10609TIP3    H253319   5.525   1.838   3.042  0.2461  0.2957  0.0137
10610TIP3   OH253320   3.088   7.075  15.691 -0.3119 -0.7895  0.1058
10610TIP3    H153321   3.138   7.156  15.678  1.2595 -0.9321  3.9835
10610TIP3    H253322   3.020   7.078  15.624 -0.4821  3.8852  0.1540
10611TIP3   OH253323   5.413   6.689  12.818  0.1592 -0.6320  0.2320
10611TIP3    H153324   5.368   6.671  12.900 -0.3781  0.3501  0.1634
10611TIP3    H253325   5.347   6.729  12.762  0.1972 -2.3538 -1.1212
10612TIP3   OH253326   6.784   6.393  14.769  0.5215  0.0531 -0.1848
10612TIP3    H153327   6.700   6.418  14.730  0.1902 -0.8229 -0.0422
10612TIP3    H253328   6.845   6.392  14.696  0.1920 -0.2787 -0.4550
10613TIP3   OH253329   1.704   5.435   1.689  0.5921  0.4273  0.0022
10613TIP3    H153330   1.674   5.374   1.756  0.3438 -1.6373 -1.8533
10613TIP3    H253331   1.668   5.520   1.715 -0.7035 -0.5705  1.6698
10614TIP3   OH253332   1.533   0.573  14.596  0.0378  0.2793  0.0831
10614TIP3    H153333   1.554   0.644  14.536  0.7189  0.0669  0.0521
10614TIP3    H253334   1.507   0.616  14.678 -2.0297  0.5942 -0.6850
10615TIP3   OH253335   0.390   6.175  15.736  0.3113  0.4997 -0.4924
10615TIP3    H153336   0.300   6.142  15.742  0.8705 -0.9017  0.8935
10615TIP3    H253337   0.415   6.159  15.645  0.0401 -1.6351 -0.2472
10616TIP3   OH253338   5.715   4.219   0.575  0.2075 -0.5105  0.1538
10616TIP3    H153339   5.707   4.287   0.508  0.5139 -1.2525 -0.6556
10616TIP3    H253340   5.648   4.155   0.552  0.3512 -0.8029  0.5318
10617TIP3   OH253341   6.495   2.066  11.724 -0.0643 -0.2164 -0.0276
10617TIP3    H153342   6.433   2.017  11.778  1.1203  0.1833  1.8185
10617TIP3    H253343   6.441   2.130  11.678 -1.3904 -1.9982 -1.0434
10618TIP3   OH253344   2.134   5.016   4.099 -0.0069 -0.6217  0.4352
10618TIP3    H153345   2.192   4.971   4.160  0.4030 -0.3145  0.2761
10618TIP3    H253346   2.176   5.006   4.013  0.7342  1.0757  0.5546
10619TIP3   OH253347   6.985   4.577   5.360  0.3619 -0.0734 -0.1650
10619TIP3    H153348   6.908   4.521   5.369  1.1410 -1.1982 -0.2664
10619TIP3    H253349   7.055   4.530   5.406  1.4275  0.0066 -1.6155
10620TIP3   OH253350   4.967   5.552  11.217  0.1358 -0.0900  0.3295
10620TIP3    H153351   4.905   5.511  11.157  1.0087 -0.7204 -0.1650
10620TIP3    H253352   4.913   5.582  11.291 -1.1974  2.0171 -1.3694
10621TIP3   OH253353   4.992   4.168   2.102  0.1241  0.0116  0.3134
10621TIP3    H153354   4.910   4.128   2.075  0.3356  0.5226 -1.1433
10621TIP3    H253355   5.034   4.101   2.157 -1.2393 -0.2561  1.0575
10622TIP3   OH253356   3.235   6.016   0.080  0.6911  0.5345 -0.8135
10622TIP3    H153357   3.305   5.969   0.035  0.9510  0.4518 -0.3332
10622TIP3    H253358   3.278   6.090   0.121  0.4526  0.6232 -0.7208
10623TIP3   OH253359   4.783   2.634  13.466  0.2276 -0.5051  0.1159
10623TIP3    H153360   4.845   2.570  13.502  1.1105 -0.4434 -1.2437
10623TIP3    H253361   4.832   2.716  13.464 -0.4875 -0.0475  0.6468
10624TIP3   OH253362   7.058   7.089   3.393 -0.2525 -0.3937  0.0565
10624TIP3    H153363   7.047   7.145   3.469 -0.7945  0.5052 -0.6591
10624TIP3    H253364   7.149   7.102   3.366 -0.2718 -0.1512  0.1135
10625TIP3   OH253365   2.346   6.352  12.411  0.3372  0.6714  0.3400
10625TIP3    H153366   2.340   6.356  12.316 -0.3876 -0.1558  0.3402
10625TIP3    H253367   2.438   6.331  12.428  0.2295 -0.3301 -0.2316
10626TIP3   OH253368   1.437   2.106  11.076 -0.1517  0.7370  0.6842
10626TIP3    H153369   1.454   2.099  11.170  0.1021  0.1950  0.6046
10626TIP3    H253370   1.348   2.140  11.070  0.0323  1.3013  1.1187
10627TIP3   OH253371   3.789   2.575  10.220 -0.6568  0.2974 -0.2020
10627TIP3    H153372   3.705   2.545  10.185 -0.6318 -0.2850  0.2180
10627TIP3    H253373   3.778   2.570  10.315 -0.3314  0.7448 -0.1408
10628TIP3   OH253374   6.227   3.446   2.780  0.0117  0.2377 -0.1535
10628TIP3    H153375   6.231   3.528   2.731  0.3841 -0.5480 -1.4896
10628TIP3    H253376   6.143   3.408   2.755 -1.7847  1.6690  3.0006
10629TIP3   OH253377   4.718   4.086  13.463 -0.1564  0.3295 -0.2209
10629TIP3    H153378   4.740   3.994  13.450  0.3087  0.4436 -0.2810
10629TIP3    H253379   4.683   4.090  13.552  2.1368  0.4687  0.7471
10630TIP3   OH253380   3.182   0.702   1.045  0.6151  0.3638  1.1637
10630TIP3    H153381   3.228   0.783   1.069 -0.2326  1.0999  0.3642
10630TIP3    H253382   3.090   0.727   1.044  0.5072  0.1032 -1.7224
10631TIP3   OH253383   2.556   2.797   3.379 -0.3934 -0.0154 -0.6466
10631TIP3    H153384   2.493   2.820   3.311 -0.0049  1.6546 -0.4914
10631TIP3    H253385   2.575   2.879   3.423 -1.2524 -1.1606  2.0848
10632TIP3   OH253386   4.895   1.293  10.256 -0.3297 -0.1922 -0.3295
10632TIP3    H153387   4.867   1.276  10.166 -1.6507 -0.2054  0.0674
10632TIP3    H253388   4.990   1.305  10.249 -0.4444  0.1176 -1.7630
10633TIP3   OH253389   1.546   5.270   1.862  0.0588 -0.5655  0.0287
10633TIP3    H153390   1.472   5.329   1.873 -0.0711 -0.3172 -1.8175
10633TIP3    H253391   1.574   5.249   1.951 -2.4573 -0.9861  0.7889
10634TIP3   OH253392   6.671   0.595   5.786  0.1654 -0.4877 -0.4237
10634TIP3    H153393   6.644   0.676   5.743  0.0160 -0.0238  0.5155
10634TIP3    H253394   6.766   0.599   5.787  0.1422  0.0496  0.2993
10635TIP3   OH253395   4.362   1.625  10.009 -0.4933 -0.0503 -1.0472
10635TIP3    H153396   4.305   1.583  10.073 -0.4631 -0.3913 -1.2451
10635TIP3    H253397   4.393   1.704  10.053  1.1606 -1.2969  0.1338
10636TIP3   OH253398   1.127   0.396   5.703 -0.1077  0.3163 -0.2495
10636TIP3    H153399   1.175   0.356   5.775 -0.0606 -0.4543 -0.7003
10636TIP3    H253400   1.043   0.351   5.701  0.0439  0.0421 -0.9206
10637TIP3   OH253401   5.458   3.726   0.443  0.3026  0.0271 -0.1535
10637TIP3    H153402   5.377   3.748   0.397 -0.4593 -0.5772  0.8508
10637TIP3    H253403   5.458   3.631   0.449  1.7515 -0.0818 -1.2623
10638TIP3   OH253404   5.395   3.196   4.582 -0.5954  0.3744 -0.5141
10638TIP3    H153405   5.455   3.134   4.541 -0.0234  1.1458 -0.8645
10638TIP3    H253406   5.353   3.241   4.508 -0.2171  1.1490 -0.2676
10639TIP3   OH253407   5.225   5.572  12.490 -0.6501  0.2110  0.1125
10639TIP3    H153408   5.224   5.521  12.572 -2.3101 -2.5032 -1.4304
10639TIP3    H253409   5.145   5.623  12.492 -1.6509 -1.2471 -0.5100
10640TIP3   OH253410   0.991   0.670  13.144 -0.6612 -0.2640 -0.6224
10640TIP3    H153411   1.070   0.650  13.095  0.8855  0.3536  1.4766
10640TIP3    H253412   0.940   0.589  13.141  1.3128 -1.6213  0.1840
10641TIP3   OH253413   0.681   6.352   4.163  0.3601  0.3276  0.3112
10641TIP3    H153414   0.700   6.301   4.084  0.1396  1.0191 -0.2042
10641TIP3    H253415   0.766   6.384   4.192  0.4509  0.0144  0.3939
10642TIP3   OH253416   5.507   2.641   4.010  0.2992 -0.6067  0.0516
10642TIP3    H153417   5.545   2.728   4.000 -0.3490 -0.1437  1.3604
10642TIP3    H253418   5.564   2.596   4.072  0.1710 -0.8409  0.0042
10643TIP3   OH253419   6.228   5.477  12.469  0.4166 -0.2642  0.0076
10643TIP3    H153420   6.311   5.444  12.433  0.4161  1.7139 -2.0741
10643TIP3    H253421   6.226   5.445  12.559  1.7150 -3.3749 -0.9175
10644TIP3   OH253422   3.556   6.168   1.875  0.2831  0.2807 -0.7175
10644TIP3    H153423   3.504   6.204   1.946 -0.5302  0.4792 -1.3869
10644TIP3    H253424   3.518   6.082   1.859 -0.8945  1.0205 -2.2161
10645TIP3   OH253425   4.010   6.461   3.743  0.1789  0.6032  0.0972
10645TIP3    H153426   4.070   6.436   3.813  1.6177  1.5116 -0.7538
10645TIP3    H253427   4.044   6.545   3.711 -1.8788  1.4587 -0.0644
10646TIP3   OH253428   0.206   3.383  13.333  0.3881 -0.0055  0.0436
10646TIP3    H153429   0.168   3.389  13.420  0.0975 -1.5475  0.0591
10646TIP3    H253430   0.289   3.338  13.346  0.7024  0.4443 -0.3852
10647TIP3   OH253431   1.152   0.668   5.750 -0.3949 -0.2447 -0.1355
10647TIP3    H153432   1.103   0.696   5.827  0.2120 -1.3112  0.6670
10647TIP3    H253433   1.138   0.573   5.746 -0.2058 -0.2426 -1.1971
10648TIP3   OH253434   5.848   0.860   3.928  0.0141 -0.1095 -0.4069
10648TIP3    H153435   5.803   0.781   3.897  1.5200 -0.8561 -0.8317
10648TIP3    H253436   5.883   0.835   4.013 -0.0058  0.3161 -0.2710
10649TIP3   OH253437   6.096   3.970   1.719  0.0841 -0.2291  0.3800
10649TIP3    H153438   6.044   4.018   1.655  0.6939  2.0131  1.4617
10649TIP3    H253439   6.183   3.963   1.679  0.1358  0.0499  0.4432
10650TIP3   OH253440   6.477   0.746  13.095  0.0126  0.4097  0.1171
10650TIP3    H153441   6.543   0.782  13.153 -0.2702  0.7313  0.2417
10650TIP3    H253442   6.432   0.679  13.147  2.1369 -1.9541 -0.8404
10651TIP3   OH253443   6.908   3.527   5.431 -0.1340  0.1341 -0.6119
10651TIP3    H153444   6.997   3.496   5.413 -0.8717 -1.1629 -2.4731
10651TIP3    H253445   6.886   3.490   5.516  0.1487 -1.9772 -1.3965
10652TIP3   OH253446   0.046   6.978  10.849  0.5180  0.4854  0.1266
10652TIP3    H153447   0.069   7.032  10.925 -2.9255  1.2300  0.8012
10652TIP3    H253448   0.046   7.039  10.776 -0.7171  0.8570  0.4113
10653TIP3   OH253449   4.016   3.747   1.975 -0.7961  0.2011  0.4991
10653TIP3    H153450   3.995   3.788   1.891  0.4053 -0.3272 -0.0879
10653TIP3    H253451   3.931   3.722   2.012 -1.2856 -1.5429 -1.5734
10654TIP3   OH253452   0.745   1.674   1.767 -0.0520 -0.7120  0.3600
10654TIP3    H153453   0.789   1.663   1.683  0.0578  1.4490  0.0849
10654TIP3    H253454   0.654   1.649   1.750  0.1460 -1.0652 -0.1906
10655TIP3   OH253455   5.864   5.450  15.025  0.3572 -0.0283  0.4087
10655TIP3    H153456   5.857   5.543  15.007  3.1094  0.1916 -0.0154
10655TIP3    H253457   5.859   5.443  15.120  3.9361  1.1295  0.8123
10656TIP3   OH253458   7.024   3.141  12.045  0.2494  0.1744 -0.0388
10656TIP3    H153459   7.109   3.138  12.001  0.0626 -1.5208 -0.3268
10656TIP3    H253460   7.035   3.086  12.122 -0.2268  0.9807  0.6236
10657TIP3   OH253461   5.755   6.649   3.935  0.6525  0.0626  0.1138
10657TIP3    H153462   5.709   6.601   3.867  0.1257  1.1419 -0.3151
10657TIP3    H253463   5.689   6.663   4.003  0.8635 -0.0273  0.3364
10658TIP3   OH253464   4.279   6.610  13.358  0.0607 -0.5408  0.6091
10658TIP3    H153465   4.251   6.607  13.267 -1.0304 -3.1669  0.9157
10658TIP3    H253466   4.217   6.669  13.401 -2.9036 -3.3235  0.5368
10659TIP3   OH253467   5.076   7.125   5.273  0.4369 -0.0533 -0.0776
10659TIP3    H153468   4.999   7.173   5.303  0.5146 -0.1467  0.2879
10659TIP3    H253469   5.072   7.042   5.321 -0.2445 -0.8438 -1.4579
10660TIP3   OH253470   5.698   3.154   1.622 -0.2736  0.0839  0.0543
10660TIP3    H153471   5.649   3.073   1.607 -0.3212  0.1315 -0.0482
10660TIP3    H253472   5.712   3.189   1.535  0.7851 -0.4249  0.0004
10661TIP3   OH253473   1.861   5.780   4.551  0.3258  0.8983  0.0456
10661TIP3    H153474   1.934   5.804   4.494 -0.9951  1.2634 -1.5826
10661TIP3    H253475   1.845   5.687   4.532 -0.0245  0.9825 -0.0862
10662TIP3   OH253476   3.539   1.266   2.987  0.4075  0.5860  0.3002
10662TIP3    H153477   3.606   1.226   3.042  0.3714  0.6718  0.4068
10662TIP3    H253478   3.569   1.251   2.898 -0.0716 -0.5100  0.3060
10663TIP3   OH253479   0.082   2.927   2.676 -0.6588 -0.1449 -0.1383
10663TIP3    H153480   0.094   2.863   2.605 -1.3853  0.5215 -0.8938
10663TIP3    H253481  -0.011   2.920   2.699 -0.3009 -0.7758  1.1852
10664TIP3   OH253482   6.010   3.982  14.151 -0.7177 -0.2556  0.0077
10664TIP3    H153483   6.000   3.892  14.119 -2.2707  0.1643 -0.7831
10664TIP3    H253484   5.929   4.026  14.125  1.0786  2.1141 -2.0568
10665TIP3   OH253485   6.917   2.664   0.726 -0.2556 -0.2065 -1.0350
10665TIP3    H153486   6.856   2.593   0.745  0.3157 -0.6949 -0.9840
10665TIP3    H253487   7.002   2.631   0.755 -0.2701  1.2714  0.9286
10666TIP3   OH253488   1.832   5.106  11.844  0.3482 -0.4088 -0.3727
10666TIP3    H153489   1.785   5.169  11.790  0.0264  1.8598  2.3268
10666TIP3    H253490   1.924   5.131  11.834  0.2172  0.6030  0.7334
10667TIP3   OH253491   3.866   1.771  12.138  0.8597 -0.4243  0.4724
10667TIP3    H153492   3.811   1.693  12.139  1.1765 -0.6631  2.3672
10667TIP3    H253493   3.940   1.749  12.194  1.2678  1.0243  0.5455
10668TIP3   OH253494   5.762   2.076  11.836  0.0598 -0.2432  0.7661
10668TIP3    H153495   5.730   2.141  11.899 -0.3554  0.0147  0.2942
10668TIP3    H253496   5.847   2.109  11.808 -0.4348  0.4463  0.0371
10669TIP3   OH253497   6.446   4.368  13.401  0.7732  0.1827 -0.4173
10669TIP3    H153498   6.431   4.278  13.428 -0.3247  0.4456 -0.0931
10669TIP3    H253499   6.380   4.419  13.448  1.5253  1.1944 -0.4077
10670TIP3   OH253500   5.744   5.732   2.387 -0.1463  0.1634 -0.1796
10670TIP3    H153501   5.798   5.810   2.378 -2.0622  1.4821 -0.9726
10670TIP3    H253502   5.738   5.697   2.298 -1.2602  0.5115 -0.2489
10671TIP3   OH253503   2.095   0.778  12.838 -0.1342  0.0765 -0.0960
10671TIP3    H153504   2.159   0.708  12.823 -0.5338 -0.6857  1.4974
10671TIP3    H253505   2.124   0.850  12.782  1.7962 -0.4451  0.1596
10672TIP3   OH253506   4.724   6.155  13.289  0.3468 -0.4934 -0.2702
10672TIP3    H153507   4.664   6.117  13.224  0.2117  0.3211 -0.6413
10672TIP3    H253508   4.667   6.183  13.360  0.4049 -0.6206 -0.1722
10673TIP3   OH253509   5.252   2.106   1.493  0.4770  0.6298 -0.3706
10673TIP3    H153510   5.217   2.031   1.541  0.6148  1.4661  1.1186
10673TIP3    H253511   5.175   2.154   1.463  0.3301  1.1468  0.7626
10674TIP3   OH253512   4.881   3.284  14.881  0.3777  0.5321  0.1151
10674TIP3    H153513   4.925   3.276  14.965  0.0562  1.8324  0.4162
10674TIP3    H253514   4.903   3.371  14.849 -0.1961  0.3777 -0.7523
10675TIP3   OH253515   1.552   3.023  15.642 -0.1889  0.4782 -0.0789
10675TIP3    H153516   1.566   3.111  15.609 -1.1601  0.5283 -0.4068
10675TIP3    H253517   1.587   3.024  15.731  1.7205  0.5724 -0.7912
10676TIP3   OH253518   0.163   5.486  12.508  0.5160 -0.0608  0.0033
10676TIP3    H153519   0.102   5.554  12.480 -0.0906 -0.6552 -0.1393
10676TIP3    H253520   0.141   5.470  12.600  0.1877 -0.5558 -0.1587
10677TIP3   OH253521   0.218   2.283  10.377  0.2618  0.0405 -0.7367
10677TIP3    H153522   0.194   2.190  10.374  0.1230  0.1037 -2.3422
10677TIP3    H253523   0.252   2.296  10.466 -1.2260 -1.1515  0.0532
10678TIP3   OH253524   1.433   6.944   4.231 -0.0787 -0.7622 -0.4722
10678TIP3    H153525   1.416   7.035   4.207 -2.6178 -1.0925 -0.1985
10678TIP3    H253526   1.394   6.892   4.160  0.1951 -1.6437 -0.0010
10679TIP3   OH253527   2.023   4.804   4.541 -0.2878  0.2491  0.3022
10679TIP3    H153528   2.118   4.800   4.536 -0.2042 -0.1905  1.7265
10679TIP3    H253529   2.005   4.894   4.569 -0.3311  0.5220 -0.5966
10680TIP3   OH253530   5.579   6.302   5.452  0.1962  0.0864  0.2336
10680TIP3    H153531   5.556   6.312   5.544  2.3502  0.7705  0.7562
10680TIP3    H253532   5.563   6.209   5.433 -1.8088  0.2876  0.8052
10681TIP3   OH253533   5.471   4.869   1.630 -0.1842 -0.2615 -0.3336
10681TIP3    H153534   5.491   4.790   1.680 -2.0323 -0.8359 -0.4558
10681TIP3    H253535   5.490   4.846   1.539 -2.0953 -1.1104 -0.5646
10682TIP3   OH253536   0.167   1.891   1.476  0.2331 -0.3872  0.7508
10682TIP3    H153537   0.216   1.930   1.549  1.3881  1.9637 -1.1471
10682TIP3    H253538   0.171   1.797   1.492  0.0544  0.0397  3.9067
10683TIP3   OH253539   0.012   3.925   2.745  0.2392 -0.0211 -0.6013
10683TIP3    H153540  -0.065   3.947   2.692 -0.7129  1.0346  1.1256
10683TIP3    H253541  -0.016   3.851   2.798  0.5621  0.0642 -0.3073
10684TIP3   OH253542   0.115   3.325   3.940  0.3514 -0.1667  0.1568
10684TIP3    H153543   0.208   3.346   3.935  0.7624 -2.0317 -0.6128
10684TIP3    H253544   0.111   3.230   3.940 -1.6453 -0.1631 -1.6834
10685TIP3   OH253545   4.466   0.833   1.414 -0.1135  0.1141  0.3961
10685TIP3    H153546   4.556   0.863   1.400  0.5248 -2.8648 -3.9139
10685TIP3    H253547   4.475   0.757   1.471  0.5085 -1.3696 -1.5788
10686TIP3   OH253548   2.813   6.705   2.285  0.2320  0.2647  0.0258
10686TIP3    H153549   2.736   6.696   2.228  0.3284 -1.2791  0.1068
10686TIP3    H253550   2.776   6.724   2.371 -0.0478  0.0302 -0.0383
10687TIP3   OH253551   0.051   1.284  11.599  0.0255  0.3102  0.1631
10687TIP3    H153552   0.090   1.311  11.682  0.4816 -1.2519  0.4865
10687TIP3    H253553   0.087   1.345  11.535  1.7643 -0.0927  0.7103
10688TIP3   OH253554   4.953   4.781   3.462  0.2065 -0.3242 -0.1713
10688TIP3    H153555   4.946   4.870   3.428  0.8032 -0.0026  0.5363
10688TIP3    H253556   4.862   4.750   3.468 -0.3255  1.5274  2.9796
10689TIP3   OH253557   6.558   3.330  10.206  0.2341  0.1922 -0.6340
10689TIP3    H153558   6.652   3.329  10.224  0.0911 -0.4246  0.1702
10689TIP3    H253559   6.526   3.249  10.246 -0.7202  0.6771 -0.3907
10690TIP3   OH253560   1.461   2.877   4.242 -0.0486  0.2986 -0.0331
10690TIP3    H153561   1.551   2.901   4.221  0.7053 -1.7334  0.6238
10690TIP3    H253562   1.436   2.939   4.310  1.7667 -0.5506  1.5277
10691TIP3   OH253563   3.787   1.393   3.448  0.0408 -0.6993  0.2852
10691TIP3    H153564   3.805   1.319   3.506  0.7703 -0.8524 -0.1138
10691TIP3    H253565   3.874   1.429   3.429 -0.2123 -0.4520 -0.4394
10692TIP3   OH253566   0.580   4.282   2.772 -1.1038 -0.9044  0.5617
10692TIP3    H153567   0.558   4.324   2.689  0.3482 -1.2750 -0.0576
10692TIP3    H253568   0.583   4.189   2.751  1.2782 -0.8838  0.4415
10693TIP3   OH253569   0.021   1.732   3.923  0.1282  0.1058  0.0609
10693TIP3    H153570   0.020   1.798   3.993  1.9661  0.1616  0.0833
10693TIP3    H253571  -0.062   1.745   3.877  0.2973  2.2422  0.2449
10694TIP3   OH253572   6.060   5.030  15.175 -0.1714  0.0135 -0.0464
10694TIP3    H153573   6.114   5.065  15.104  1.3782 -0.1791  0.9799
10694TIP3    H253574   6.042   5.106  15.230 -0.0001 -0.1255  0.2011
10695TIP3   OH253575   6.458   6.119   3.075 -0.0595 -0.5635  0.0565
10695TIP3    H153576   6.378   6.103   3.026 -0.7810 -0.6643  1.2354
10695TIP3    H253577   6.525   6.133   3.008 -1.2004  0.2374 -0.9493
10696TIP3   OH253578   5.326   6.806   2.682 -0.2979  0.5198 -0.0023
10696TIP3    H153579   5.295   6.729   2.730 -0.1326  1.3358  1.4746
10696TIP3    H253580   5.266   6.813   2.607 -2.9690  1.2866  2.0228
10697TIP3   OH253581   6.542   0.290  12.833 -0.2643 -0.4467  0.5825
10697TIP3    H153582   6.517   0.201  12.806 -1.5282 -0.5989  2.1391
10697TIP3    H253583   6.636   0.285  12.850  0.3436 -0.6735 -2.3164
10698TIP3   OH253584   1.552   2.963   0.942 -0.1104  0.1878 -0.0008
10698TIP3    H153585   1.514   2.908   0.873 -0.3591 -1.8642  1.6901
10698TIP3    H253586   1.539   3.053   0.910 -1.2461 -0.6335 -2.0758
10699TIP3   OH253587   4.623   4.416   2.942 -0.1854 -0.5781 -0.1285
10699TIP3    H153588   4.579   4.344   2.898 -1.5716  0.3807 -0.3663
10699TIP3    H253589   4.599   4.406   3.034 -2.5450  0.9881 -0.4887
10700TIP3   OH253590   1.056   2.107   1.216  0.0744 -0.4463  0.4369
10700TIP3    H153591   0.961   2.114   1.209  0.1115 -0.7890 -0.4635
10700TIP3    H253592   1.082   2.183   1.268 -0.6618 -0.1911  0.4382
10701TIP3   OH253593   2.189   1.308   1.064  0.7362 -0.8473 -0.1081
10701TIP3    H153594   2.134   1.335   1.138 -1.4019  0.4649 -2.0568
10701TIP3    H253595   2.269   1.361   1.074 -0.1563  0.4505  0.4510
10702TIP3   OH253596   3.899   2.963   4.313 -0.4254 -0.2893  0.1052
10702TIP3    H153597   3.957   3.039   4.321  1.3548 -1.7107  1.7576
10702TIP3    H253598   3.828   2.981   4.374  0.3420 -0.1958  1.0074
10703TIP3   OH253599   5.509   5.483   0.385  0.2764 -0.1390  0.2060
10703TIP3    H153600   5.551   5.478   0.300 -1.7630  0.2837 -0.8956
10703TIP3    H253601   5.553   5.555   0.430  0.2479  0.7729 -1.1787
10704TIP3   OH253602   2.507   3.435  10.579  0.3950 -0.1613  0.6642
10704TIP3    H153603   2.555   3.469  10.504 -0.7267  0.3064  0.1253
10704TIP3    H253604   2.543   3.348  10.593  1.2808  0.1145  0.1914
10705TIP3   OH253605   1.478   1.336   5.242  0.3335  0.3534 -0.5132
10705TIP3    H153606   1.420   1.267   5.210 -1.7740  1.4816  0.6763
10705TIP3    H253607   1.500   1.309   5.332  0.2531  0.7500 -0.3711
10706TIP3   OH253608   0.859   2.241   5.056  0.0789 -0.4644  0.5520
10706TIP3    H153609   0.788   2.243   5.119 -0.1587 -0.6467  0.2934
10706TIP3    H253610   0.931   2.196   5.102  0.4069  0.6809  1.1862
10707TIP3   OH253611   2.892   5.668  14.871  0.2578 -0.6229  0.3400
10707TIP3    H153612   2.917   5.600  14.933 -1.0538 -1.3443  0.1308
10707TIP3    H253613   2.840   5.730  14.923 -0.7460 -1.1692  0.0172
10708TIP3   OH253614   3.123   0.437  15.596 -0.0734 -0.0801  0.2540
10708TIP3    H153615   3.056   0.370  15.581 -2.3078  2.2359 -0.8527
10708TIP3    H253616   3.107   0.467  15.685 -0.2237  0.1969  0.1324
10709TIP3   OH253617   0.196   0.226  10.456 -0.5748  0.2838  0.0264
10709TIP3    H153618   0.195   0.130  10.454 -0.7224  0.2674  0.7058
10709TIP3    H253619   0.261   0.250  10.390 -0.4326 -0.2880 -0.0519
10710TIP3   OH253620   4.974   4.380   3.398 -0.1779 -0.5207  0.0854
10710TIP3    H153621   4.940   4.330   3.323 -1.7729  3.2400 -1.9966
10710TIP3    H253622   5.066   4.395   3.377  0.0308 -1.5676  0.1841
10711TIP3   OH253623   1.010   1.265   5.816  0.1500 -0.1507 -0.0630
10711TIP3    H153624   1.082   1.250   5.877 -0.5617 -0.6422  0.6780
10711TIP3    H253625   0.934   1.283   5.872 -0.7178 -1.5080 -0.7411
10712TIP3   OH253626   2.776   2.210  14.490  0.2786 -0.3520  0.1424
10712TIP3    H153627   2.732   2.125  14.484  0.4266 -0.6573  2.4939
10712TIP3    H253628   2.746   2.246  14.574  2.7823  0.4398  0.7581
10713TIP3   OH253629   5.098   0.492   2.084 -0.0305 -0.1832  0.1507
10713TIP3    H153630   5.015   0.539   2.093 -0.0164  2.0236 -6.1765
10713TIP3    H253631   5.164   0.561   2.077  1.3891 -1.5787 -0.9140
10714TIP3   OH253632   5.895   0.885   4.728  0.8285  0.4346  0.1932
10714TIP3    H153633   5.875   0.951   4.795  1.6210 -1.0803  2.0169
10714TIP3    H253634   5.988   0.901   4.707  0.4013  1.3699 -1.1688
10715TIP3   OH253635   6.590   0.502  15.575 -0.0161 -0.8159  0.0125
10715TIP3    H153636   6.557   0.500  15.485  0.0125  0.7014 -0.0515
10715TIP3    H253637   6.566   0.416  15.611  0.1699 -1.5342 -1.4934
10716TIP3   OH253638   2.190   1.721   1.051 -0.0759 -0.3572 -0.4687
10716TIP3    H153639   2.135   1.686   0.980 -3.9631  0.2792  1.9676
10716TIP3    H253640   2.179   1.816   1.045  0.4858 -0.2405  0.2844
10717TIP3   OH253641   2.461   5.772  14.469 -0.0120  0.6582  0.0875
10717TIP3    H153642   2.466   5.800  14.560 -0.1581 -0.4468  0.4438
10717TIP3    H253643   2.453   5.677  14.473  0.4437  0.5512 -1.0886
10718TIP3   OH253644   3.774   1.224  15.046 -0.0784  0.0390 -0.7829
10718TIP3    H153645   3.854   1.276  15.061 -0.3464  1.2577 -3.1320
10718TIP3    H253646   3.781   1.195  14.955 -1.2787 -1.7587 -0.3401
10719TIP3   OH253647   1.621   5.390   4.112  0.6990  0.7056 -0.1387
10719TIP3    H153648   1.589   5.429   4.193  1.7677 -1.4623  1.4085
10719TIP3    H253649   1.542   5.372   4.061 -0.2397 -0.3009  1.5830
10720TIP3   OH253650   6.103   5.877  14.039 -0.1354  0.4400 -0.0344
10720TIP3    H153651   6.162   5.934  14.087  0.4678  0.5947 -0.9426
10720TIP3    H253652   6.046   5.936  13.990 -0.4804  0.2817  0.1705
10721TIP3   OH253653   5.400   2.456  15.256 -0.0811 -0.1233  0.2537
10721TIP3    H153654   5.323   2.492  15.213 -0.0102 -0.9691 -0.5971
10721TIP3    H253655   5.474   2.501  15.215  0.0987 -2.0528 -1.7637
10722TIP3   OH253656   1.892   4.986  13.096 -0.1070  0.5304  0.1261
10722TIP3    H153657   1.902   5.081  13.098  1.0778  0.4574 -1.1063
10722TIP3    H253658   1.910   4.961  13.005  0.2885 -0.9368  0.5715
10723TIP3   OH253659   6.092   2.653  14.351  0.8758 -0.3012  0.0494
10723TIP3    H153660   6.049   2.728  14.310  1.9287  0.9969  1.2323
10723TIP3    H253661   6.096   2.587  14.281 -0.4797  0.5568 -0.8855
10724TIP3   OH253662   7.065   4.445   3.610  1.0595  0.0903  0.0794
10724TIP3    H153663   7.128   4.485   3.669  1.3893 -0.1154 -0.1330
10724TIP3    H253664   7.074   4.493   3.528  0.4797  0.4904  0.2417
10725TIP3   OH253665   3.919   1.611   3.129  0.5157 -0.4093  0.1072
10725TIP3    H153666   3.916   1.577   3.039  0.6754  0.2040 -0.1350
10725TIP3    H253667   3.868   1.692   3.126  2.1059  0.6374  0.1071
10726TIP3   OH253668   5.658   1.649   3.164 -0.1550  0.1406 -0.5829
10726TIP3    H153669   5.704   1.669   3.245  0.5664 -1.7341 -0.4917
10726TIP3    H253670   5.720   1.671   3.095 -0.6071  1.3111 -0.6466
10727TIP3   OH253671   5.090   4.615  13.383  0.0040 -0.2456 -0.0141
10727TIP3    H153672   5.162   4.552  13.386 -0.9346 -1.3232  1.3008
10727TIP3    H253673   5.032   4.582  13.314  0.2400  0.0298 -0.3471
10728TIP3   OH253674   4.191   0.660   2.414  0.5288 -0.2071  0.4343
10728TIP3    H153675   4.268   0.629   2.463  1.5074  1.5892  0.1271
10728TIP3    H253676   4.141   0.710   2.478  1.4166  1.4994 -0.1489
10729TIP3   OH253677   6.745   7.050  14.525 -0.0799  0.2235 -0.3792
10729TIP3    H153678   6.708   7.023  14.609 -1.0223 -0.5886 -1.0449
10729TIP3    H253679   6.797   7.128  14.546  0.2507 -0.3660  1.0616
10730TIP3   OH253680   5.287   2.692  11.204  0.0325 -0.5760  0.3539
10730TIP3    H153681   5.373   2.729  11.223 -0.6297  0.1633  2.2020
10730TIP3    H253682   5.259   2.653  11.288 -0.9482 -1.8335 -0.5159
10731TIP3   OH253683   0.657   4.630  14.383 -0.6749  0.3889 -0.5742
10731TIP3    H153684   0.573   4.587  14.363 -0.7228  0.4174 -0.4391
10731TIP3    H253685   0.651   4.650  14.476 -0.2698 -0.1501 -0.4314
10732TIP3   OH253686   6.292   3.062  12.129 -0.0054 -1.0123 -0.0697
10732TIP3    H153687   6.351   3.051  12.203  0.7609 -2.3269 -0.8352
10732TIP3    H253688   6.217   3.006  12.149  0.1926 -1.3519 -0.2821
10733TIP3   OH253689   3.686   4.859   1.812 -0.0894 -0.4264  0.2929
10733TIP3    H153690   3.678   4.901   1.727  0.1229 -1.5600 -0.3048
10733TIP3    H253691   3.780   4.841   1.821 -0.1790 -0.7978  0.5155
10734TIP3   OH253692   3.422   2.678   6.014  0.1022 -0.1911 -0.6106
10734TIP3    H153693   3.371   2.756   5.991  2.1520  1.2504 -0.5973
10734TIP3    H253694   3.362   2.605   6.002 -2.4886  1.4977  1.1503
10735TIP3   OH253695   2.305   1.576   0.173  0.6302 -0.4145  0.1838
10735TIP3    H153696   2.328   1.499   0.225  1.5946 -0.4408 -0.2563
10735TIP3    H253697   2.367   1.574   0.099 -1.5703 -1.1530 -1.7725
10736TIP3   OH253698   1.441   5.629   2.077  0.2270  0.1809  0.1905
10736TIP3    H153699   1.526   5.667   2.099  0.9508 -1.1115 -0.2963
10736TIP3    H253700   1.435   5.550   2.131  0.0990 -0.6473 -0.9845
10737TIP3   OH253701   6.998   2.980   0.656  0.2336  0.4397  0.0159
10737TIP3    H153702   6.904   2.963   0.649  0.2336  0.4511 -0.0098
10737TIP3    H253703   7.028   2.921   0.725  0.2929  0.0893 -0.3013
10738TIP3   OH253704   0.236   2.904  12.045  0.2043 -0.0718  0.5373
10738TIP3    H153705   0.184   2.946  11.976  0.1201 -1.0956 -0.0322
10738TIP3    H253706   0.326   2.934  12.029  0.1874 -0.3238 -0.0322
10739TIP3   OH253707   6.916   5.638   3.283 -0.8029  0.1550  0.0096
10739TIP3    H153708   6.937   5.553   3.245 -0.2869  0.0763  0.4646
10739TIP3    H253709   6.915   5.623   3.377 -0.6664  0.6636  0.0948
10740TIP3   OH253710   4.200   1.773  14.118 -0.3322 -0.4482  0.1703
10740TIP3    H153711   4.291   1.747  14.130 -0.4848 -0.4517  1.4780
10740TIP3    H253712   4.152   1.721  14.182 -1.3459 -0.8930 -0.9111
10741TIP3   OH253713   1.780   1.902   0.446  0.2647 -0.0008  0.1173
10741TIP3    H153714   1.755   1.985   0.406  1.1754  1.1871  1.9006
10741TIP3    H253715   1.868   1.885   0.412 -1.0359 -1.9499 -2.7179
10742TIP3   OH253716   4.510   4.834   0.933  0.1108  0.5826 -0.2188
10742TIP3    H153717   4.455   4.801   0.862 -0.2223  0.1861  0.2191
10742TIP3    H253718   4.454   4.894   0.982 -0.9621 -2.0404  2.0084
10743TIP3   OH253719   3.310   5.858   2.608 -0.2562 -0.1752 -0.3115
10743TIP3    H153720   3.252   5.929   2.635  3.1578  2.4336  0.8426
10743TIP3    H253721   3.323   5.871   2.514  0.4971  0.8785 -0.0678
10744TIP3   OH253722   2.122   3.245   1.780 -0.5177  0.6517  0.3091
10744TIP3    H153723   2.045   3.229   1.726 -0.3532 -0.9137  0.4990
10744TIP3    H253724   2.086   3.266   1.867 -0.7532  2.0986 -0.1117
10745TIP3   OH253725   0.377   0.842   3.560  0.6203  0.1238 -0.1501
10745TIP3    H153726   0.403   0.903   3.491  0.1985  0.6675  0.1709
10745TIP3    H253727   0.359   0.760   3.513  0.9670  0.3058 -0.6064
10746TIP3   OH253728   2.393   4.460  10.587 -0.4193 -0.0306  0.2811
10746TIP3    H153729   2.299   4.480  10.590 -0.4156  0.1175 -0.4376
10746TIP3    H253730   2.418   4.475  10.496  0.2712 -0.2272  0.4314
10747TIP3   OH253731   6.083   4.322   1.839 -0.1125 -0.5365  0.5081
10747TIP3    H153732   6.027   4.321   1.761 -1.5788  0.2235  1.5167
10747TIP3    H253733   6.056   4.399   1.888  1.9964 -0.0071  0.9547
10748TIP3   OH253734   3.646   2.574   5.004  0.4207  0.4256 -0.3951
10748TIP3    H153735   3.584   2.526   5.058 -1.6506  2.1793 -1.0172
10748TIP3    H253736   3.686   2.508   4.948  0.0667 -0.9431  0.9039
10749TIP3   OH253737   1.458   2.802   4.576  0.0429  0.6243 -0.2622
10749TIP3    H153738   1.536   2.797   4.521 -1.1952  1.5340 -2.1852
10749TIP3    H253739   1.464   2.888   4.619  0.5521  0.2845  0.3794
10750TIP3   OH253740   5.313   3.360   1.719 -0.0349  0.1071  0.4232
10750TIP3    H153741   5.373   3.430   1.696  0.3578  0.0426  1.2171
10750TIP3    H253742   5.364   3.302   1.775  0.0052 -1.4391 -1.1451
10751TIP3   OH253743   4.010   3.700   4.268 -0.3574  0.1837 -0.4326
10751TIP3    H153744   3.984   3.683   4.358  0.4110 -2.5212 -0.6099
10751TIP3    H253745   3.929   3.724   4.223 -1.3140 -1.3177  0.4042
10752TIP3   OH253746   0.027   5.142   3.358  0.5361  0.0030 -0.0020
10752TIP3    H153747  -0.024   5.142   3.277 -0.2731 -1.3687  0.4676
10752TIP3    H253748   0.118   5.134   3.330  0.4013  1.1777 -0.8138
10753TIP3   OH253749   0.427   2.038   2.450 -0.4566  0.0643  0.0290
10753TIP3    H153750   0.373   2.116   2.441  0.4885  0.5467 -2.2069
10753TIP3    H253751   0.379   1.983   2.512 -0.8318  2.6104  2.1737
10754TIP3   OH253752   2.537   0.327  15.388 -0.2095  0.1418  0.1178
10754TIP3    H153753   2.486   0.308  15.466 -1.1772  0.8238 -0.3208
10754TIP3    H253754   2.576   0.244  15.363 -1.5896 -0.5418  0.1526
10755TIP3   OH253755   6.478   2.011   5.120 -0.4105  0.3352 -0.1538
10755TIP3    H153756   6.389   2.043   5.135 -0.0857  1.4863 -0.5558
10755TIP3    H253757   6.466   1.926   5.078 -1.3212  0.6201 -0.5000
10756TIP3   OH253758   0.669   2.754   2.238 -0.3590 -0.1520 -0.6001
10756TIP3    H153759   0.735   2.696   2.276  1.4060  0.8884 -1.9222
10756TIP3    H253760   0.610   2.696   2.190 -0.3791 -1.0819  0.4905
10757TIP3   OH253761   2.227   5.576  11.884  0.0565  0.0246  0.1559
10757TIP3    H153762   2.268   5.654  11.846 -1.0863  0.3043 -0.5671
10757TIP3    H253763   2.142   5.608  11.916  0.4443 -0.4901  1.7810
10758TIP3   OH253764   1.376   2.140   2.943  0.1425 -0.3593 -0.0311
10758TIP3    H153765   1.294   2.179   2.911  0.5850  0.6140 -0.0168
10758TIP3    H253766   1.439   2.157   2.873  1.1405  1.8328  1.2982
10759TIP3   OH253767   0.397   0.493   2.989 -0.0895  0.3240  0.0110
10759TIP3    H153768   0.310   0.456   2.972  0.2627 -0.4683 -0.0990
10759TIP3    H253769   0.382   0.560   3.056 -0.7168 -0.1258  0.3298
10760TIP3   OH253770   4.040   1.759  10.096  0.0807  0.1924 -0.1159
10760TIP3    H153771   4.049   1.664  10.103  2.3825  0.3657 -0.1243
10760TIP3    H253772   4.009   1.774  10.007  0.8823 -0.4945 -0.5181
10761TIP3   OH253773   2.259   0.820   3.340  0.1088  1.0563  0.4331
10761TIP3    H153774   2.280   0.736   3.380 -0.1185  0.0360 -1.4662
10761TIP3    H253775   2.166   0.833   3.358 -0.9249 -1.1215 -2.5087
10762TIP3   OH253776   1.047   1.752  14.915 -0.2273 -0.7504  0.0345
10762TIP3    H153777   1.068   1.693  14.841 -1.7820 -0.9113 -0.3130
10762TIP3    H253778   1.090   1.834  14.892 -0.5517 -0.8448 -0.9942
10763TIP3   OH253779   3.367   4.753   5.104  0.3096  0.0481 -0.6454
10763TIP3    H153780   3.423   4.724   5.175  0.0439  1.9482  0.4185
10763TIP3    H253781   3.327   4.834   5.136 -2.7707 -0.9790 -1.4784
10764TIP3   OH253782   1.018   1.888  13.729  0.4086  0.1194  0.0725
10764TIP3    H153783   0.977   1.924  13.650 -0.3240 -0.6041  0.1075
10764TIP3    H253784   1.000   1.954  13.797  0.7833  0.6046 -0.2912
10765TIP3   OH253785   1.031   3.049   3.140  0.3852  0.1743 -0.0128
10765TIP3    H153786   0.966   2.979   3.133  0.6905 -0.3508  1.7449
10765TIP3    H253787   1.033   3.090   3.054 -0.7092 -1.1878 -0.7176
10766TIP3   OH253788   6.216   2.464   0.987  0.0794 -0.5056  0.0665
10766TIP3    H153789   6.213   2.543   0.933  0.5862  0.2405  1.1022
10766TIP3    H253790   6.221   2.392   0.923 -0.5355  0.2662 -0.8956
10767TIP3   OH253791   0.241   6.366   2.409 -0.3898  0.1685 -0.9101
10767TIP3    H153792   0.186   6.366   2.488 -0.9038 -2.1297 -1.1882
10767TIP3    H253793   0.330   6.373   2.442 -0.6849  1.4862 -0.3013
10768TIP3   OH253794   1.576   3.347   2.018 -0.1938 -0.4185 -1.3009
10768TIP3    H153795   1.637   3.393   1.960 -0.5956 -0.1455 -1.5096
10768TIP3    H253796   1.571   3.402   2.096 -1.2712  0.3115 -1.8610
10769TIP3   OH253797   4.245   5.451   5.216  0.0059 -0.1931 -0.3237
10769TIP3    H153798   4.323   5.397   5.213  1.0817  1.3340 -1.4316
10769TIP3    H253799   4.173   5.389   5.226  1.1811 -1.8136 -1.3988
10770TIP3   OH253800   0.544   3.708   3.794 -0.1273 -0.0472  0.6730
10770TIP3    H153801   0.587   3.781   3.749 -0.7083  0.4328  0.8884
10770TIP3    H253802   0.614   3.667   3.845  0.6407 -0.8391 -0.9148
10771TIP3   OH253803   1.999   4.287  11.722 -0.0049  0.1571  1.0553
10771TIP3    H153804   1.939   4.326  11.659  0.8329 -0.1782  0.0087
10771TIP3    H253805   1.944   4.232  11.778 -0.8164  0.7583  0.8552
10772TIP3   OH253806   0.416   6.423  10.545  0.2123  0.4192 -1.0218
10772TIP3    H153807   0.385   6.443  10.633  0.7542  0.4726 -0.8402
10772TIP3    H253808   0.346   6.452  10.487 -0.8206 -0.9775 -0.5369
10773TIP3   OH253809   5.195   5.840  15.122  0.2626  0.2365  0.2023
10773TIP3    H153810   5.277   5.856  15.075 -1.1038  0.5817 -2.2459
10773TIP3    H253811   5.203   5.890  15.204  2.1932  0.8250 -0.3090
10774TIP3   OH253812   6.180   3.839   0.550 -0.2190 -0.2904 -0.4152
10774TIP3    H153813   6.186   3.776   0.479 -1.2855 -1.0120  0.1132
10774TIP3    H253814   6.086   3.845   0.569 -0.3513  2.6034 -1.4567
10775TIP3   OH253815   3.801   0.057   2.734  0.3260 -0.1016  0.6508
10775TIP3    H153816   3.758  -0.006   2.791 -1.0929 -1.2937 -1.6079
10775TIP3    H253817   3.731   0.097   2.683  1.5911 -0.1417 -1.2578
10776TIP3   OH253818   1.963   6.616   3.166 -0.6973  0.5612  0.1131
10776TIP3    H153819   1.875   6.578   3.174  0.3595 -1.6374  2.3494
10776TIP3    H253820   2.012   6.553   3.114 -0.0459  1.0668  0.1024
10777TIP3   OH253821   1.836   1.648   2.670  0.6972  0.3530 -0.0903
10777TIP3    H153822   1.743   1.633   2.651 -0.2797  0.9571  3.5295
10777TIP3    H253823   1.841   1.741   2.690  2.3643  0.5473 -1.2074
10778TIP3   OH253824   7.128   2.472  10.803  0.1694 -0.0293  0.2416
10778TIP3    H153825   7.170   2.546  10.759  0.3048 -0.3075 -0.0927
10778TIP3    H253826   7.068   2.513  10.866  0.6714  0.3640  0.4627
10779TIP3   OH253827   0.316   4.472   5.222 -0.3231  0.6956  0.2475
10779TIP3    H153828   0.366   4.394   5.198 -2.6531 -0.6116 -0.7006
10779TIP3    H253829   0.342   4.491   5.312  0.7410 -0.8227  0.2918
10780TIP3   OH253830   6.807   4.665   2.761 -0.7847  0.2694 -0.1815
10780TIP3    H153831   6.714   4.646   2.750 -0.7198  0.6520 -1.6183
10780TIP3    H253832   6.812   4.713   2.844 -1.4913 -2.0325  1.2649
10781TIP3   OH253833   5.775   7.125   2.231 -0.3395  0.1624  0.3461
10781TIP3    H153834   5.837   7.188   2.193  0.1139  0.1460  1.0407
10781TIP3    H253835   5.788   7.133   2.326 -1.2708  0.0220  0.4928
10782TIP3   OH253836   4.174   6.905   0.658 -0.0428  0.4018  0.1269
10782TIP3    H153837   4.206   6.995   0.651 -0.8245  0.8648  1.8728
10782TIP3    H253838   4.245   6.852   0.623  0.4472  1.6793 -0.9209
10783TIP3   OH253839   3.892   1.809  13.700 -0.5947  0.0920 -0.3237
10783TIP3    H153840   3.871   1.822  13.607  0.5443 -3.1646 -1.1719
10783TIP3    H253841   3.848   1.727  13.724 -0.1340  0.3982  1.7793
10784TIP3   OH253842   1.240   4.291  13.045  0.3221  0.1877 -0.2019
10784TIP3    H153843   1.159   4.244  13.026  1.3355 -1.3911 -0.8078
10784TIP3    H253844   1.279   4.243  13.118  0.6988  0.9693  0.1178
10785TIP3   OH253845   6.863   3.823  13.214  0.2846 -0.3536 -0.3649
10785TIP3    H153846   6.843   3.802  13.122  0.1647 -1.3578 -0.1294
10785TIP3    H253847   6.933   3.762  13.237  0.0299 -0.3916  0.3222
10786TIP3   OH253848   0.748   6.552   2.611  0.2663  0.0887  0.5195
10786TIP3    H153849   0.774   6.546   2.520 -1.0340 -1.9756  0.2151
10786TIP3    H253850   0.742   6.646   2.629  1.7621  0.5368 -1.1203
10787TIP3   OH253851   0.967   0.852  14.465  0.1058  0.3803  0.1727
10787TIP3    H153852   0.928   0.842  14.551 -1.3736  3.2424 -0.0303
10787TIP3    H253853   1.041   0.912  14.478  1.0695 -0.6670 -0.2958
10788TIP3   OH253854   2.006   4.589   3.574  0.4741 -0.1909  0.4955
10788TIP3    H153855   2.026   4.496   3.580  1.5054  0.1037  2.0321
10788TIP3    H253856   1.948   4.607   3.649 -2.3327 -0.1609 -1.4946
10789TIP3   OH253857   1.092   4.499  13.607  0.1548  0.2437  0.2086
10789TIP3    H153858   1.039   4.465  13.535  0.6666 -0.8279  0.3130
10789TIP3    H253859   1.118   4.587  13.579  1.5717 -0.6899 -1.5908
10790TIP3   OH253860   3.536   6.606   0.083  0.3723 -0.2464 -0.2092
10790TIP3    H153861   3.557   6.695   0.111  0.2658 -0.1398 -0.4640
10790TIP3    H253862   3.472   6.575   0.148  0.0777  0.0243 -0.3634
10791TIP3   OH253863   6.299   6.985   2.619  0.3136 -0.9241 -0.6337
10791TIP3    H153864   6.309   6.894   2.591  0.4518 -1.3751  0.7784
10791TIP3    H253865   6.370   6.998   2.683 -1.1033 -0.5995  0.9523
10792TIP3   OH253866   2.645   1.592   0.951  0.1409  0.3242  0.4870
10792TIP3    H153867   2.740   1.602   0.938  0.1992 -1.8243 -1.4972
10792TIP3    H253868   2.629   1.499   0.937 -2.3023  0.6704  0.6128
10793TIP3   OH253869   0.025   2.136  15.695  0.5442  0.1174 -0.0854
10793TIP3    H153870  -0.023   2.079  15.755 -0.1569  1.6093  0.8619
10793TIP3    H253871  -0.017   2.123  15.610  0.6677 -1.0442  0.0252
10794TIP3   OH253872   0.056   2.241   4.175  0.4858  0.3818 -0.2902
10794TIP3    H153873   0.148   2.267   4.183 -0.1273  2.1042  3.5166
10794TIP3    H253874   0.019   2.259   4.261 -3.6049  0.3577 -1.8379
10795TIP3   OH253875   6.462   4.006   5.003 -0.0174 -0.5313 -0.0165
10795TIP3    H153876   6.548   3.990   5.041 -0.2988 -2.4925 -0.0792
10795TIP3    H253877   6.481   4.042   4.916  0.7628 -1.2303 -0.1500
10796TIP3   OH253878   5.915   3.172  14.155 -0.0782  0.5201  0.1437
10796TIP3    H153879   5.893   3.225  14.232  0.1077  0.4151  0.2710
10796TIP3    H253880   6.009   3.188  14.141  0.1020 -0.1820  0.5014
10797TIP3   OH253881   2.065   6.323  10.563 -0.4291 -0.0914  0.5202
10797TIP3    H153882   2.027   6.408  10.540 -1.6184 -1.2053 -1.9650
10797TIP3    H253883   1.993   6.261  10.553  1.2456 -1.8677 -1.3257
10798TIP3   OH253884   4.505   3.397   0.697 -0.1749  0.8674 -0.0340
10798TIP3    H153885   4.417   3.389   0.662 -0.8322  0.3892  1.6273
10798TIP3    H253886   4.546   3.466   0.645 -1.5603  1.1683 -0.7512
10799TIP3   OH253887   0.038   2.708   5.496 -0.1184  0.0263  0.2323
10799TIP3    H153888   0.062   2.701   5.589 -1.4424 -0.6016  0.5562
10799TIP3    H253889  -0.014   2.629   5.479 -0.8746  0.7126 -0.7241
10800TIP3   OH253890   5.464   1.186   0.208 -0.5630  0.4932  0.2723
10800TIP3    H153891   5.527   1.143   0.151  0.0505  1.7007  0.0303
10800TIP3    H253892   5.516   1.220   0.281 -0.6791  2.7652 -0.6479
10801TIP3   OH253893   0.042   2.257  15.015 -0.1156 -0.2985 -0.4499
10801TIP3    H153894   0.043   2.292  14.926 -1.7998 -0.0152 -0.3985
10801TIP3    H253895  -0.044   2.282  15.050 -0.2097 -1.9200  0.6213
10802TIP3   OH253896   2.578   3.889   3.438  0.5573 -0.0014 -0.1964
10802TIP3    H153897   2.495   3.934   3.451 -0.7078 -1.8192 -1.5223
10802TIP3    H253898   2.621   3.938   3.367 -0.3946 -0.3166 -1.0085
10803TIP3   OH253899   1.034   6.051   5.757 -0.5309  0.0194 -0.0434
10803TIP3    H153900   1.127   6.049   5.780 -0.9571 -1.9210  1.7728
10803TIP3    H253901   1.005   6.138   5.783  0.3954  0.0058  1.1374
10804TIP3   OH253902   4.704   3.355  10.357 -0.7537 -0.4385  0.5610
10804TIP3    H153903   4.790   3.353  10.399  0.7605  3.5131 -1.6909
10804TIP3    H253904   4.645   3.389  10.424  0.4439  0.8004  1.0465
10805TIP3   OH253905   5.043   3.697   0.693  0.0320  0.1902 -0.1884
10805TIP3    H153906   5.044   3.607   0.661  1.5744 -0.3888  1.3073
10805TIP3    H253907   5.134   3.716   0.714 -0.5635  1.2684  1.6936
10806TIP3   OH253908   6.400   4.111   2.000  0.3731  0.2490 -0.1014
10806TIP3    H153909   6.462   4.072   1.939 -1.1836  0.5107 -1.9350
10806TIP3    H253910   6.413   4.063   2.082  3.2048  0.5616 -0.2710
10807TIP3   OH253911   3.926   3.432   1.324  0.2345  0.4548  0.1386
10807TIP3    H153912   3.844   3.457   1.366 -0.4281 -0.5610 -0.5094
10807TIP3    H253913   3.994   3.460   1.385 -0.4970  2.6399  0.0277
10808TIP3   OH253914   6.891   4.847   5.457  0.1849 -0.1150 -0.2686
10808TIP3    H153915   6.966   4.849   5.517 -0.7278 -1.3524  0.9817
10808TIP3    H253916   6.894   4.760   5.418 -1.0960 -0.5412  0.5050
10809TIP3   OH253917   1.136   1.639  10.622 -0.0523  0.0722  0.2945
10809TIP3    H153918   1.069   1.708  10.619 -0.1189 -0.0076 -0.3495
10809TIP3    H253919   1.090   1.560  10.593  0.1899 -0.0949  0.3654
10810TIP3   OH253920   2.663   4.235   4.022  0.5301  0.0908 -0.0274
10810TIP3    H153921   2.674   4.154   3.972 -0.0161  0.9193 -1.5709
10810TIP3    H253922   2.607   4.289   3.967  0.4689  1.3299  1.2032
10811TIP3   OH253923   0.753   6.504  12.394  0.3143  0.0344 -0.4136
10811TIP3    H153924   0.793   6.471  12.313 -2.6524 -1.8577 -1.2812
10811TIP3    H253925   0.746   6.428  12.450  2.8296  1.4224  2.0551
10812TIP3   OH253926   1.608   5.024  11.263  0.9637  0.3400 -0.6893
10812TIP3    H153927   1.601   4.983  11.349  0.9129  0.1759 -0.7714
10812TIP3    H253928   1.579   4.957  11.202  1.3022  0.3506 -0.8624
10813TIP3   OH253929   4.205   5.254   1.632 -0.1358  0.4262  0.0088
10813TIP3    H153930   4.154   5.211   1.701 -0.5363 -0.3334 -0.7464
10813TIP3    H253931   4.264   5.186   1.600  0.1889  0.8338 -0.2699
10814TIP3   OH253932   0.235   1.116   1.125 -0.0717  0.3063 -0.2893
10814TIP3    H153933   0.193   1.031   1.138 -0.1751 -0.0659 -2.6456
10814TIP3    H253934   0.164   1.174   1.098 -0.0906  1.3381  1.7527
10815TIP3   OH253935   6.125   6.159   1.495  0.0339 -0.4079 -0.5802
10815TIP3    H153936   6.216   6.177   1.518 -0.1344 -0.3338  0.0557
10815TIP3    H253937   6.078   6.165   1.578 -0.4473 -1.1171 -0.7953
10816TIP3   OH253938   4.470   2.053  15.280  0.2676 -0.0523 -0.0793
10816TIP3    H153939   4.538   2.032  15.344  0.3573  1.0734  0.2105
10816TIP3    H253940   4.396   2.081  15.332 -0.0089 -0.0986 -0.4424
10817TIP3   OH253941   1.850   1.194  10.334  0.3781  0.0969  0.6457
10817TIP3    H153942   1.850   1.289  10.320  1.7246  0.4307  2.4525
10817TIP3    H253943   1.910   1.159  10.268 -0.4518  0.4296 -0.3015
10818TIP3   OH253944   1.350   4.623   5.945 -0.3426 -0.2766 -0.1245
10818TIP3    H153945   1.437   4.630   5.983 -1.2980  0.1566  2.1448
10818TIP3    H253946   1.328   4.711   5.915 -0.1938 -0.2785 -0.2353
10819TIP3   OH253947   5.377   6.398   4.031 -0.0457 -0.5177  0.0025
10819TIP3    H153948   5.350   6.383   3.940  0.4195  0.6211 -0.3507
10819TIP3    H253949   5.460   6.352   4.040  1.4514  1.7743 -1.1063
10820TIP3   OH253950   4.559   2.566  13.306 -0.3741  0.3067  0.8011
10820TIP3    H153951   4.608   2.613  13.374  1.6442 -0.0413 -0.3408
10820TIP3    H253952   4.515   2.496  13.354 -0.4989  1.1644  2.0015
10821TIP3   OH253953   3.051   3.849  14.813 -0.3489 -0.5295 -0.1281
10821TIP3    H153954   2.977   3.803  14.773 -0.5422  0.0844 -0.4939
10821TIP3    H253955   3.061   3.929  14.760  0.7661 -0.7437 -0.2834
10822TIP3   OH253956   1.733   3.802   3.722 -0.8245 -0.8333 -0.2513
10822TIP3    H153957   1.755   3.781   3.812  1.8413  0.2636 -0.5657
10822TIP3    H253958   1.727   3.717   3.678 -0.6121 -1.3129  0.6323
10823TIP3   OH253959   1.890   3.534   2.993 -0.6071 -0.0037 -0.3007
10823TIP3    H153960   1.966   3.575   2.951 -1.5977  1.6086 -0.6414
10823TIP3    H253961   1.892   3.443   2.963  1.7169 -0.2845  0.4955
10824TIP3   OH253962   3.068   5.817  14.562  0.7694 -0.1966 -0.6777
10824TIP3    H153963   3.017   5.740  14.588  0.4489 -0.0885 -0.9808
10824TIP3    H253964   3.119   5.839  14.640  1.1416 -0.9321 -0.7055
10825TIP3   OH253965   1.379   6.765  15.022 -0.3929 -0.4983  0.2486
10825TIP3    H153966   1.467   6.730  15.007 -0.4900 -2.2943  3.0118
10825TIP3    H253967   1.341   6.775  14.935  2.1974 -0.5185 -0.9765
10826TIP3   OH253968   4.286   3.548   9.621  0.1596 -0.0276 -0.1667
10826TIP3    H153969   4.333   3.472   9.587  2.0538  1.2458 -0.5632
10826TIP3    H253970   4.345   3.585   9.687 -0.5930  1.2493 -0.1699
10827TIP3   OH253971   5.703   6.510   0.280 -0.3248  0.0832  0.2988
10827TIP3    H153972   5.790   6.472   0.267  0.5042  2.1225 -0.7185
10827TIP3    H253973   5.657   6.493   0.198 -0.3171  0.3466  0.2388
10828TIP3   OH253974   1.498   2.712  13.303 -0.4832  0.0139  0.4722
10828TIP3    H153975   1.497   2.769  13.225  0.5559 -1.4255 -0.6609
10828TIP3    H253976   1.553   2.759  13.366  0.7872  0.0807 -0.6275
10829TIP3   OH253977   2.170   0.678   0.692 -0.0553 -0.0364  0.4167
10829TIP3    H153978   2.124   0.611   0.642 -0.9721  0.7766  0.1218
10829TIP3    H253979   2.202   0.739   0.626 -0.9756  0.8640  0.7744
10830TIP3   OH253980   3.092   0.229   3.702 -0.1548 -0.0613 -0.5382
10830TIP3    H153981   3.099   0.323   3.683  0.2393 -0.1632 -0.9132
10830TIP3    H253982   3.175   0.192   3.672  0.6101 -0.2088  1.5588
10831TIP3   OH253983   2.234   2.902   2.375 -0.4238  0.2646 -0.4171
10831TIP3    H153984   2.145   2.916   2.405 -0.3399 -0.5881  0.2626
10831TIP3    H253985   2.241   2.955   2.295 -0.8031  2.2015  0.7760
10832TIP3   OH253986   3.027   0.379   3.389 -0.3288 -0.4489  0.0700
10832TIP3    H153987   3.103   0.321   3.381 -1.4748 -1.9378 -0.6278
10832TIP3    H253988   3.020   0.421   3.304 -0.1791 -0.1543  0.2012
10833TIP3   OH253989   5.651   1.742   5.014  0.1288  0.5234 -0.0724
10833TIP3    H153990   5.738   1.730   4.975  0.1902 -0.6107  0.3842
10833TIP3    H253991   5.590   1.721   4.943  0.2384 -0.0902  0.0079
10834TIP3   OH253992   6.300   4.586  12.883  0.3251 -0.5341  0.8565
10834TIP3    H153993   6.218   4.602  12.930 -0.6897 -2.3845 -0.1865
10834TIP3    H253994   6.347   4.524  12.938  0.4826 -0.4107  0.8615
10835TIP3   OH253995   4.540   5.928  12.359  0.5421 -0.1119  0.0374
10835TIP3    H153996   4.461   5.901  12.406  0.0311 -0.4210 -0.9671
10835TIP3    H253997   4.514   5.927  12.267  1.9316 -0.9454 -0.3629
10836TIP3   OH253998   2.931   4.095   1.807  0.1953  0.1240  0.2149
10836TIP3    H153999   2.914   4.100   1.901  0.1550  0.1283  0.2073
10836TIP3    H254000   2.974   4.010   1.795 -0.0160  0.0196  0.2038
10837TIP3   OH254001   6.121   5.348   2.305  0.2856 -0.4531 -0.4030
10837TIP3    H154002   6.101   5.437   2.335 -0.1628 -0.8347  0.4622
10837TIP3    H254003   6.216   5.348   2.294  0.4372 -0.1930  0.7170
10838TIP3   OH254004   4.158   6.066  13.594  0.0211 -0.0708  0.9903
10838TIP3    H154005   4.233   6.039  13.540 -0.6691  1.2497 -0.7036
10838TIP3    H254006   4.086   6.076  13.531 -1.0964  0.4748  2.3249
10839TIP3   OH254007   3.944   6.734   3.626  0.1637  0.0408  0.1177
10839TIP3    H154008   3.904   6.802   3.571 -0.5810  0.5639  1.2618
10839TIP3    H254009   3.986   6.674   3.564  0.4518  1.2925 -0.9508
10840TIP3   OH254010   2.183   3.671  14.267  0.4757  0.1863 -0.0667
10840TIP3    H154011   2.118   3.625  14.320  1.9995 -2.0562  0.0075
10840TIP3    H254012   2.223   3.733  14.327  0.0893 -0.1646  0.5644
10841TIP3   OH254013   1.739   5.064   2.307 -0.2546  0.1174 -0.2144
10841TIP3    H154014   1.763   5.130   2.372 -2.1340  1.2244 -0.5596
10841TIP3    H254015   1.754   4.980   2.351 -1.0118  0.8288  1.5102
10842TIP3   OH254016   0.283   0.520   2.376 -0.3725  0.3379  0.3177
10842TIP3    H154017   0.329   0.516   2.293 -0.6108  0.6343  0.1704
10842TIP3    H254018   0.350   0.543   2.440 -0.3495  0.9683  0.0736
10843TIP3   OH254019   6.959   6.106   1.170 -0.6349 -0.0174  0.0029
10843TIP3    H154020   7.044   6.106   1.213 -1.8728 -0.2961  2.6650
10843TIP3    H254021   6.936   6.199   1.161 -0.2159  0.0490 -0.4474
10844TIP3   OH254022   5.859   1.028  13.711  0.1348 -0.0669  0.3172
10844TIP3    H154023   5.806   1.075  13.776  1.6573  1.7586  0.3277
10844TIP3    H254024   5.896   0.954  13.759 -0.9903 -0.3675  0.7564
10845TIP3   OH254025   2.046   0.579  15.718  0.4595  0.2228 -0.2099
10845TIP3    H154026   2.025   0.659  15.766 -1.4226 -1.1230  1.3681
10845TIP3    H254027   1.967   0.560  15.667  0.6992 -0.8343 -0.2215
10846TIP3   OH254028   7.089   2.047  15.432  0.4984  0.5333 -0.4458
10846TIP3    H154029   7.112   1.965  15.475  0.4579  1.1386  0.7598
10846TIP3    H254030   7.049   2.020  15.349 -0.3431 -0.6792  0.3274
10847TIP3   OH254031   0.602   4.725   0.981 -0.1050  0.1000 -0.4335
10847TIP3    H154032   0.670   4.681   1.031 -1.6317 -0.8744  0.8578
10847TIP3    H254033   0.585   4.667   0.906  0.3049  0.2293 -0.6280
10848TIP3   OH254034   2.953   0.555  11.153  0.4703 -0.3806  0.1906
10848TIP3    H154035   3.048   0.562  11.157  0.4711 -0.7566  0.8629
10848TIP3    H254036   2.931   0.478  11.205 -0.2336 -0.0555  0.3965
10849TIP3   OH254037   0.905   0.716  13.817 -0.4145 -0.0513  0.6681
10849TIP3    H154038   0.972   0.732  13.750 -1.9045 -0.8254 -1.1124
10849TIP3    H254039   0.952   0.718  13.900  1.6552  0.1948 -0.4554
10850TIP3   OH254040   3.915   2.552  15.051 -0.1287 -0.9781  0.1061
10850TIP3    H154041   3.882   2.498  14.979 -0.9075  1.6382 -1.6690
10850TIP3    H254042   3.842   2.556  15.113 -0.1480 -1.7298  0.1427
10851TIP3   OH254043   6.224   1.802   3.817  0.0300  0.2764 -0.5312
10851TIP3    H154044   6.266   1.727   3.858 -1.1235 -0.5963 -0.9104
10851TIP3    H254045   6.261   1.806   3.729  1.7562  1.5430  0.1969
10852TIP3   OH254046   5.780   5.722  11.145  0.1663  0.4526  0.4547
10852TIP3    H154047   5.801   5.750  11.234  0.8255 -0.2646  0.5385
10852TIP3    H254048   5.699   5.673  11.154  0.4398  0.0399  0.7317
10853TIP3   OH254049   7.012   6.605   0.583 -0.0806  0.0318 -0.3365
10853TIP3    H154050   7.084   6.621   0.522 -1.0766 -0.5411 -1.7300
10853TIP3    H254051   6.939   6.579   0.527 -0.4424 -2.7306  1.2255
10854TIP3   OH254052   2.583   4.182   1.216 -0.6281 -0.0542 -0.4996
10854TIP3    H154053   2.596   4.227   1.132 -1.0899 -1.4959 -1.3841
10854TIP3    H254054   2.649   4.113   1.216  1.6831  1.9475  1.9050
10855TIP3   OH254055   2.277   2.952   4.716 -0.1714  0.1569  0.2471
10855TIP3    H154056   2.365   2.916   4.707 -0.1712 -0.0040  0.8447
10855TIP3    H254057   2.238   2.903   4.788  0.1513  1.9591  1.7441
10856TIP3   OH254058   4.102   3.409  11.871  0.3478 -0.5222  0.0281
10856TIP3    H154059   4.032   3.343  11.862  0.6492 -0.8673  0.2110
10856TIP3    H254060   4.100   3.433  11.964  0.7888 -0.8818  0.1310
10857TIP3   OH254061   0.522   2.753   2.484 -0.1609 -0.4146  0.0159
10857TIP3    H154062   0.541   2.732   2.392  0.4044 -0.2598  0.0954
10857TIP3    H254063   0.471   2.679   2.515  0.5498 -0.9767 -0.1278
10858TIP3   OH254064   0.380   5.268  10.542  0.0885  0.1259 -0.1118
10858TIP3    H154065   0.435   5.302  10.613 -1.1124 -0.1196  0.9824
10858TIP3    H254066   0.401   5.174  10.539 -0.7978 -0.1320  0.8585
10859TIP3   OH254067   1.344   5.082  13.301 -0.3796 -0.3662 -0.2405
10859TIP3    H154068   1.374   5.128  13.379 -0.9683  0.1307 -0.2977
10859TIP3    H254069   1.368   4.991  13.316 -0.0939 -0.2022  0.3209
10860TIP3   OH254070   4.125   4.306   3.231  0.1887  0.1781  0.6315
10860TIP3    H154071   4.212   4.292   3.195  0.3611 -2.1797  1.7560
10860TIP3    H254072   4.080   4.360   3.166  1.4340 -1.2969 -1.5908
10861TIP3   OH254073   3.285   3.997  10.020  0.0856 -0.3843  0.4706
10861TIP3    H154074   3.329   3.913  10.012  2.1310  0.7331 -0.7899
10861TIP3    H254075   3.284   4.033   9.931 -0.3629  1.1166  1.0354
10862TIP3   OH254076   6.997   4.510   2.068 -0.4410 -0.0188  0.1015
10862TIP3    H154077   6.928   4.507   2.134  0.5229 -0.2167  1.1279
10862TIP3    H254078   7.038   4.595   2.080  0.9977 -0.8042  1.1229
10863TIP3   OH254079   6.724   6.718   0.632 -0.5910  0.1810 -0.0184
10863TIP3    H154080   6.628   6.711   0.635 -0.7652  1.9069 -0.4229
10863TIP3    H254081   6.749   6.659   0.560 -1.2969 -0.5659  0.3210
10864TIP3   OH254082   4.219   1.067  11.945  0.2211  0.2531 -0.5459
10864TIP3    H154083   4.156   1.068  11.873  0.5071 -1.3679 -0.8637
10864TIP3    H254084   4.259   0.980  11.941 -0.5322 -0.3433  2.2411
10865TIP3   OH254085   4.121   5.467   4.831  0.1584  0.4878 -0.3382
10865TIP3    H154086   4.033   5.498   4.855  0.4077  1.0558 -0.1488
10865TIP3    H254087   4.106   5.410   4.756 -0.6738 -1.5996  1.3104
10866TIP3   OH254088   6.964   5.078  15.279  0.4970  0.5095 -0.2079
10866TIP3    H154089   6.923   5.157  15.244 -2.3496 -0.3423  0.8977
10866TIP3    H254090   6.982   5.024  15.202 -0.4938  0.9525 -0.7745
10867TIP3   OH254091   4.875   4.545   0.965 -0.0988 -0.2218 -0.3944
10867TIP3    H154092   4.932   4.621   0.972 -1.2640  0.6254  0.2630
10867TIP3    H254093   4.886   4.499   1.048 -0.0964 -0.2428 -0.4064
10868TIP3   OH254094   4.555   3.945   9.865  0.2969  0.2236  0.0168
10868TIP3    H154095   4.616   3.965   9.794 -0.8714  2.5523 -0.4281
10868TIP3    H254096   4.601   3.880   9.918  1.4186 -1.1828 -2.5260
10869TIP3   OH254097   1.355   2.073   0.429 -0.0338 -1.0445 -0.3931
10869TIP3    H154098   1.306   2.138   0.481  1.5689  0.0122 -0.1363
10869TIP3    H254099   1.347   1.992   0.478 -0.9570 -0.7367 -0.0121
10870TIP3   OH254100   3.786   2.696  10.736  0.2679  0.5255 -0.2588
10870TIP3    H154101   3.754   2.666  10.821  2.3843 -0.9602  0.0777
10870TIP3    H254102   3.779   2.791  10.740 -1.4793  0.3965  0.7968
10871TIP3   OH254103   3.676   3.588  12.938  0.1061  0.4682  0.0924
10871TIP3    H154104   3.738   3.600  13.009 -0.9056  0.7658  0.9613
10871TIP3    H254105   3.707   3.510  12.891  1.2369  0.7440  0.3643
10872TIP3   OH254106   5.614   3.984  10.091  0.1006 -0.0650 -0.0821
10872TIP3    H154107   5.530   4.004  10.131 -0.3755 -0.5005 -0.8545
10872TIP3    H254108   5.599   3.904  10.042  1.5784 -1.5774  1.7585
10873TIP3   OH254109   4.110   6.835  12.691 -0.5773 -0.1176 -0.4134
10873TIP3    H154110   4.122   6.742  12.708 -0.6075 -0.1940 -0.7977
10873TIP3    H254111   4.179   6.879  12.740 -0.9038 -0.3047  0.2142
10874TIP3   OH254112   6.102   7.125   3.089  0.1636 -0.3892 -0.1472
10874TIP3    H154113   6.009   7.105   3.093 -0.4299  2.0056 -0.3749
10874TIP3    H254114   6.107   7.204   3.035  2.1566  0.3532  1.0147
10875TIP3   OH254115   1.845   1.035  13.596 -0.5331  0.3767 -0.3557
10875TIP3    H154116   1.772   1.095  13.577 -2.6011 -1.5046  1.0938
10875TIP3    H254117   1.846   0.975  13.521 -0.3978  0.4601 -0.4210
10876TIP3   OH254118   6.953   0.373   9.660 -0.1357  0.2899 -0.0399
10876TIP3    H154119   6.963   0.393   9.567  0.3251 -1.9630 -0.5210
10876TIP3    H254120   7.036   0.398   9.700 -0.6776  2.1834 -0.0108
10877TIP3   OH254121   2.205   5.851  11.044 -0.0021  0.1816  0.1114
10877TIP3    H154122   2.239   5.819  11.127  0.0876 -0.5828 -0.2048
10877TIP3    H254123   2.165   5.773  11.004  0.2793  0.4554 -0.7173
10878TIP3   OH254124   2.106   2.904  10.910  0.4882 -0.6274  0.6624
10878TIP3    H154125   2.187   2.898  10.859  1.4927  1.1507  1.8976
10878TIP3    H254126   2.037   2.875  10.851  1.9513 -1.6288 -0.6282
10879TIP3   OH254127   2.422   3.168   2.776  0.1791  0.9780 -0.1138
10879TIP3    H154128   2.407   3.089   2.724  0.6741  0.8065 -0.0101
10879TIP3    H254129   2.495   3.145   2.834 -0.9682  0.8393  1.3484
10880TIP3   OH254130   5.990   1.876  13.761  0.4090 -0.1173 -0.8855
10880TIP3    H154131   5.987   1.782  13.780  0.0410  0.2190  0.8731
10880TIP3    H254132   5.981   1.881  13.666 -0.2239 -1.8300 -0.9578
10881TIP3   OH254133   4.926   2.207  14.964 -0.3793 -0.3510 -0.2992
10881TIP3    H154134   4.862   2.278  14.971 -1.4996 -1.4431  1.2326
10881TIP3    H254135   4.909   2.152  15.040 -0.9346 -3.4114 -2.4481
10882TIP3   OH254136   0.917   6.859   3.133 -0.6202 -0.2280  0.5083
10882TIP3    H154137   0.910   6.943   3.088  1.0455 -0.4942 -0.2883
10882TIP3    H254138   0.917   6.882   3.226  0.3056  0.7134  0.2949
10883TIP3   OH254139   1.761   6.804   5.312  0.3737 -0.0489 -0.0371
10883TIP3    H154140   1.689   6.764   5.262 -0.8583  3.2100 -1.0896
10883TIP3    H254141   1.839   6.787   5.259 -0.5460  1.2569 -1.9001
10884TIP3   OH254142   7.101   0.046  13.867 -0.0374  0.2786  0.1269
10884TIP3    H154143   7.007   0.026  13.873 -0.6410  2.4911 -0.7685
10884TIP3    H254144   7.119   0.095  13.947  0.4204 -0.2857  0.3759
10885TIP3   OH254145   3.440   2.500  12.913  0.1040  0.1622  0.0714
10885TIP3    H154146   3.497   2.459  12.978 -1.0269 -1.6155  0.0209
10885TIP3    H254147   3.499   2.524  12.841  0.6534 -3.4347 -0.8643
10886TIP3   OH254148   6.415   6.039   0.193 -0.1074 -0.1275 -0.2401
10886TIP3    H154149   6.386   6.007   0.278 -0.4987  3.2632  1.0890
10886TIP3    H254150   6.496   6.087   0.211 -2.0038  3.7691 -0.8786
10887TIP3   OH254151   2.539   4.379  15.521  0.2735  0.0473 -0.4536
10887TIP3    H154152   2.571   4.469  15.513  1.3082 -0.2758 -0.1617
10887TIP3    H254153   2.580   4.346  15.601 -0.3017 -0.5975 -0.4201
10888TIP3   OH254154   2.125   6.830  14.611  0.4284 -0.6106 -0.4436
10888TIP3    H154155   2.075   6.757  14.648  0.1855 -0.7494 -1.0300
10888TIP3    H254156   2.179   6.789  14.542 -0.6282 -0.0657 -1.6321
10889TIP3   OH254157   5.815   2.120  13.143 -0.7344  0.0601  0.0450
10889TIP3    H154158   5.752   2.174  13.095 -1.3179  0.2956  1.0421
10889TIP3    H254159   5.828   2.167  13.226  0.1341 -0.4116  0.1876
10890TIP3   OH254160   6.766   2.312   4.040  0.6689 -0.2294 -0.1515
10890TIP3    H154161   6.701   2.372   4.004  0.3527  1.4318  2.8572
10890TIP3    H254162   6.836   2.369   4.072  0.1978 -1.2965  3.1459
10891TIP3   OH254163   5.752   2.689   3.627 -0.4039  0.2983  0.9542
10891TIP3    H154164   5.789   2.616   3.677  0.7030  0.8722  1.0005
10891TIP3    H254165   5.814   2.702   3.555 -1.7643 -0.2645 -0.3732
10892TIP3   OH254166   4.672   0.279   3.961 -0.6409 -0.4396 -0.0436
10892TIP3    H154167   4.748   0.338   3.953  1.2346 -2.6464  0.3604
10892TIP3    H254168   4.655   0.251   3.871  0.3083 -1.3798  0.0419
10893TIP3   OH254169   5.291   0.675  13.214  0.0289 -0.2748 -0.2892
10893TIP3    H154170   5.277   0.592  13.169  2.0490 -0.8416  0.0430
10893TIP3    H254171   5.368   0.713  13.173 -0.0628  0.7923  0.4720
10894TIP3   OH254172   4.611   6.025  10.499 -0.5632  0.1099  0.0801
10894TIP3    H154173   4.566   6.028  10.415 -0.8363 -1.2508  0.1522
10894TIP3    H254174   4.687   6.082  10.488  1.4093 -2.6818 -2.3337
10895TIP3   OH254175   6.633   5.128   4.397  0.5725 -0.5574 -0.6080
10895TIP3    H154176   6.700   5.194   4.377 -0.2033  0.0070 -1.4163
10895TIP3    H254177   6.555   5.160   4.352 -0.3589 -0.9746  0.6735
10896TIP3   OH254178   3.668   4.825   0.995  0.1287 -0.0412 -0.2626
10896TIP3    H154179   3.590   4.788   0.955  0.5153 -3.5425  1.8632
10896TIP3    H254180   3.740   4.771   0.962  0.7668 -1.2307  2.7485
10897TIP3   OH254181   1.835   6.291   3.754  0.2776 -0.6147 -0.7943
10897TIP3    H154182   1.799   6.358   3.813  0.4025 -0.8458 -0.4558
10897TIP3    H254183   1.928   6.313   3.748  0.2416 -0.5144 -1.0117
10898TIP3   OH254184   6.154   6.598   2.684 -0.1039  0.1044  0.0338
10898TIP3    H154185   6.235   6.645   2.707 -0.3014  0.0036  0.9796
10898TIP3    H254186   6.141   6.536   2.756 -0.4728 -0.5975 -0.6307
10899TIP3   OH254187   7.110   0.081  13.526 -0.2764  0.0231  0.7145
10899TIP3    H154188   7.201   0.065  13.550  0.2059  0.3974 -0.7392
10899TIP3    H254189   7.068   0.110  13.606  0.6408 -1.1024  1.6384
10900TIP3   OH254190   2.356   0.931  13.391  0.3760  0.3413  0.1255
10900TIP3    H154191   2.300   0.880  13.332 -0.4063  0.0730  1.0808
10900TIP3    H254192   2.297   0.961  13.460  1.5638 -0.7296  1.6787
10901TIP3   OH254193   1.123   2.856  15.712  0.2849  0.4022 -1.0859
10901TIP3    H154194   1.105   2.834  15.621 -0.4514  1.8324 -1.3190
10901TIP3    H254195   1.181   2.932  15.708 -0.4507  1.0332 -0.4014
10902TIP3   OH254196   0.242   0.139   4.484  0.3130 -1.2553  0.0376
10902TIP3    H154197   0.250   0.180   4.399  1.8955 -1.4237  0.0789
10902TIP3    H254198   0.330   0.144   4.522 -0.5506 -0.3495  2.0471
10903TIP3   OH254199   6.013   5.619   3.628 -0.1992 -0.0440  0.2978
10903TIP3    H154200   6.070   5.637   3.703 -0.5017 -0.6847  0.6985
10903TIP3    H254201   6.048   5.537   3.591 -0.2476  0.0996 -0.0666
10904TIP3   OH254202   1.844   6.120   3.092 -0.5947  0.6284 -0.4761
10904TIP3    H154203   1.911   6.066   3.050  0.5963  1.5602  0.1717
10904TIP3    H254204   1.802   6.061   3.155  1.3517  0.6572  0.9392
10905TIP3   OH254205   4.903   2.261   5.232  0.0452  0.2423  0.3482
10905TIP3    H154206   4.996   2.267   5.210  0.0411 -1.2432 -0.1719
10905TIP3    H254207   4.900   2.271   5.327  0.7423  0.1710  0.3830
10906TIP3   OH254208   3.566   2.258   2.131  0.0145 -0.2803  0.0220
10906TIP3    H154209   3.637   2.197   2.150 -0.5724 -1.0078 -0.0830
10906TIP3    H254210   3.539   2.292   2.216 -0.8044 -1.4796  0.2535
10907TIP3   OH254211   1.495   4.626  11.058  0.2510  0.1326  0.4218
10907TIP3    H154212   1.435   4.693  11.026  0.5321  0.0226 -0.3470
10907TIP3    H254213   1.482   4.626  11.153  2.0408  3.0459  0.7885
10908TIP3   OH254214   5.710   7.145  10.943 -0.2408 -0.5087 -0.2205
10908TIP3    H154215   5.625   7.185  10.921 -0.3611 -0.4345  0.3731
10908TIP3    H254216   5.772   7.187  10.883 -0.4110  0.3724  0.2042
10909TIP3   OH254217   6.446   3.178   2.200  0.1475 -0.0012 -0.0296
10909TIP3    H154218   6.517   3.243   2.198 -0.5032  0.6962 -1.7904
10909TIP3    H254219   6.450   3.143   2.289  1.4866  1.3728  0.5123
10910TIP3   OH254220   5.143   1.740   3.495  0.0463  0.0632  0.0313
10910TIP3    H154221   5.209   1.795   3.537 -0.7766  1.8717 -0.8926
10910TIP3    H254222   5.081   1.719   3.564  0.0990  0.7696  0.3006
10911TIP3   OH254223   0.194   0.189   4.831 -0.1210 -0.3274 -0.5443
10911TIP3    H154224   0.155   0.205   4.745  0.0355 -0.2404 -0.5992
10911TIP3    H254225   0.137   0.234   4.893 -1.6260 -2.3556 -0.3381
10912TIP3   OH254226   1.280   2.789  14.371  0.7654  0.1865  0.1152
10912TIP3    H154227   1.268   2.695  14.355 -0.4315  0.2322  0.6147
10912TIP3    H254228   1.293   2.795  14.466  2.9024  0.3629 -0.1418
10913TIP3   OH254229   4.981   3.986   0.905  0.2835 -0.2932 -0.4825
10913TIP3    H154230   5.028   3.909   0.939  0.0674  0.2250  1.0879
10913TIP3    H254231   5.050   4.051   0.891  0.3580 -0.4668 -0.9472
10914TIP3   OH254232   1.818   0.589   0.713 -0.2103  0.0087  0.4046
10914TIP3    H154233   1.889   0.580   0.650  0.3904  2.2896  0.6697
10914TIP3    H254234   1.854   0.554   0.795 -0.1503 -0.7376  0.0709
10915TIP3   OH254235   3.107   6.373   2.403 -0.3505  0.2759  0.6959
10915TIP3    H154236   3.197   6.343   2.414 -0.5087  0.2276  2.1141
10915TIP3    H254237   3.062   6.341   2.482 -1.1052  2.0850  1.0446
10916TIP3   OH254238   1.343   2.486   3.700  0.1693  0.3955  0.2771
10916TIP3    H154239   1.288   2.503   3.777  0.4700 -1.2530  0.9016
10916TIP3    H254240   1.290   2.426   3.646  2.1908 -3.4681  2.1531
10917TIP3   OH254241   3.707   6.374  15.312 -0.5277 -0.1921  0.1447
10917TIP3    H154242   3.693   6.297  15.257 -0.0296  0.2834 -0.6677
10917TIP3    H254243   3.759   6.433  15.258  1.0286 -0.1978  1.5515
10918TIP3   OH254244   3.349   3.486   2.167 -0.1284  0.5257 -0.0294
10918TIP3    H154245   3.356   3.536   2.249  1.0663 -0.6417  0.6104
10918TIP3    H254246   3.429   3.507   2.119 -0.3772  0.4616 -0.4801
10919TIP3   OH254247   3.102   3.905  14.332  0.4685  0.7105 -0.4145
10919TIP3    H154248   3.115   3.819  14.372  1.5748  1.2452  0.4119
10919TIP3    H254249   3.061   3.886  14.248  0.4827 -0.6129 -0.1381
10920TIP3   OH254250   6.578   6.113   4.893  0.1297 -0.8002 -0.1029
10920TIP3    H154251   6.573   6.181   4.960 -0.1782 -0.4801 -0.4449
10920TIP3    H254252   6.670   6.088   4.892  0.2887 -0.2360 -0.1213
10921TIP3   OH254253   0.045   6.612   4.797 -0.1633 -0.3190  0.1787
10921TIP3    H154254  -0.000   6.548   4.742 -0.1481 -0.9137  0.8444
10921TIP3    H254255  -0.025   6.650   4.851 -0.0104 -0.5880  0.5710
10922TIP3   OH254256   2.789   1.846  14.126  0.1065 -0.2295 -0.3049
10922TIP3    H154257   2.767   1.866  14.035  0.9258  0.6601 -0.3238
10922TIP3    H254258   2.875   1.804  14.121  0.3231  0.1590  0.0753
10923TIP3   OH254259   3.805   2.077  12.084  0.4846 -0.0577  0.0543
10923TIP3    H154260   3.840   2.159  12.117  1.1691 -1.1578  2.2240
10923TIP3    H254261   3.873   2.044  12.025  0.3387  0.7426 -0.5861
10924TIP3   OH254262   5.229   5.995   0.978 -0.3643 -0.1997 -0.6048
10924TIP3    H154263   5.318   5.978   0.950 -0.3663  0.0397 -0.7572
10924TIP3    H254264   5.178   5.996   0.897 -0.2660  1.1509 -0.6789
10925TIP3   OH254265   1.129   1.844   4.398  0.4666  0.5578 -0.2623
10925TIP3    H154266   1.058   1.885   4.447  1.1570  1.0221  0.3747
10925TIP3    H254267   1.165   1.779   4.459 -0.6938 -1.1236 -1.2958
10926TIP3   OH254268   5.502   1.659  11.086 -0.2952 -0.3520 -0.5715
10926TIP3    H154269   5.418   1.614  11.083  0.1304 -1.1282 -2.5781
10926TIP3    H254270   5.567   1.592  11.064  1.0348 -0.0245  1.9402
10927TIP3   OH254271   6.777   3.564  13.790  0.0022  0.0483 -0.4791
10927TIP3    H154272   6.779   3.655  13.759 -0.3552  0.7019  1.2764
10927TIP3    H254273   6.719   3.519  13.729  0.5737  0.8596 -1.6732
10928TIP3   OH254274   6.846   6.076  12.845  0.0955 -0.1504 -0.4000
10928TIP3    H154275   6.875   5.990  12.874  0.7568 -0.1235 -0.9641
10928TIP3    H254276   6.905   6.099  12.774  0.4233  1.0978  0.2391
10929TIP3   OH254277   2.180   1.299   4.650  0.2490 -0.0535 -0.3433
10929TIP3    H154278   2.263   1.260   4.623  1.1905  0.0761  2.1246
10929TIP3    H254279   2.116   1.229   4.639  1.7934 -2.3451  3.4624
10930TIP3   OH254280   3.298   1.784  12.675 -0.0856 -0.1389 -0.5768
10930TIP3    H154281   3.311   1.802  12.768 -2.0732 -1.0795 -0.0685
10930TIP3    H254282   3.383   1.749  12.646  0.6256  0.3286  0.8274
10931TIP3   OH254283   5.409   1.924  15.699  0.1106 -0.2703  0.4753
10931TIP3    H154284   5.398   1.835  15.665 -2.5692  0.2696 -0.3107
10931TIP3    H254285   5.380   1.919  15.790  1.3169 -0.4704  0.8557
10932TIP3   OH254286   1.832   6.321   2.794 -0.0910 -0.2239 -0.6531
10932TIP3    H154287   1.868   6.247   2.745 -0.6213 -0.0018 -1.3939
10932TIP3    H254288   1.741   6.298   2.809  0.0326 -0.2336  0.1443
10933TIP3   OH254289   5.803   2.613  15.525  0.7828 -0.1938 -0.0923
10933TIP3    H154290   5.897   2.630  15.531  1.1486 -1.7259 -1.0099
10933TIP3    H254291   5.793   2.521  15.552 -0.3993 -0.1760 -0.4194
10934TIP3   OH254292   1.428   5.154   3.911  0.2698 -0.2625  0.1985
10934TIP3    H154293   1.338   5.188   3.912  0.1640 -0.5453  0.3324
10934TIP3    H254294   1.418   5.060   3.897  0.3839 -0.8557  3.5141
10935TIP3   OH254295   1.804   6.465  12.835 -0.5790  0.0997 -0.4271
10935TIP3    H154296   1.828   6.476  12.743 -2.3211  1.1616 -0.7988
10935TIP3    H254297   1.751   6.542  12.856  0.5981  0.4010  1.7800
10936TIP3   OH254298   6.286   6.185  13.921 -0.4903 -0.7646 -0.0272
10936TIP3    H154299   6.279   6.121  13.992 -2.4454 -1.0885 -0.4609
10936TIP3    H254300   6.241   6.144  13.847 -1.7535  1.0663 -0.3344
10937TIP3   OH254301   6.537   2.714   5.365 -0.3365 -0.4158 -0.7701
10937TIP3    H154302   6.478   2.729   5.439  0.3942  0.2800 -0.3100
10937TIP3    H254303   6.619   2.683   5.405 -0.0511 -0.3869 -1.3158
10938TIP3   OH254304   3.975   3.463   3.732 -0.0386  0.9239  0.9544
10938TIP3    H154305   3.970   3.551   3.769  0.8920  0.3131  2.6804
10938TIP3    H254306   3.938   3.407   3.800 -1.3730  0.0293 -0.4409
10939TIP3   OH254307   6.036   1.441   3.491  0.4299 -0.1865  0.2803
10939TIP3    H154308   6.089   1.499   3.437  1.9857 -1.7582  0.0264
10939TIP3    H254309   5.955   1.430   3.441  0.0018  1.8577  0.4366
10940TIP3   OH254310   2.015   3.607  12.239  0.4507 -0.7007 -0.2046
10940TIP3    H154311   1.994   3.699  12.254 -0.1135 -0.5185 -1.9183
10940TIP3    H254312   1.963   3.560  12.305 -0.0728  0.1422  0.0013
10941TIP3   OH254313   3.901   6.797   4.220  0.0173 -0.2232  0.2564
10941TIP3    H154314   3.951   6.873   4.250  1.0798 -0.5377 -0.6821
10941TIP3    H254315   3.962   6.748   4.166 -0.8662 -1.4072  0.3078
10942TIP3   OH254316   5.196   6.085  15.267  0.3287  0.1100 -0.1162
10942TIP3    H154317   5.254   6.096  15.192 -2.9866 -0.3944 -2.9800
10942TIP3    H254318   5.160   6.173  15.283  0.3238  0.0317  0.3375
10943TIP3   OH254319   7.134   6.090  13.027  0.4443 -0.1524  0.0605
10943TIP3    H154320   7.077   6.087  13.104  2.3892  0.5858  1.6244
10943TIP3    H254321   7.121   6.006  12.984  0.3311 -1.2075  2.0390
10944TIP3   OH254322   2.695   4.706  11.745 -0.6146 -0.3235 -0.1676
10944TIP3    H154323   2.790   4.690  11.747 -0.0213  2.6454  0.8101
10944TIP3    H254324   2.674   4.714  11.652  0.1922 -0.6018 -0.3850
10945TIP3   OH254325   0.357   1.794   4.462  0.0681  0.4124  0.1750
10945TIP3    H154326   0.348   1.850   4.539 -0.1868 -1.1288  1.3384
10945TIP3    H254327   0.278   1.740   4.463  0.2951  0.0382 -0.9055
10946TIP3   OH254328   4.106   0.071   2.058 -0.6269  0.4373  0.4588
10946TIP3    H154329   4.041   0.128   2.018 -1.2136 -1.0929 -0.9046
10946TIP3    H254330   4.055  -0.004   2.089  0.2993 -0.0633  0.7865
10947TIP3   OH254331   1.308   0.434   1.288 -0.7667 -0.0094  0.3729
10947TIP3    H154332   1.275   0.367   1.228 -0.7158  0.3618 -0.0734
10947TIP3    H254333   1.336   0.385   1.365 -1.6475 -0.4079  0.4522
10948TIP3   OH254334   2.704   2.841  13.429  0.1656 -0.5770 -0.5086
10948TIP3    H154335   2.741   2.823  13.515 -0.8327 -0.7610 -0.0989
10948TIP3    H254336   2.765   2.802  13.368  1.4188  0.4238  0.0496
10949TIP3   OH254337   0.724   1.822  12.193 -0.4668  0.5896  0.1235
10949TIP3    H154338   0.711   1.728  12.205  1.9392  0.1760  0.0504
10949TIP3    H254339   0.745   1.830  12.100  1.8745  0.7782  0.6088
10950TIP3   OH254340   2.177   5.619   1.562 -0.0789 -0.3973 -0.5726
10950TIP3    H154341   2.178   5.587   1.652 -1.7519  1.3777  0.1640
10950TIP3    H254342   2.201   5.712   1.570  1.4895 -0.6022 -2.2063
10951TIP3   OH254343   4.275   2.022  15.689 -0.0710  0.2733  0.4344
10951TIP3    H154344   4.360   1.982  15.707  0.1451  0.7426  0.4843
10951TIP3    H254345   4.236   2.035  15.775 -0.2719 -0.1028  0.4016
10952TIP3   OH254346   0.263   2.839   4.475  0.4148  0.0499 -0.6386
10952TIP3    H154347   0.213   2.843   4.393  0.3235 -0.7247 -0.6229
10952TIP3    H254348   0.241   2.754   4.513  1.7761 -0.3351 -0.6466
10953TIP3   OH254349   4.919   3.728   3.049 -0.0110  0.0586  0.1332
10953TIP3    H154350   5.015   3.726   3.042  0.0391  2.3046 -0.7897
10953TIP3    H254351   4.894   3.809   3.003 -2.2396  0.1865  1.4509
10954TIP3   OH254352   2.808   6.835   4.280  0.2771  0.1012 -0.3452
10954TIP3    H154353   2.756   6.886   4.342  0.3623 -0.4172  0.1675
10954TIP3    H254354   2.779   6.745   4.293 -0.3951  0.0928 -1.7686
10955TIP3   OH254355   4.217   2.341   2.377 -0.0669  0.4422 -0.8101
10955TIP3    H154356   4.235   2.425   2.334 -1.1613  0.5473 -1.0874
10955TIP3    H254357   4.130   2.316   2.345 -0.1958 -0.2851  0.0823
10956TIP3   OH254358   4.442   4.208   2.838 -1.1578  0.0672 -0.4347
10956TIP3    H154359   4.404   4.183   2.922 -0.1381  0.2379  0.0936
10956TIP3    H254360   4.481   4.127   2.804  0.7045  0.5191  0.5039
10957TIP3   OH254361   6.134   1.679   4.171  0.2860  0.1534 -0.2515
10957TIP3    H154362   6.207   1.638   4.125 -0.4889 -0.2285 -1.1800
10957TIP3    H254363   6.170   1.760   4.207  1.4112 -0.5202  0.1727
10958TIP3   OH254364   1.214   1.140  15.155  0.3015 -0.1307  0.2780
10958TIP3    H154365   1.287   1.139  15.093  1.1253  1.2857  1.1558
10958TIP3    H254366   1.142   1.181  15.108  1.5658  3.0369  0.7965
10959TIP3   OH254367   7.038   4.168   3.768 -0.3447  0.1261 -0.1088
10959TIP3    H154368   7.108   4.182   3.831 -0.2741  0.3737 -0.2407
10959TIP3    H254369   7.050   4.237   3.703 -0.7818  0.2434 -0.0701
10960TIP3   OH254370   4.727   1.900  13.642  0.0697  0.0257  0.1868
10960TIP3    H154371   4.680   1.818  13.630  0.9749 -0.9172  2.6140
10960TIP3    H254372   4.661   1.968  13.624 -1.9511 -1.2400  2.2443
10961TIP3   OH254373   0.910   3.128  13.023 -0.6060 -0.2045  0.0467
10961TIP3    H154374   1.003   3.126  13.044 -0.9192 -1.1139  1.4906
10961TIP3    H254375   0.902   3.078  12.942  0.2644  0.6837 -0.5986
10962TIP3   OH254376   6.930   0.047   5.080  0.4583 -0.2069 -0.4088
10962TIP3    H154377   6.970   0.121   5.127  2.7317 -1.4534 -0.2454
10962TIP3    H254378   6.908  -0.015   5.150  0.6396 -0.6057 -0.7040
10963TIP3   OH254379   3.510   0.980  10.480  0.6810  0.0709  0.0863
10963TIP3    H154380   3.501   1.005  10.572  1.7730 -2.0542  0.8394
10963TIP3    H254381   3.421   0.955  10.453  0.2805  1.0817  0.4216
10964TIP3   OH254382   6.779   2.720  11.170 -0.1435 -0.1398 -0.2476
10964TIP3    H154383   6.814   2.806  11.193 -0.6070  0.0745 -0.3445
10964TIP3    H254384   6.712   2.737  11.104 -3.5010 -0.0725  2.8461
10965TIP3   OH254385   0.278   0.133  15.240 -0.0055 -0.3493 -0.2524
10965TIP3    H154386   0.358   0.180  15.262 -0.2588  0.1219 -0.3406
10965TIP3    H254387   0.253   0.167  15.154 -1.0604  0.5252  0.3774
10966TIP3   OH254388   1.955   4.164   1.594 -0.1270 -0.0490  0.5675
10966TIP3    H154389   2.042   4.161   1.554 -0.2939  0.4000  0.1686
10966TIP3    H254390   1.910   4.236   1.550  0.0602  1.2088  2.3018
10967TIP3   OH254391   6.969   2.880   4.953  1.2746  0.0099  0.1013
10967TIP3    H154392   6.879   2.850   4.967  1.2070  0.3390  0.3791
10967TIP3    H254393   7.018   2.840   5.025  1.1558  0.6829  0.5665
10968TIP3   OH254394   6.695   5.010   1.397  0.3871 -0.1612  0.0790
10968TIP3    H154395   6.745   4.971   1.325  2.1503  1.8749  0.1164
10968TIP3    H254396   6.672   5.097   1.365 -0.3344  0.1285  1.3290
10969TIP3   OH254397   6.555   6.035   1.731  0.4304  0.2397  0.3406
10969TIP3    H154398   6.583   5.946   1.710 -0.6233 -0.1935  0.7158
10969TIP3    H254399   6.461   6.028   1.747  0.0768  1.6508 -0.8990
10970TIP3   OH254400   2.916   0.954   5.736 -0.1655 -0.0316  0.0237
10970TIP3    H154401   2.842   1.015   5.730  0.2820  0.9600  3.0028
10970TIP3    H254402   2.983   0.992   5.679 -2.1554 -1.5769 -3.7324
10971TIP3   OH254403   2.143   5.869  14.579 -0.3675 -0.1699  0.7974
10971TIP3    H154404   2.189   5.952  14.585 -0.9717  0.3089 -0.6360
10971TIP3    H254405   2.050   5.893  14.571 -0.3423 -0.6637 -3.4294
10972TIP3   OH254406   1.052   3.477  14.354 -0.1492 -0.0953 -0.1998
10972TIP3    H154407   1.130   3.487  14.409 -0.6252 -1.1756  0.7281
10972TIP3    H254408   1.080   3.416  14.285  1.0420  2.7609 -2.4469
10973TIP3   OH254409   2.589   6.771   5.137  0.4284 -0.3911 -0.0391
10973TIP3    H154410   2.542   6.691   5.115  0.6843 -0.4567 -0.3434
10973TIP3    H254411   2.520   6.838   5.142  0.3263 -0.4434 -0.6865
10974TIP3   OH254412   2.128   1.700  15.367  0.0556  0.1462 -0.2019
10974TIP3    H154413   2.177   1.726  15.290  0.5349 -1.4402 -0.4831
10974TIP3    H254414   2.195   1.675  15.431 -0.3472  0.8483  0.5164
10975TIP3   OH254415   4.597   4.310   1.121  0.4848  0.5354 -0.3880
10975TIP3    H154416   4.671   4.254   1.095  0.7502  1.5700 -2.0210
10975TIP3    H254417   4.580   4.364   1.043 -0.9240  1.4713  0.5321
10976TIP3   OH254418   6.946   1.275   0.285  0.1016 -0.6134 -0.1219
10976TIP3    H154419   6.938   1.180   0.280  0.2780 -0.6810  0.7597
10976TIP3    H254420   7.031   1.289   0.327 -1.1393 -0.1293  2.3831
10977TIP3   OH254421   3.300   3.749  10.516 -0.8270 -0.2093 -0.4913
10977TIP3    H154422   3.371   3.760  10.453  0.4986 -0.2165  0.9298
10977TIP3    H254423   3.248   3.829  10.508  0.4921  0.7037 -0.1940
10978TIP3   OH254424   2.288   2.951   2.653  0.3646  0.3870  0.1032
10978TIP3    H154425   2.218   3.010   2.626 -0.0530 -0.3607 -0.4541
10978TIP3    H254426   2.298   2.890   2.581  2.5557  1.3078 -0.4738
10979TIP3   OH254427   1.067   0.407  12.450 -0.5939  0.1527  0.2298
10979TIP3    H154428   1.159   0.422  12.429 -0.2949 -0.4339  1.0830
10979TIP3    H254429   1.038   0.343  12.384 -0.4943  0.5857 -0.2449
10980TIP3   OH254430   1.023   2.464   0.450 -0.3198  0.3170 -0.7182
10980TIP3    H154431   0.991   2.554   0.454 -0.6718  0.1945 -0.7682
10980TIP3    H254432   0.993   2.431   0.366 -0.1504  0.1663 -0.7209
10981TIP3   OH254433   5.356   2.159   5.434  0.0886  0.3081  0.1232
10981TIP3    H154434   5.361   2.227   5.367 -0.2017 -2.0636 -2.4906
10981TIP3    H254435   5.424   2.096   5.409  0.3370 -0.4228  2.4299
10982TIP3   OH254436   5.091   4.445   0.014 -0.1594 -0.0946  0.0119
10982TIP3    H154437   5.017   4.456   0.074 -0.7512 -0.0946 -0.6928
10982TIP3    H254438   5.078   4.358  -0.024  1.4717 -1.0633  1.5352
10983TIP3   OH254439   5.958   3.463   2.729  0.0166 -0.0686 -0.1746
10983TIP3    H154440   5.914   3.435   2.810  1.6543 -1.5023  0.2835
10983TIP3    H254441   5.902   3.432   2.659 -0.7383 -0.0161  0.3937
10984TIP3   OH254442   2.789   5.366  10.284  0.4946  0.3832 -0.1285
10984TIP3    H154443   2.835   5.353  10.201 -0.9738  1.5069 -1.1828
10984TIP3    H254444   2.696   5.355  10.261  0.0623  0.7324  1.3716
10985TIP3   OH254445   4.365   4.553  13.591  0.2056 -0.1981 -0.3938
10985TIP3    H154446   4.358   4.520  13.681 -0.0626 -0.7078 -0.5984
10985TIP3    H254447   4.399   4.479  13.541 -0.1501 -0.0866 -0.8088
10986TIP3   OH254448   0.346   0.050  15.694 -0.1915 -0.0060 -0.2489
10986TIP3    H154449   0.343   0.143  15.671  0.8020 -0.2558 -1.5367
10986TIP3    H254450   0.376   0.007  15.614 -0.1310 -1.3809  0.4881
10987TIP3   OH254451   2.755   2.299   4.725 -0.0477  0.0251 -0.2224
10987TIP3    H154452   2.796   2.382   4.702  0.2009 -0.8994 -3.8479
10987TIP3    H254453   2.828   2.238   4.733 -0.3390 -0.2469  0.4428
10988TIP3   OH254454   4.930   0.555  11.395 -0.3112 -0.3276  0.0288
10988TIP3    H154455   4.922   0.623  11.462 -1.5298  0.7902 -1.1820
10988TIP3    H254456   4.958   0.477  11.443  0.1694  0.7613  1.6181
10989TIP3   OH254457   2.456   1.437   4.916  0.7614  0.1285 -0.2082
10989TIP3    H154458   2.527   1.493   4.945 -0.9026  1.3245  1.8661
10989TIP3    H254459   2.422   1.480   4.837  2.5512 -0.7324 -1.5289
10990TIP3   OH254460   2.864   5.831   1.686 -0.5525  0.5077 -0.4094
10990TIP3    H154461   2.944   5.778   1.686 -0.5442  0.4496 -2.3357
10990TIP3    H254462   2.829   5.821   1.598 -2.8188  0.3823  0.4420
10991TIP3   OH254463   1.341   1.940  10.763  0.1334 -0.7129  0.1808
10991TIP3    H154464   1.312   1.866  10.816 -2.2746 -0.1869 -0.2802
10991TIP3    H254465   1.268   2.002  10.766  1.2509  0.7518 -1.1020
10992TIP3   OH254466   4.083   1.562   4.505  0.8454 -0.6278  0.3496
10992TIP3    H154467   4.176   1.585   4.506  1.5585 -2.8087 -2.2266
10992TIP3    H254468   4.038   1.641   4.477  1.8858  0.4488  1.5957
10993TIP3   OH254469   3.426   2.746   1.876 -0.5245  0.1213 -0.0697
10993TIP3    H154470   3.506   2.743   1.824 -0.5590 -2.5016 -0.1128
10993TIP3    H254471   3.355   2.739   1.812 -0.7375  0.8636  0.0772
10994TIP3   OH254472   1.299   4.441  10.461  0.0720  0.0909 -0.0694
10994TIP3    H154473   1.372   4.502  10.447 -1.3730  1.7616 -0.6242
10994TIP3    H254474   1.246   4.483  10.529  1.1092 -2.5482  2.6333
10995TIP3   OH254475   5.501   2.243   5.669  0.1705 -0.4093 -0.0028
10995TIP3    H154476   5.451   2.217   5.592 -0.7838  2.2826 -0.4172
10995TIP3    H254477   5.434   2.255   5.737  0.9348 -2.1611  1.1162
10996TIP3   OH254478   2.989   1.040  10.657 -0.3467 -0.2699 -0.2410
10996TIP3    H154479   2.949   1.036  10.744 -0.6879  1.5170 -0.2931
10996TIP3    H254480   3.062   0.978  10.662 -1.4012 -1.4967  0.7421
10997TIP3   OH254481   1.081   4.491  10.660  0.0868  0.0638 -0.4290
10997TIP3    H154482   1.145   4.521  10.724  0.0448  0.9247 -0.7705
10997TIP3    H254483   1.015   4.445  10.711 -0.7722  2.0767  0.3939
10998TIP3   OH254484   5.226   6.561   1.393  0.7002 -0.3059  0.2405
10998TIP3    H154485   5.284   6.556   1.317  0.8692 -3.0316  0.4584
10998TIP3    H254486   5.281   6.594   1.464  0.9793  0.6412 -0.4037
10999TIP3   OH254487   2.956   1.372  13.901 -0.0295 -0.4343  0.0784
10999TIP3    H154488   3.032   1.427  13.881 -0.4394  0.4418  0.8441
10999TIP3    H254489   2.908   1.367  13.818  2.1134 -3.1337 -1.1670
11000TIP3   OH254490   6.325   5.481  11.743 -0.8973 -0.4093 -0.1653
11000TIP3    H154491   6.369   5.546  11.798  1.5769 -1.1099 -1.2266
11000TIP3    H254492   6.299   5.412  11.804 -1.1839  0.3425  0.5808
11001TIP3   OH254493   7.019   0.985   0.363 -0.4230 -0.2925 -0.0317
11001TIP3    H154494   7.083   0.926   0.403 -0.7808 -0.0841  0.8652
11001TIP3    H254495   6.934   0.954   0.394 -0.7324 -0.2364 -0.7876
11002TIP3   OH254496   3.134   0.309  12.052 -0.1105 -0.6982 -0.2357
11002TIP3    H154497   3.111   0.235  11.997  0.5187  0.6953 -2.5058
11002TIP3    H254498   3.053   0.358  12.062  0.1061 -0.0757 -1.3816
11003TIP3   OH254499   6.320   6.048   4.957  0.8288 -0.0933  0.8303
11003TIP3    H154500   6.292   5.960   4.982 -0.6654  0.2050  0.3221
11003TIP3    H254501   6.415   6.041   4.945  0.5268 -2.0469 -0.8408
11004TIP3   OH254502   5.383   3.627   1.081 -0.1973 -0.3066  0.2488
11004TIP3    H154503   5.365   3.589   1.166  3.0727 -0.2055  1.1189
11004TIP3    H254504   5.396   3.720   1.098 -0.0561 -0.1882 -0.4473
11005TIP3   OH254505   3.708   4.202  13.546 -0.2293 -0.1215 -0.1400
11005TIP3    H154506   3.711   4.296  13.526  0.7515  0.1419  1.0744
11005TIP3    H254507   3.785   4.187  13.602 -2.5622 -0.7490  3.2068
11006TIP3   OH254508   0.880   1.521   4.507  0.4960  0.7415  0.0166
11006TIP3    H154509   0.961   1.550   4.550  0.9229 -1.6753  1.0037
11006TIP3    H254510   0.867   1.585   4.436  1.3226  3.2197  1.9253
11007TIP3   OH254511   3.188   1.390   3.859  0.0431 -0.4881  0.1402
11007TIP3    H154512   3.184   1.295   3.849 -0.3824 -0.3908 -0.6231
11007TIP3    H254513   3.153   1.425   3.777 -3.2269  0.3176  1.6835
11008TIP3   OH254514   0.038   5.776   1.090  0.1700 -0.6523  0.1083
11008TIP3    H154515  -0.049   5.768   1.128  0.1557  0.5977  0.3661
11008TIP3    H254516   0.097   5.775   1.165  0.2116  0.7634  0.1216
11009TIP3   OH254517   5.188   2.905   2.864  0.2181 -0.0316  0.3041
11009TIP3    H154518   5.154   2.976   2.809 -1.0942 -0.2223  0.8456
11009TIP3    H254519   5.272   2.938   2.895  1.1586 -0.0421 -2.0215
11010TIP3   OH254520   3.429   6.558   2.654  0.0321  0.0496 -0.3255
11010TIP3    H154521   3.446   6.544   2.561  0.3793 -0.7499 -0.1586
11010TIP3    H254522   3.343   6.520   2.669 -0.7436  1.6184 -0.6225
11011TIP3   OH254523   5.535   6.059  14.554 -0.0607  0.0154 -0.8596
11011TIP3    H154524   5.481   6.040  14.631  0.7746 -1.9246 -0.6772
11011TIP3    H254525   5.625   6.061  14.588  0.2107  0.4863 -1.5772
11012TIP3   OH254526   0.045   5.152   0.807  0.5159  0.2409  0.4284
11012TIP3    H154527   0.070   5.187   0.721  0.8955  0.5902  0.6800
11012TIP3    H254528   0.084   5.065   0.810  0.0508  0.0100  0.0338
11013TIP3   OH254529   4.739   0.654  11.649  0.0468  0.3591 -0.0056
11013TIP3    H154530   4.789   0.574  11.667 -0.9646 -0.0559  1.0670
11013TIP3    H254531   4.669   0.625  11.592 -0.8702  0.2616  1.1297
11014TIP3   OH254532   4.614   5.739   5.219 -0.1230  1.0305 -0.6580
11014TIP3    H154533   4.597   5.796   5.144 -1.7734  1.7898  0.2308
11014TIP3    H254534   4.575   5.786   5.293  2.2624  0.7752  0.8673
11015TIP3   OH254535   4.361   0.549  10.092  0.3045 -0.0459 -0.1463
11015TIP3    H154536   4.343   0.459  10.063  0.8236 -0.8720  1.9185
11015TIP3    H254537   4.276   0.592  10.090 -0.3063 -1.1702  0.7046
11016TIP3   OH254538   2.609   4.855   4.849 -0.2929  0.1019 -0.5544
11016TIP3    H154539   2.678   4.817   4.793  0.8387  1.8568 -0.4251
11016TIP3    H254540   2.655   4.880   4.929 -1.3717  0.0801  0.0827
11017TIP3   OH254541   1.619   6.140  11.227 -0.0546 -0.0459  0.6280
11017TIP3    H154542   1.528   6.112  11.234 -0.1871  0.3088  0.3409
11017TIP3    H254543   1.630   6.203  11.298 -0.1809  0.2979  0.3467
11018TIP3   OH254544   4.005   0.585  11.307  0.0191 -0.2597 -0.1780
11018TIP3    H154545   4.014   0.542  11.392 -0.7057  1.5635  0.8781
11018TIP3    H254546   3.934   0.538  11.263 -0.9650  0.0205  1.0629
11019TIP3   OH254547   1.538   0.948   2.943 -0.2225 -1.1211 -0.8798
11019TIP3    H154548   1.520   0.872   3.000 -0.3868 -0.7637 -0.4498
11019TIP3    H254549   1.527   1.024   3.000  0.5181 -0.7928 -1.1637
11020TIP3   OH254550   0.216   6.887   5.487 -0.3992  0.0563  0.3818
11020TIP3    H154551   0.285   6.949   5.465 -1.2026  0.9803  0.3656
11020TIP3    H254552   0.259   6.820   5.540  0.4337  0.8072  0.6839
11021TIP3   OH254553   0.399   3.079  14.392  0.0085 -0.1518 -0.7446
11021TIP3    H154554   0.477   3.130  14.373 -0.5725  1.6247  1.2281
11021TIP3    H254555   0.422   3.027  14.469 -0.6744  0.2928 -0.2202
11022TIP3   OH254556   6.491   3.117  10.951 -0.2236  0.0007  0.0661
11022TIP3    H154557   6.417   3.070  10.990 -0.0473  0.0692  0.4951
11022TIP3    H254558   6.483   3.101  10.857  0.7971 -2.3438  0.3029
11023TIP3   OH254559   4.265   0.783   4.440  0.5250 -0.8014  0.1927
11023TIP3    H154560   4.297   0.824   4.520  0.0417  0.3249 -0.1713
11023TIP3    H254561   4.338   0.729   4.410  1.3064  0.0405  0.5248
11024TIP3   OH254562   5.160   2.470   1.413  0.0808  0.6672  0.5813
11024TIP3    H154563   5.160   2.390   1.361  0.0512 -0.0746  1.6859
11024TIP3    H254564   5.068   2.483   1.438 -0.0872  1.6453 -0.4529
11025TIP3   OH254565   4.654   5.628  14.233 -0.4562 -0.5045 -0.2229
11025TIP3    H154566   4.665   5.694  14.164 -1.4622  0.4242  0.4781
11025TIP3    H254567   4.708   5.659  14.305 -2.8352  0.9590  1.0469
11026TIP3   OH254568   1.613   0.186   5.989  0.4376 -0.4361  0.2490
11026TIP3    H154569   1.654   0.182   6.075  0.1708 -0.0362  0.3933
11026TIP3    H254570   1.594   0.095   5.967  0.8374 -0.5708  0.4501
11027TIP3   OH254571   6.886   5.666   6.297  0.3796  0.3489 -0.4008
11027TIP3    H154572   6.830   5.710   6.233 -0.9755 -1.2525 -0.3854
11027TIP3    H254573   6.972   5.660   6.254  0.0704  1.2242 -1.1724
11028TIP3   OH254574   2.934   5.323  10.757  0.4215  0.1655 -0.4126
11028TIP3    H154575   2.878   5.357  10.827  0.1610  1.6915 -1.3342
11028TIP3    H254576   2.881   5.331  10.677  1.1530 -0.4487 -0.9777
11029TIP3   OH254577   4.107   0.203   3.343 -0.0237 -0.4422 -0.3589
11029TIP3    H154578   4.116   0.239   3.431 -1.6323  0.0996 -0.3900
11029TIP3    H254579   4.133   0.111   3.352 -0.2886 -0.4221  0.6990
11030TIP3   OH254580   6.336   6.195   5.206  0.5416 -0.2370 -0.0272
11030TIP3    H154581   6.241   6.191   5.194 -0.1647  0.9611  3.7527
11030TIP3    H254582   6.357   6.287   5.195  1.5914 -0.6573 -2.0521
11031TIP3   OH254583   5.474   5.893   3.575 -0.2436 -0.4834  0.6233
11031TIP3    H154584   5.526   5.813   3.581 -1.2869 -1.2390 -0.0349
11031TIP3    H254585   5.413   5.877   3.503 -0.2374  1.0566  0.2458
11032TIP3   OH254586   3.895   4.685   0.874 -0.3132 -0.6565 -0.2047
11032TIP3    H154587   3.966   4.730   0.828  1.2353 -0.6146  2.0718
11032TIP3    H254588   3.886   4.601   0.829  1.6178 -0.9118 -0.1902
11033TIP3   OH254589   0.504   0.977   1.398 -0.5648  0.2600 -0.0063
11033TIP3    H154590   0.410   0.986   1.384 -0.5216 -2.0153 -2.5884
11033TIP3    H254591   0.529   0.900   1.348  3.0460  1.9141 -1.1160
11034TIP3   OH254592   4.229   5.266  15.011 -0.3904 -0.3807  0.4884
11034TIP3    H154593   4.300   5.288  14.951 -0.2060 -0.6692  0.5963
11034TIP3    H254594   4.273   5.232  15.089 -0.5431  1.8881  1.6234
11035TIP3   OH254595   2.640   4.007   1.782 -0.2644  0.0995 -0.2391
11035TIP3    H154596   2.637   4.087   1.834 -0.7729  0.7100 -1.1606
11035TIP3    H254597   2.692   3.946   1.833 -0.0487  0.9540  0.5819
11036TIP3   OH254598   1.404   5.761  12.900  0.3055 -0.3107 -0.1586
11036TIP3    H154599   1.459   5.710  12.841  1.3643  0.0202  0.5180
11036TIP3    H254600   1.453   5.842  12.915 -0.2664 -0.0931  0.6055
11037TIP3   OH254601   0.888   3.152  11.111  0.2660  0.0719 -0.2932
11037TIP3    H154602   0.918   3.243  11.118 -0.7695  0.3804  0.2783
11037TIP3    H254603   0.947   3.103  11.168 -0.1042  0.6225  0.5800
11038TIP3   OH254604   1.727   1.435   5.172  0.1059 -0.9833 -0.2128
11038TIP3    H154605   1.649   1.418   5.225  0.5863 -1.9188  0.2113
11038TIP3    H254606   1.746   1.528   5.187  0.1215 -1.1806  1.1324
11039TIP3   OH254607   2.678   2.532   3.202 -0.0911  0.0173 -0.1714
11039TIP3    H154608   2.707   2.562   3.288  0.0433  1.4994 -0.6931
11039TIP3    H254609   2.604   2.475   3.220 -1.9936  2.5976  0.8965
11040TIP3   OH254610   4.820   1.727   3.692 -0.0847 -0.3702  0.2065
11040TIP3    H154611   4.789   1.636   3.692 -0.2259 -0.3229  0.3715
11040TIP3    H254612   4.832   1.748   3.600 -2.7311  0.3332 -0.0594
11041TIP3   OH254613   6.218   7.104   0.847 -0.2652 -0.3461  0.5426
11041TIP3    H154614   6.146   7.142   0.797 -1.4025 -1.7466  1.0335
11041TIP3    H254615   6.296   7.153   0.819 -1.1020 -0.0243 -1.3760
11042TIP3   OH254616   6.095   5.635  13.913  0.2971 -0.1647  0.2884
11042TIP3    H154617   6.154   5.652  13.840  0.4142 -3.4114 -0.5132
11042TIP3    H254618   6.093   5.718  13.962  2.1177  1.3548 -2.0062
11043TIP3   OH254619   2.107   2.426  14.269 -0.0306 -0.6127 -0.1214
11043TIP3    H154620   2.189   2.399  14.311  0.8538 -0.4148 -1.6299
11043TIP3    H254621   2.099   2.368  14.194 -1.2182 -0.5238 -0.0774
11044TIP3   OH254622   0.940   1.327   5.001  0.4652 -0.4427  0.3362
11044TIP3    H154623   0.934   1.405   4.945  1.0730 -1.5638 -1.3547
11044TIP3    H254624   1.034   1.309   5.006  0.3135 -1.1553  0.5986
11045TIP3   OH254625   5.877   1.566  13.491 -0.4118  0.2687 -0.1045
11045TIP3    H154626   5.932   1.563  13.413  0.0036  0.1083  0.1948
11045TIP3    H254627   5.810   1.632  13.470  0.0198  0.6233 -0.3834
11046TIP3   OH254628   2.800   0.529   0.023 -0.5160  0.1100 -0.3429
11046TIP3    H154629   2.795   0.434   0.015 -0.4462 -0.1048  1.6310
11046TIP3    H254630   2.807   0.545   0.118 -1.3674  2.1086 -0.5605
11047TIP3   OH254631   2.951   3.090   3.131  0.0077 -0.0605  0.0971
11047TIP3    H154632   2.916   3.144   3.059  0.1777  1.4770  1.1066
11047TIP3    H254633   2.876   3.038   3.161  0.0607 -1.1190 -1.5007
11048TIP3   OH254634   5.680   5.512   1.349 -0.5361 -0.3151  0.0231
11048TIP3    H154635   5.610   5.464   1.394  1.1402 -2.7278  0.2405
11048TIP3    H254636   5.639   5.547   1.270 -1.9981 -1.6437  0.1584
11049TIP3   OH254637   0.383   3.641   2.892  0.5496 -0.0696 -0.1480
11049TIP3    H154638   0.321   3.581   2.851 -1.0260  0.6319  1.0873
11049TIP3    H254639   0.359   3.727   2.857  2.2739 -0.0039 -1.2998
11050TIP3   OH254640   0.595   6.920   0.832 -0.4509 -0.0777 -0.1588
11050TIP3    H154641   0.610   6.984   0.762 -0.3962 -1.0110 -1.0327
11050TIP3    H254642   0.500   6.924   0.848 -0.4957 -0.0002 -0.4345
11051TIP3   OH254643   2.831   1.587   5.255  0.2690 -0.0951 -0.0296
11051TIP3    H154644   2.758   1.534   5.223 -0.6282  0.6242  0.7838
11051TIP3    H254645   2.790   1.652   5.311  1.5623  0.2416  0.5418
11052TIP3   OH254646   6.188   4.548   5.381 -0.0821  0.1573 -0.5233
11052TIP3    H154647   6.247   4.542   5.456 -1.5902 -0.3662  0.6522
11052TIP3    H254648   6.195   4.639   5.353  1.2312  0.1194 -0.3873
11053TIP3   OH254649   2.191   5.615   3.355 -0.1676  0.1198 -0.2180
11053TIP3    H154650   2.264   5.557   3.335 -0.1280  0.1704 -0.2214
11053TIP3    H254651   2.113   5.565   3.331 -0.1093  0.2839 -0.7619
11054TIP3   OH254652   0.643   5.014   3.229 -0.1127 -0.2623 -0.3173
11054TIP3    H154653   0.640   4.918   3.234  0.1642 -0.2551  4.0905
11054TIP3    H254654   0.733   5.034   3.205  0.7573 -1.2220  1.9229
11055TIP3   OH254655   0.953   2.139  12.577  0.3138 -0.3850  0.2180
11055TIP3    H154656   1.018   2.193  12.532 -0.0548  0.3149  0.5057
11055TIP3    H254657   0.913   2.087  12.507 -0.8148  1.2596 -0.4439
11056TIP3   OH254658   5.811   3.754  13.308  0.5489 -0.1047  0.0573
11056TIP3    H154659   5.734   3.806  13.283  1.4738  1.0935 -0.4001
11056TIP3    H254660   5.841   3.715  13.226 -0.0673 -1.3133  0.3786
11057TIP3   OH254661   3.263   6.140   0.675 -0.4548 -0.1325  0.3000
11057TIP3    H154662   3.233   6.088   0.601 -1.4733 -0.0575  0.6516
11057TIP3    H254663   3.338   6.190   0.640  0.9560 -2.2393  0.1223
11058TIP3   OH254664   3.244   0.365   5.590 -0.1931  0.6863 -0.6370
11058TIP3    H154665   3.316   0.359   5.528  0.2975 -0.5260  0.0099
11058TIP3    H254666   3.275   0.427   5.656 -0.1712  0.9576 -0.9004
11059TIP3   OH254667   4.277   0.174   0.356  0.1754  0.1358 -0.1416
11059TIP3    H154668   4.222   0.219   0.420 -0.6838  1.8792 -1.9864
11059TIP3    H254669   4.220   0.106   0.319  0.4969 -0.5137  0.5389
11060TIP3   OH254670   4.303   1.790  11.236 -0.0689  0.2718 -0.1412
11060TIP3    H154671   4.294   1.822  11.325  0.0598 -0.4264  0.1283
11060TIP3    H254672   4.289   1.696  11.242  0.4601  0.1396 -0.7731
11061TIP3   OH254673   3.288   2.207   1.872 -0.2116 -0.1113  0.0062
11061TIP3    H154674   3.367   2.254   1.844  2.5749 -2.4956  3.0814
11061TIP3    H254675   3.284   2.130   1.815 -0.3010  0.0053 -0.1441
11062TIP3   OH254676   4.533   1.192   4.787  0.1805 -0.6686  0.0276
11062TIP3    H154677   4.480   1.189   4.707  1.5727 -0.7370 -0.9284
11062TIP3    H254678   4.596   1.121   4.777  0.8923 -0.1659  0.8130
11063TIP3   OH254679   6.221   5.083   2.259 -0.2251 -0.1453  0.4307
11063TIP3    H154680   6.235   5.122   2.345  0.5639  0.4966  0.0267
11063TIP3    H254681   6.244   5.153   2.198  0.7964 -1.1170 -0.3187
11064TIP3   OH254682   4.986   2.816   2.258 -0.0858 -0.0873  0.1865
11064TIP3    H154683   4.984   2.891   2.199  2.8230  0.8747  1.1260
11064TIP3    H254684   5.030   2.747   2.208 -1.3492 -0.6844 -0.1374
11065TIP3   OH254685   5.013   1.653   1.872 -0.5421  0.5986 -0.9137
11065TIP3    H154686   4.989   1.735   1.915  0.8001  1.5436 -1.8844
11065TIP3    H254687   4.943   1.592   1.897 -0.6901  1.5361  1.2201
11066TIP3   OH254688   3.072   0.781  12.059  0.1647  0.3347  0.0797
11066TIP3    H154689   3.078   0.872  12.089 -0.1934  0.9204 -1.5352
11066TIP3    H254690   3.038   0.733  12.135  0.4484  1.5250  0.9826
11067TIP3   OH254691   0.910   1.353  10.266 -0.4117 -0.0118  0.6361
11067TIP3    H154692   0.982   1.323  10.211 -1.2001 -0.3315 -0.2560
11067TIP3    H254693   0.870   1.273  10.300 -1.1804  0.0850  0.0048
11068TIP3   OH254694   2.481   3.011   1.123 -0.5222  0.1631  0.1044
11068TIP3    H154695   2.523   3.097   1.129 -0.2250 -0.0589  1.3945
11068TIP3    H254696   2.475   2.980   1.214  0.1998 -1.5786 -0.3943
11069TIP3   OH254697   4.269   2.943   0.483 -0.3120 -0.1632 -0.6551
11069TIP3    H154698   4.204   3.006   0.514 -1.5855  0.5502 -4.3009
11069TIP3    H254699   4.326   2.993   0.425  0.9427 -1.6715 -0.8111
11070TIP3   OH254700   6.571   3.563   3.621  0.0348  0.7469  0.1470
11070TIP3    H154701   6.572   3.468   3.618 -1.9964  0.6098  1.3328
11070TIP3    H254702   6.567   3.591   3.530 -0.0200 -0.3354 -0.1892
11071TIP3   OH254703   1.241   0.662   1.481  0.3792 -0.2416 -0.3475
11071TIP3    H154704   1.219   0.711   1.402 -1.5706  0.1409  0.3827
11071TIP3    H254705   1.266   0.575   1.449 -0.3295 -0.0808 -1.3777
11072TIP3   OH254706   0.497   3.316  15.315 -0.1424  0.3315 -0.7326
11072TIP3    H154707   0.583   3.322  15.357 -0.2973 -0.6538 -0.2620
11072TIP3    H254708   0.438   3.283  15.383 -1.5224  3.5064 -0.2388
11073TIP3   OH254709   5.668   6.252   2.232 -0.9046  0.7837  0.0705
11073TIP3    H154710   5.597   6.243   2.169 -0.5613 -1.9410 -0.0453
11073TIP3    H254711   5.746   6.265   2.178 -0.9037  0.6497  0.0391
11074TIP3   OH254712   5.961   6.415  12.965 -0.0663  0.4001 -0.2602
11074TIP3    H154713   5.960   6.331  12.919 -0.0826 -0.7151  1.6415
11074TIP3    H254714   6.002   6.476  12.904  0.4427 -1.1138 -1.5031
11075TIP3   OH254715   3.754   1.581  11.397  0.3611 -0.7373 -0.0155
11075TIP3    H154716   3.776   1.555  11.486  1.4714  0.0577 -0.0350
11075TIP3    H254717   3.823   1.644  11.372 -0.8451  0.3094 -0.8398
11076TIP3   OH254718   2.553   0.418  14.371 -0.2201  0.4780  0.6556
11076TIP3    H154719   2.595   0.504  14.363 -0.4965  0.6157  0.6523
11076TIP3    H254720   2.611   0.367  14.427  1.1301 -0.0872 -1.1678
11077TIP3   OH254721   2.154   5.249   0.129  0.0103  0.2575 -0.0166
11077TIP3    H154722   2.080   5.222   0.183 -1.2085  2.0089 -0.7191
11077TIP3    H254723   2.231   5.237   0.185 -0.9769 -0.0595  1.3038
11078TIP3   OH254724   3.831   4.532   2.933  0.1439 -0.1634 -0.4567
11078TIP3    H154725   3.748   4.531   2.885 -0.3569 -0.9501  0.3897
11078TIP3    H254726   3.805   4.526   3.025  1.0573  1.8248 -0.0078
11079TIP3   OH254727   4.614   1.070  14.674 -0.3171  0.7618 -0.0450
11079TIP3    H154728   4.599   1.001  14.739 -1.6417 -0.3137 -1.4407
11079TIP3    H254729   4.564   1.043  14.597 -1.4798  3.6455 -0.4165
11080TIP3   OH254730   3.160   3.021   3.006 -0.3821  0.2229 -0.1252
11080TIP3    H154731   3.149   2.929   3.032 -1.5488  0.6281  0.9254
11080TIP3    H254732   3.086   3.066   3.047 -0.8144  1.3650 -2.0292
11081TIP3   OH254733   0.552   5.523  11.174  0.3219  0.4172 -0.3592
11081TIP3    H154734   0.605   5.603  11.179  0.5241  0.2203  0.8480
11081TIP3    H254735   0.473   5.543  11.223  0.7150 -0.3679  0.6348
11082TIP3   OH254736   4.947   0.771  10.757 -0.1832  0.2188  0.5318
11082TIP3    H154737   4.916   0.715  10.828  0.3387 -0.2442  0.4003
11082TIP3    H254738   4.920   0.726  10.677 -1.2673  1.0158  0.4175
11083TIP3   OH254739   2.662   2.679  13.160 -0.0970 -0.3720  0.2702
11083TIP3    H154740   2.574   2.680  13.196 -1.1175 -0.8240 -2.0337
11083TIP3    H254741   2.650   2.692  13.066  2.2639 -0.9152 -0.1814
11084TIP3   OH254742   1.446   1.729  14.330  0.4914 -0.1123  0.2441
11084TIP3    H154743   1.460   1.710  14.237  0.7217 -1.1151  0.4622
11084TIP3    H254744   1.494   1.810  14.346  0.3355  0.1397 -0.5364
11085TIP3   OH254745   2.421   2.229   5.728 -0.0714  0.5918 -0.2041
11085TIP3    H154746   2.447   2.195   5.814 -1.1414 -0.4892 -0.2801
11085TIP3    H254747   2.494   2.207   5.670  0.0021 -0.0281  0.1163
11086TIP3   OH254748   3.202   2.666   1.730 -0.8112 -0.2309  0.2962
11086TIP3    H154749   3.274   2.618   1.689  0.4066  1.9458 -0.2915
11086TIP3    H254750   3.124   2.637   1.682 -0.0362 -1.0661 -0.5122
11087TIP3   OH254751   6.434   4.872  10.583 -0.4582 -0.1961 -0.5327
11087TIP3    H154752   6.398   4.810  10.519 -0.4831  0.6922 -1.4058
11087TIP3    H254753   6.374   4.868  10.657 -1.7781  0.4551 -1.5140
11088TIP3   OH254754   3.305   5.019   1.252 -0.1856 -0.0070 -0.2242
11088TIP3    H154755   3.259   5.070   1.186  0.5547  0.7630 -0.1620
11088TIP3    H254756   3.318   4.934   1.212 -1.4587 -0.1722 -0.3236
11089TIP3   OH254757   2.410   1.124  12.616  0.7470 -0.8117  0.5960
11089TIP3    H154758   2.340   1.084  12.564  0.9092 -1.1983  0.6720
11089TIP3    H254759   2.490   1.103  12.569  0.8605 -0.8217  0.7922
11090TIP3   OH254760   2.067   6.821  12.050  0.2533 -0.1208 -0.3466
11090TIP3    H154761   2.045   6.734  12.018 -2.7804  0.2224  0.5452
11090TIP3    H254762   2.038   6.880  11.980 -0.5466  0.2959  0.3228
11091TIP3   OH254763   2.414   3.302   5.166 -0.2013  0.3605 -0.1725
11091TIP3    H154764   2.374   3.222   5.132  1.7628 -0.8148  0.1467
11091TIP3    H254765   2.451   3.277   5.251 -0.8776  2.0295  0.6734
11092TIP3   OH254766   3.642   3.896   0.214 -0.0050  0.2432  0.3497
11092TIP3    H154767   3.676   3.983   0.232 -0.5232  0.4200  0.4829
11092TIP3    H254768   3.619   3.897   0.121 -1.8119  0.8835  0.7667
11093TIP3   OH254769   2.802   4.616  14.681  0.9614  0.1402 -0.1809
11093TIP3    H154770   2.793   4.658  14.595  2.8199 -2.5091 -1.8276
11093TIP3    H254771   2.836   4.686  14.738  0.9177  1.6529 -1.9050
11094TIP3   OH254772   6.560   4.246  13.180 -0.2098  0.2309 -0.5643
11094TIP3    H154773   6.650   4.241  13.211 -0.8251 -1.4075  1.1126
11094TIP3    H254774   6.514   4.296  13.248 -0.8119 -0.0225 -0.7780
11095TIP3   OH254775   4.244   1.379  10.481  0.5645  0.1279 -0.0011
11095TIP3    H154776   4.197   1.316  10.535  0.8163  1.4708  1.9079
11095TIP3    H254777   4.181   1.405  10.414 -1.4865  1.7094  2.3355
11096TIP3   OH254778   1.344   5.665   2.446 -0.3384  0.6837 -0.7751
11096TIP3    H154779   1.376   5.743   2.401  1.6256  2.1927  2.8400
11096TIP3    H254780   1.314   5.697   2.531 -1.7028 -2.2497 -0.0244
11097TIP3   OH254781   6.725   3.392  15.080  1.0458 -0.2425  0.1823
11097TIP3    H154782   6.740   3.478  15.040 -1.5876  0.7114  1.0557
11097TIP3    H254783   6.632   3.390  15.098  1.4881 -2.1447  2.8349
11098TIP3   OH254784   2.997   4.559   1.921 -0.2365  0.0018  0.3163
11098TIP3    H154785   3.060   4.631   1.914  1.6821 -1.4735  1.2351
11098TIP3    H254786   2.971   4.541   1.831  0.9791  0.4371 -0.1463
11099TIP3   OH254787   7.138   4.912   3.553 -0.4267  0.5290 -0.3355
11099TIP3    H154788   7.206   4.845   3.565 -0.2606  0.9239  1.1813
11099TIP3    H254789   7.187   4.990   3.526 -0.3838  0.5485 -0.2055
11100TIP3   OH254790   3.620   0.486  12.316 -0.1836  0.5139 -0.3490
11100TIP3    H154791   3.539   0.511  12.271  0.2720  0.1888 -1.3782
11100TIP3    H254792   3.617   0.390  12.321 -0.3997  0.5593  0.6670
11101TIP3   OH254793   3.839   0.387  12.586 -0.0706  0.3056  0.3819
11101TIP3    H154794   3.749   0.407  12.611 -0.0958  1.1796 -0.3337
11101TIP3    H254795   3.832   0.344  12.501  0.2267  1.4907 -0.2726
11102TIP3   OH254796   4.625   5.174  10.947  0.2155  0.2957 -0.3063
11102TIP3    H154797   4.537   5.192  10.981  1.1906 -0.6692  3.0337
11102TIP3    H254798   4.616   5.088  10.905 -0.1889 -0.4524  1.2376
11103TIP3   OH254799   0.097   0.033   1.812  0.5916 -0.7280  0.0953
11103TIP3    H154800   0.181   0.005   1.774  1.2223 -0.1259  0.9819
11103TIP3    H254801   0.118   0.053   1.903 -0.1450  1.0696 -0.0872
11104TIP3   OH254802   1.657   0.058   4.324  0.2285  0.3180  0.1559
11104TIP3    H154803   1.660  -0.037   4.325 -0.7091  0.2867  1.0098
11104TIP3    H254804   1.704   0.085   4.403 -1.6121  0.4673  1.2447
11105TIP3   OH254805   6.296   0.888   1.348  0.0604 -0.6454  0.1061
11105TIP3    H154806   6.324   0.953   1.412 -0.2426 -0.1001 -0.3033
11105TIP3    H254807   6.287   0.807   1.398  0.4053 -0.3670  0.6298
11106TIP3   OH254808   6.152   0.035  11.704  0.7057  0.4256 -0.2986
11106TIP3    H154809   6.145   0.120  11.746  0.8351  1.0601 -1.5183
11106TIP3    H254810   6.245   0.026  11.684  0.4349  0.8767 -1.8906
11107TIP3   OH254811   6.572   3.663  14.953 -0.4872  0.2853 -0.5531
11107TIP3    H154812   6.565   3.637  14.861  2.5700 -2.4314 -0.1745
11107TIP3    H254813   6.657   3.706  14.960 -0.1326 -0.6018  1.1877
11108TIP3   OH254814   3.619   3.895  12.223  0.2113 -0.6486  0.4526
11108TIP3    H154815   3.682   3.836  12.264  0.2494  0.8255  2.6429
11108TIP3    H254816   3.534   3.851  12.234  0.4921 -1.3269  0.0087
11109TIP3   OH254817   0.558   5.256  10.781  0.0442 -0.2544 -0.3355
11109TIP3    H154818   0.490   5.193  10.802 -1.1759  1.0142 -0.3581
11109TIP3    H254819   0.623   5.245  10.851 -0.3389 -1.2339 -0.1137
11110TIP3   OH254820   5.016   7.125   0.944  0.4807 -0.0311 -0.0420
11110TIP3    H154821   4.974   7.108   1.028  0.5296  2.1589  0.4925
11110TIP3    H254822   4.945   7.122   0.880  0.2852 -0.7968  0.2140
11111TIP3   OH254823   2.097   0.996  10.503  0.2501 -0.7919 -0.2260
11111TIP3    H154824   2.067   1.082  10.476 -0.1819 -0.5480  0.9768
11111TIP3    H254825   2.041   0.935  10.455 -1.8599 -0.3554  1.4797
11112TIP3   OH254826   5.616   3.270   0.841 -0.1140 -0.2998 -0.2260
11112TIP3    H154827   5.573   3.185   0.834 -0.8423  0.0710 -0.3312
11112TIP3    H254828   5.552   3.333   0.806 -0.2436  0.4947  1.3532
11113TIP3   OH254829   2.448   4.818   0.386 -0.0562  0.2529 -0.5195
11113TIP3    H154830   2.459   4.856   0.299 -0.1371  0.7084 -0.3348
11113TIP3    H254831   2.535   4.822   0.426 -0.2237  0.9896 -0.2069
11114TIP3   OH254832   0.491   2.982  10.934  0.5064  0.5816 -0.3348
11114TIP3    H154833   0.580   3.009  10.913  1.2550 -0.1228  1.6755
11114TIP3    H254834   0.492   2.967  11.028 -1.8245  0.7907 -0.2072
11115TIP3   OH254835   0.195   5.978  15.234  0.0004  0.3306  0.1330
11115TIP3    H154836   0.166   6.024  15.313  0.3355 -1.7708  1.5503
11115TIP3    H254837   0.291   5.987  15.235  0.2224 -1.6052  1.2918
11116TIP3   OH254838   2.904   2.372   4.384  0.3537  0.0726 -0.2546
11116TIP3    H154839   2.936   2.416   4.463 -0.5127 -0.2170  0.2682
11116TIP3    H254840   2.982   2.361   4.330  0.8121  1.0657  0.1751
11117TIP3   OH254841   6.404   3.035   3.497 -0.5399  0.1808  0.1817
11117TIP3    H154842   6.394   3.109   3.436  0.3758  0.1291 -0.0353
11117TIP3    H254843   6.326   3.040   3.553 -0.5255  1.2693  0.1272
11118TIP3   OH254844   6.301   1.550  12.156 -0.3863 -0.1166  0.8261
11118TIP3    H154845   6.311   1.621  12.220 -2.4714 -0.1201  1.2197
11118TIP3    H254846   6.386   1.546  12.112  0.0376  2.1208  1.3130
11119TIP3   OH254847   3.183   6.677   1.697 -0.2606  0.4641 -0.1292
11119TIP3    H154848   3.229   6.604   1.656 -0.3612 -0.1876  0.8683
11119TIP3    H254849   3.174   6.743   1.628 -0.5734 -0.6491 -1.1761
11120TIP3   OH254850   1.403   4.378  15.465 -0.1847 -0.3372  0.4665
11120TIP3    H154851   1.449   4.459  15.444 -2.6477  0.8299 -0.9678
11120TIP3    H254852   1.440   4.313  15.405  0.8062  0.0892  0.6028
11121TIP3   OH254853   3.332   3.757   3.671  0.0744 -0.7327 -0.1076
11121TIP3    H154854   3.267   3.687   3.678  0.0398 -0.5671  1.6824
11121TIP3    H254855   3.409   3.722   3.717  0.0882  0.3429  0.7252
11122TIP3   OH254856   5.606   5.470   4.338 -0.4501 -0.6532 -0.1945
11122TIP3    H154857   5.568   5.549   4.376 -0.9866 -0.9884 -0.0192
11122TIP3    H254858   5.546   5.399   4.364  0.0201 -1.1169 -0.3483
11123TIP3   OH254859   3.025   4.339  11.942 -0.4550  0.6932 -0.4972
11123TIP3    H154860   2.958   4.304  12.001  0.5874  0.8440  0.8114
11123TIP3    H254861   3.045   4.426  11.976  0.2397  0.7408 -0.9999
11124TIP3   OH254862   0.130   1.357   0.930  0.0304  0.2338 -0.4794
11124TIP3    H154863   0.186   1.432   0.909 -0.4508 -0.0292 -3.1221
11124TIP3    H254864   0.111   1.366   1.023  2.2949  1.7829 -0.0770
11125TIP3   OH254865   2.284   5.213  15.510  0.1934 -0.2440 -0.6436
11125TIP3    H154866   2.333   5.143  15.467 -0.8071 -1.4977  0.1519
11125TIP3    H254867   2.313   5.293  15.468  0.5726 -1.2457 -2.3660
11126TIP3   OH254868   4.589   4.209  14.634  0.2218 -0.0833  0.2916
11126TIP3    H154869   4.544   4.246  14.559 -1.6949 -0.8897  0.9736
11126TIP3    H254870   4.519   4.190  14.697  1.6783 -0.0752  2.0094
11127TIP3   OH254871   6.595   0.633  15.049 -0.0778 -0.3345  0.7777
11127TIP3    H154872   6.576   0.722  15.020 -0.5162 -0.1866  1.4927
11127TIP3    H254873   6.683   0.615  15.016 -0.7755 -0.4289 -1.1886
11128TIP3   OH254874   0.370   6.732   2.422  0.7866 -0.3020  0.1009
11128TIP3    H154875   0.339   6.643   2.412 -0.6832 -0.2493  3.1762
11128TIP3    H254876   0.299   6.787   2.388  0.8330 -0.2578  0.0731
11129TIP3   OH254877   3.884   0.941   3.433  0.4211  0.3334  0.7021
11129TIP3    H154878   3.860   0.891   3.511 -0.5697 -1.2191 -0.5383
11129TIP3    H254879   3.843   0.894   3.360  0.9302  1.9802 -0.7286
11130TIP3   OH254880   3.994   1.847  11.754  0.8969 -0.3294 -0.5056
11130TIP3    H154881   3.995   1.938  11.725  1.9490 -0.1306  0.0692
11130TIP3    H254882   4.013   1.797  11.675 -1.0077 -0.1788 -1.1062
11131TIP3   OH254883   5.284   0.771   0.716 -0.1606 -0.5446  0.3526
11131TIP3    H154884   5.313   0.825   0.789  2.0404  2.3519 -2.4028
11131TIP3    H254885   5.341   0.694   0.719 -0.1647 -0.5160  1.6853
11132TIP3   OH254886   2.459   2.715   9.802  0.2454  0.6748  0.4555
11132TIP3    H154887   2.416   2.652   9.859  2.6099 -0.0162  1.6031
11132TIP3    H254888   2.477   2.791   9.858 -0.2533  1.3299 -0.2424
11133TIP3   OH254889   3.501   2.122   3.055  0.1350 -0.1344 -0.3332
11133TIP3    H154890   3.529   2.107   3.145 -1.4291 -1.2579  0.0166
11133TIP3    H254891   3.582   2.118   3.003  0.9707 -0.1152  0.9422
11134TIP3   OH254892   5.581   1.739   3.529  0.0364  0.0564 -0.0101
11134TIP3    H154893   5.676   1.743   3.519 -0.0882  0.2659 -1.2131
11134TIP3    H254894   5.556   1.655   3.490 -0.3221  0.2057 -0.1099
11135TIP3   OH254895   2.211   0.888   0.527 -0.2110 -0.1302  0.9296
11135TIP3    H154896   2.156   0.863   0.453  0.2409 -1.4777  1.0271
11135TIP3    H254897   2.154   0.941   0.582 -0.0275  2.5921 -1.2727
11136TIP3   OH254898   2.205   6.051   0.503  0.2602 -0.5297  0.4721
11136TIP3    H154899   2.148   6.023   0.432  0.4099 -1.3147  0.6549
11136TIP3    H254900   2.285   5.998   0.493  1.6961  1.6945 -0.7833
11137TIP3   OH254901   4.611   6.603   1.795 -0.7770 -0.3555 -0.3075
11137TIP3    H154902   4.576   6.682   1.836  0.0201 -0.6494  0.9781
11137TIP3    H254903   4.551   6.533   1.820 -0.4854 -0.4737  0.0608
11138TIP3   OH254904   2.459   5.575   4.331  0.3474 -0.4904  0.6847
11138TIP3    H154905   2.554   5.570   4.326  0.2730 -1.1201 -0.4200
11138TIP3    H254906   2.436   5.653   4.280  0.2867 -0.0967  1.3019
11139TIP3   OH254907   5.771   3.016  13.984  0.4273 -0.2219  0.2335
11139TIP3    H154908   5.802   3.085  14.042  0.9713 -1.4870  1.5196
11139TIP3    H254909   5.768   3.056  13.897 -4.1368  3.0134  1.4976
11140TIP3   OH254910   1.958   3.746   2.069  0.8921  0.1230  0.0070
11140TIP3    H154911   1.879   3.733   2.016  0.7605  0.3639  0.1387
11140TIP3    H254912   2.030   3.719   2.012  1.0357  3.0287 -1.3910
11141TIP3   OH254913   3.312   1.668  12.147  0.2565 -0.4915  0.5564
11141TIP3    H154914   3.306   1.598  12.212 -1.9165 -1.7287 -0.8740
11141TIP3    H254915   3.302   1.624  12.063 -2.1386  1.5675 -0.3668
11142TIP3   OH254916   3.272   0.529  10.715  0.2438  0.2551  0.0588
11142TIP3    H154917   3.247   0.620  10.730  0.0811  0.1427  0.5044
11142TIP3    H254918   3.260   0.487  10.801  0.4076 -0.1621 -0.1209
11143TIP3   OH254919   3.481   6.729   3.381  0.0345 -0.8007  0.4202
11143TIP3    H154920   3.469   6.812   3.427 -1.0555 -0.7355  0.0636
11143TIP3    H254921   3.424   6.667   3.427 -1.0327 -0.7450 -0.7525
11144TIP3   OH254922   5.198   3.090  10.124 -0.0313  0.1831  0.1568
11144TIP3    H154923   5.186   3.000  10.093 -0.2570  0.0684  0.5744
11144TIP3    H254924   5.125   3.138  10.085 -0.8569 -0.1494  1.2323
11145TIP3   OH254925   6.889   3.268  14.848  0.2770  0.1041  0.4206
11145TIP3    H154926   6.856   3.330  14.783  3.2474  2.9432  1.3385
11145TIP3    H254927   6.849   3.296  14.930  2.4046  1.6410  1.0177
11146TIP3   OH254928   3.852   5.900   0.765 -0.3266  0.5096 -0.1073
11146TIP3    H154929   3.815   5.911   0.852  1.1269 -0.2554  0.6466
11146TIP3    H254930   3.897   5.983   0.748  1.2546 -0.0870  0.8619
11147TIP3   OH254931   1.117   0.155   2.634 -0.2245 -0.0948 -0.0135
11147TIP3    H154932   1.086   0.065   2.627 -0.2128 -0.0013 -1.4681
11147TIP3    H254933   1.122   0.186   2.544  2.0081  0.6190  0.2948
11148TIP3   OH254934   7.064   1.913  11.391  0.0396 -0.0056 -0.5313
11148TIP3    H154935   6.981   1.958  11.409 -0.7193 -1.2869 -0.6680
11148TIP3    H254936   7.039   1.821  11.381  1.7016 -0.7056  1.1491
11149TIP3   OH254937   5.073   6.911  13.252  0.0128 -0.7451  0.0244
11149TIP3    H154938   5.128   6.989  13.253  0.5107 -1.0900  0.2347
11149TIP3    H254939   5.116   6.851  13.312 -0.4220 -1.1439 -0.0571
11150TIP3   OH254940   3.085   4.154   3.010 -0.2745 -1.4338  0.2438
11150TIP3    H154941   3.163   4.142   3.065  0.9944 -0.8353 -1.3091
11150TIP3    H254942   3.099   4.095   2.936 -1.7033 -1.8834  0.3077
11151TIP3   OH254943   1.150   1.537   1.357  0.2203 -0.3280 -0.0346
11151TIP3    H154944   1.163   1.583   1.274 -1.6262  0.3181 -0.0114
11151TIP3    H254945   1.085   1.470   1.338 -0.6619  0.1983  0.9749
11152TIP3   OH254946   5.245   2.317  13.523 -0.2995 -0.1623  0.1990
11152TIP3    H154947   5.169   2.296  13.577 -0.6562 -1.9269 -0.9021
11152TIP3    H254948   5.306   2.360  13.583 -1.4884 -0.2190  1.5019
11153TIP3   OH254949   4.574   3.840   1.177 -0.0024 -0.1209  0.0112
11153TIP3    H154950   4.527   3.899   1.235  1.5756  1.2869 -0.0545
11153TIP3    H254951   4.532   3.851   1.092 -0.3502  0.1485  0.2180
11154TIP3   OH254952   2.231   5.476   1.844 -0.2596 -0.2630 -0.0914
11154TIP3    H154953   2.242   5.413   1.916 -2.3148 -1.4443 -0.7502
11154TIP3    H254954   2.257   5.429   1.766  0.8581  0.6508 -0.3012
11155TIP3   OH254955   0.018   5.249  12.384 -0.1871 -0.4672 -0.5467
11155TIP3    H154956   0.041   5.315  12.450 -2.4869 -0.0510 -0.0855
11155TIP3    H254957   0.093   5.250  12.323  0.9808  0.7398  0.8170
11156TIP3   OH254958   4.705   0.122   5.701  0.3726  0.4442  0.3954
11156TIP3    H154959   4.712   0.212   5.734  1.4542  0.8932 -0.9515
11156TIP3    H254960   4.796   0.095   5.687  0.0029  0.2121 -1.9491
11157TIP3   OH254961   0.353   5.658  14.886  0.8745  0.6026 -0.2379
11157TIP3    H154962   0.357   5.592  14.955  0.9687  0.0184 -0.7890
11157TIP3    H254963   0.419   5.722  14.910  1.1993  0.1843 -0.0047
11158TIP3   OH254964   7.067   4.685  12.362  0.0003  0.4989 -0.0082
11158TIP3    H154965   7.109   4.741  12.428  2.9608 -2.0459  0.4839
11158TIP3    H254966   7.117   4.701  12.283 -1.7042  1.3774 -0.9735
11159TIP3   OH254967   4.233   3.676  13.479  0.1377  0.5519  0.1030
11159TIP3    H154968   4.177   3.735  13.529 -1.0113  0.4704 -1.0375
11159TIP3    H254969   4.265   3.729  13.407 -0.1269  0.0543 -0.3890
11160TIP3   OH254970   2.152   3.276  15.276  0.2389 -0.1255 -0.1400
11160TIP3    H154971   2.110   3.193  15.299  3.3557 -1.2657  2.0689
11160TIP3    H254972   2.145   3.329  15.355 -0.0875  1.0267 -0.9241
11161TIP3   OH254973   5.916   3.854  15.755  0.3683  0.2633  0.6677
11161TIP3    H154974   6.004   3.853  15.792 -0.0945  0.2065  1.8152
11161TIP3    H254975   5.871   3.925  15.801 -0.5579 -0.5429  1.0472
11162TIP3   OH254976   5.379   2.222  14.600  0.6151 -0.5903 -0.0799
11162TIP3    H154977   5.438   2.212  14.525  0.7620 -1.1543  0.1107
11162TIP3    H254978   5.372   2.317  14.612  2.1046 -0.5067  0.3782
11163TIP3   OH254979   3.572   3.821   3.064  0.7070  0.3244 -0.7406
11163TIP3    H154980   3.569   3.727   3.079  0.9335  0.1287 -1.8072
11163TIP3    H254981   3.649   3.835   3.009  1.0032  1.2106 -0.1331
11164TIP3   OH254982   0.408   0.606   2.707  0.1815 -0.3978  0.1329
11164TIP3    H154983   0.455   0.658   2.642 -2.2303 -2.7679 -3.9584
11164TIP3    H254984   0.318   0.639   2.704 -0.8039 -2.8642 -0.6230
11165TIP3   OH254985   4.000   1.556   2.865 -0.8092  0.3927  0.5144
11165TIP3    H154986   3.923   1.589   2.819 -0.8226  0.8859  0.8825
11165TIP3    H254987   4.071   1.564   2.802 -0.8366  1.0176  0.5583
11166TIP3   OH254988   0.982   0.039  13.675 -0.0139  0.0974  0.1749
11166TIP3    H154989   0.904   0.068  13.721  0.0818 -0.9943  1.0686
11166TIP3    H254990   1.035  -0.005  13.742  0.2790 -1.2450 -0.8790
11167TIP3   OH254991   2.498   4.809  15.479 -0.0318  0.3415 -0.9174
11167TIP3    H154992   2.562   4.880  15.477  1.0232 -0.5616 -0.4829
11167TIP3    H254993   2.413   4.853  15.483  0.5829  1.5699 -0.9439
11168TIP3   OH254994   1.859   5.536   0.716  0.3395  0.2353  0.0687
11168TIP3    H154995   1.903   5.608   0.762 -0.7793  0.3980  0.9254
11168TIP3    H254996   1.887   5.546   0.625 -0.9526  2.7013 -0.1519
11169TIP3   OH254997   5.563   2.608  14.812  0.0888 -0.2584 -0.2763
11169TIP3    H154998   5.615   2.545  14.762  1.2301 -0.9810  1.6642
11169TIP3    H254999   5.627   2.673  14.842 -0.7550  0.7753 -0.6698
11170TIP3   OH255000   6.763   3.190  11.575 -0.1816 -1.0942  0.0133
11170TIP3    H155001   6.694   3.201  11.509  1.6025 -0.4987 -1.8894
11170TIP3    H255002   6.790   3.280  11.596  0.3572 -1.3253  0.3234
11171TIP3   OH255003   7.115   1.977  13.327  0.1358  0.3407  0.1347
11171TIP3    H155004   7.194   1.946  13.282 -0.1691  0.0076 -0.1853
11171TIP3    H255005   7.143   2.055  13.374  0.3362  1.0837 -1.1495
11172TIP3   OH255006   0.627   6.777  12.752 -0.1713 -0.2548 -0.1760
11172TIP3    H155007   0.652   6.854  12.804  0.9044  0.2120 -1.3006
11172TIP3    H255008   0.687   6.780  12.676  1.5980 -3.5491  0.9014
11173TIP3   OH255009   5.445   4.150  11.360 -0.2272 -0.1364 -0.2502
11173TIP3    H155010   5.362   4.172  11.402  1.1483  0.9817  2.1024
11173TIP3    H255011   5.420   4.113  11.275 -3.1256 -0.7172  0.7392
11174TIP3   OH255012   3.573   1.925  13.405  0.0292  0.6348  0.0968
11174TIP3    H155013   3.650   1.872  13.425 -0.2961 -0.3728 -1.1798
11174TIP3    H255014   3.516   1.914  13.481  0.4009 -0.0284  0.2892
11175TIP3   OH255015   4.179   2.765  15.337 -0.6297 -0.3030 -0.0098
11175TIP3    H155016   4.214   2.690  15.289  2.3582  1.0818 -0.1822
11175TIP3    H255017   4.232   2.770  15.416 -1.1842  1.2626  0.2996
11176TIP3   OH255018   0.087   0.130  11.759 -0.4645  0.3356 -0.3892
11176TIP3    H155019   0.020   0.062  11.760 -0.1280 -0.0086 -0.7859
11176TIP3    H255020   0.087   0.166  11.848  0.4195 -1.2316  0.2893
11177TIP3   OH255021   4.589   5.763   3.388  0.8419 -0.1555 -0.1386
11177TIP3    H155022   4.494   5.772   3.392  0.7506  0.1367 -1.8656
11177TIP3    H255023   4.618   5.769   3.479 -0.8885 -1.6682  0.5761
11178TIP3   OH255024   2.229   6.206  11.945  0.2664  0.1292  0.0794
11178TIP3    H155025   2.217   6.226  12.038  1.1792 -0.6986  0.3917
11178TIP3    H255026   2.143   6.220  11.907 -0.0121  0.9583  0.9520
11179TIP3   OH255027   0.967   3.783   1.382 -0.3814  0.0581 -0.7163
11179TIP3    H155028   0.993   3.822   1.466  0.4980  0.5410 -1.2023
11179TIP3    H255029   0.912   3.851   1.341 -3.6055 -1.3852  0.8099
11180TIP3   OH255030   0.394   7.036  13.641 -0.9375 -0.0067 -0.4261
11180TIP3    H155031   0.435   7.085  13.712 -1.7574  1.2705 -0.7882
11180TIP3    H255032   0.334   6.975  13.685  1.5313 -2.1929  0.1216
11181TIP3   OH255033   1.326   1.739   2.219 -0.4255  0.2011  0.0904
11181TIP3    H155034   1.376   1.741   2.301 -0.6142  1.8070  0.1973
11181TIP3    H255035   1.236   1.721   2.246 -0.5712  1.1869  0.3092
11182TIP3   OH255036   1.160   3.529  12.563 -0.5636 -0.0811  0.2133
11182TIP3    H155037   1.065   3.533  12.566 -0.5955 -0.9415  0.4728
11182TIP3    H255038   1.185   3.600  12.504 -1.2918  0.9708  1.1314
11183TIP3   OH255039   6.629   1.617   0.033 -0.7717  0.2799  0.3937
11183TIP3    H155040   6.536   1.618   0.055 -0.6274  0.5099  1.0002
11183TIP3    H255041   6.671   1.568   0.104 -0.4049  0.3386  0.2227
11184TIP3   OH255042   6.555   2.203  14.961  0.4920  0.2345 -0.1822
11184TIP3    H155043   6.505   2.232  14.884  1.6640  1.1326 -0.6317
11184TIP3    H255044   6.521   2.255  15.033 -1.1790 -1.1698  0.1307
11185TIP3   OH255045   2.851   2.120  11.054  0.7031  0.3171 -0.0242
11185TIP3    H155046   2.840   2.178  11.130 -2.2634 -0.8015  0.5000
11185TIP3    H255047   2.860   2.033  11.091  2.1694  0.0418 -0.9260
11186TIP3   OH255048   3.829   6.623  14.103  0.0812  0.3362 -0.2700
11186TIP3    H155049   3.835   6.544  14.157  0.1882  0.4377 -0.1321
11186TIP3    H255050   3.872   6.600  14.021 -1.7004 -0.4287 -1.0438
11187TIP3   OH255051   0.045   1.389  15.571  0.5914 -0.4511  0.4472
11187TIP3    H155052   0.106   1.365  15.640 -1.0653 -1.0220  1.7819
11187TIP3    H255053  -0.041   1.391  15.614 -0.3678  0.1238 -1.3851
11188TIP3   OH255054   5.287   6.292  10.232  0.1162 -0.1590  0.1250
11188TIP3    H155055   5.210   6.314  10.181 -1.5583 -0.9495  2.1757
11188TIP3    H255056   5.354   6.353  10.202 -0.8654 -0.3242 -2.6389
11189TIP3   OH255057   2.477   1.873   4.903  0.3516  0.1852 -0.0066
11189TIP3    H155058   2.550   1.836   4.953 -0.5077 -0.8249  0.5541
11189TIP3    H255059   2.478   1.826   4.820 -0.7109 -1.1300  0.6873
11190TIP3   OH255060   5.059   1.173  11.006 -0.2387 -0.5317 -0.3007
11190TIP3    H155061   5.124   1.115  11.045  1.6256  0.4351 -1.8128
11190TIP3    H255062   5.009   1.116  10.947  0.3685 -0.9689 -0.4012
11191TIP3   OH255063   3.742   1.311   0.935 -0.4043 -0.3577 -0.3208
11191TIP3    H155064   3.658   1.331   0.975  0.3216 -0.6319  1.4151
11191TIP3    H255065   3.758   1.219   0.958  0.4003 -0.2924 -0.5903
11192TIP3   OH255066   4.479   2.796  10.862 -0.4645  1.0303 -0.6237
11192TIP3    H155067   4.422   2.719  10.861  0.1546  0.5307  0.5903
11192TIP3    H255068   4.419   2.870  10.871 -0.9504  0.3928  3.3040
11193TIP3   OH255069   1.948   0.826   2.640 -0.3260  0.1210  0.2540
11193TIP3    H155070   1.989   0.739   2.639 -1.4177 -0.4595 -2.4161
11193TIP3    H255071   1.884   0.821   2.711  1.6138 -0.1975  2.0548
11194TIP3   OH255072   3.931   0.500   0.321  0.3872  0.4639  1.0549
11194TIP3    H155073   3.951   0.590   0.294  0.5445 -0.1803 -1.1151
11194TIP3    H255074   3.838   0.502   0.343 -0.6298  0.4543 -2.5783
11195TIP3   OH255075   4.702   4.296   2.059 -0.2085 -0.0898 -0.5781
11195TIP3    H155076   4.656   4.217   2.088  0.4608  0.0655  1.0008
11195TIP3    H255077   4.639   4.341   2.003 -2.0902  0.2018  1.6207
11196TIP3   OH255078   2.359   5.405   3.180  0.1594  0.3183 -0.0466
11196TIP3    H155079   2.329   5.314   3.176  0.2861  0.2992 -0.6130
11196TIP3    H255080   2.454   5.398   3.186  0.1134  0.3967  0.9944
11197TIP3   OH255081   6.352   6.465  11.101 -0.2245  0.2846  0.0230
11197TIP3    H155082   6.446   6.478  11.092  0.0693 -1.2383  0.6151
11197TIP3    H255083   6.323   6.537  11.157  1.1220 -0.8806  2.3361
11198TIP3   OH255084   1.363   0.188  13.383 -0.2424 -0.3499 -0.4631
11198TIP3    H155085   1.327   0.241  13.454  1.3427  0.3664 -0.1635
11198TIP3    H255086   1.449   0.160  13.415 -0.3231 -1.6506 -1.3247
11199TIP3   OH255087   3.906   4.887  14.808 -0.5108  0.4135 -0.1340
11199TIP3    H155088   3.922   4.815  14.746  1.3240 -0.9386  1.7975
11199TIP3    H255089   3.837   4.854  14.865  0.0517  0.3517  0.5125
11200TIP3   OH255090   0.355   1.993   1.638  0.2005  0.2990 -0.0184
11200TIP3    H155091   0.389   1.942   1.711  1.3961  1.2000  0.0765
11200TIP3    H255092   0.305   2.064   1.679 -0.5918 -0.1748 -0.1324
11201TIP3   OH255093   1.972   6.656  14.780 -0.5610  0.2609 -0.1248
11201TIP3    H155094   1.887   6.681  14.818 -1.1611 -0.0784 -1.1986
11201TIP3    H255095   1.977   6.562  14.794 -0.4974  0.2339 -0.3300
11202TIP3   OH255096   4.268   5.138   3.604 -0.5086 -0.3603  0.0032
11202TIP3    H155097   4.220   5.065   3.563  0.1387 -1.0699  0.4853
11202TIP3    H255098   4.355   5.134   3.564 -0.5617  0.3581 -0.1980
11203TIP3   OH255099   0.454   5.690  14.075  0.1533  0.7295  0.3402
11203TIP3    H155100   0.442   5.743  13.996 -0.8444  0.1768  0.1084
11203TIP3    H255101   0.373   5.640  14.083  1.2255 -1.0994  0.3029
11204TIP3   OH255102   3.328   5.211  11.106  0.2683 -0.8857  0.9074
11204TIP3    H155103   3.372   5.223  11.190  0.0810 -1.3478  1.0720
11204TIP3    H255104   3.339   5.295  11.061 -0.0712 -0.4647  1.6004
11205TIP3   OH255105   2.372   1.209   3.048  0.8354  0.1690 -0.5377
11205TIP3    H155106   2.288   1.189   3.006  1.4642 -1.1742 -1.2237
11205TIP3    H255107   2.354   1.201   3.141 -0.2212  1.6811 -0.5891
11206TIP3   OH255108   6.024   2.856   4.843 -0.2401  0.2628 -0.3583
11206TIP3    H155109   5.948   2.871   4.787 -0.6793 -1.0488 -0.1421
11206TIP3    H255110   6.028   2.761   4.853  2.8954  0.0336 -2.4020
11207TIP3   OH255111   1.933   5.852   5.206 -0.1731  0.1225  0.3689
11207TIP3    H155112   2.003   5.844   5.141 -0.3147  2.3777 -0.1515
11207TIP3    H255113   1.973   5.825   5.289  0.9238  0.1436 -0.1408
11208TIP3   OH255114   3.918   3.149   0.562 -0.1798  0.4918  0.5531
11208TIP3    H155115   3.861   3.125   0.636  0.7424 -0.4143  1.0058
11208TIP3    H255116   4.002   3.169   0.603  0.2710  0.2146 -0.2251
11209TIP3   OH255117   2.482   3.642   3.310 -0.3506  0.1635 -0.5397
11209TIP3    H155118   2.541   3.713   3.335 -1.0608  0.0749  1.6058
11209TIP3    H255119   2.398   3.685   3.297 -0.0731  0.1622 -2.7302
11210TIP3   OH255120   3.094   4.024   0.655 -0.3013  0.2688  0.6376
11210TIP3    H155121   3.132   4.068   0.731  0.5948 -0.0001  0.3496
11210TIP3    H255122   3.026   3.967   0.692 -0.0159  0.2998  1.2176
11211TIP3   OH255123   5.937   0.882   0.246  0.2852 -0.2232 -0.8393
11211TIP3    H155124   5.992   0.959   0.233  0.4332  0.0493  1.1884
11211TIP3    H255125   5.978   0.814   0.192  2.5079  0.0453  0.4251
11212TIP3   OH255126   1.210   4.564   3.011 -0.1612  0.7790 -0.4146
11212TIP3    H155127   1.259   4.631   2.963 -0.6667  0.2030 -1.8077
11212TIP3    H255128   1.234   4.577   3.103  1.2249  1.6257 -0.8649
11213TIP3   OH255129   1.377   2.441   2.854 -0.0062 -0.4988  0.3942
11213TIP3    H155130   1.468   2.423   2.830 -0.0154  0.5309 -0.5293
11213TIP3    H255131   1.382   2.519   2.909 -0.3521 -0.1409 -0.0697
11214TIP3   OH255132   3.339   1.860  12.935  0.8458 -0.0365  0.4615
11214TIP3    H155133   3.318   1.897  13.020 -1.2875  1.6239 -0.7041
11214TIP3    H255134   3.425   1.896  12.913 -0.7312  3.7263 -0.2139
11215TIP3   OH255135   0.296   1.188   1.750  0.3400  0.4062  0.2074
11215TIP3    H155136   0.324   1.103   1.785 -1.3687 -0.1454  0.3335
11215TIP3    H255137   0.254   1.232   1.824 -0.5686  0.5110 -0.3566
11216TIP3   OH255138   2.574   6.164  13.879 -0.7173  0.3521 -0.2782
11216TIP3    H155139   2.600   6.119  13.798 -1.4712  0.5462 -0.6398
11216TIP3    H255140   2.620   6.248  13.876  0.7136 -0.3808  0.4084
11217TIP3   OH255141   5.312   2.374  12.021  0.5490  0.0196 -0.1224
11217TIP3    H155142   5.360   2.456  12.030  0.4862  0.4251 -2.6883
11217TIP3    H255143   5.221   2.401  12.010  0.3935 -0.4641 -0.0429
11218TIP3   OH255144   3.109   5.804   0.208  0.4589 -0.2594  0.0471
11218TIP3    H155145   3.126   5.880   0.152  1.1647  1.9692  3.0173
11218TIP3    H255146   3.014   5.800   0.216  0.3689 -0.3836 -0.9254
11219TIP3   OH255147   1.053   3.453   5.147  0.7621  0.2201  0.4293
11219TIP3    H155148   1.041   3.364   5.113 -1.4859  0.0346  1.5487
11219TIP3    H255149   1.141   3.453   5.185  1.4363 -0.9988 -1.0349
11220TIP3   OH255150   4.312   5.532   0.096  0.3103  0.0426  0.6454
11220TIP3    H155151   4.381   5.469   0.120 -0.1472  0.2123  2.5155
11220TIP3    H255152   4.232   5.480   0.097  0.1413  0.3005  0.4783
11221TIP3   OH255153   5.723   5.346   4.120 -0.1864  0.1489  0.1823
11221TIP3    H155154   5.695   5.381   4.204 -2.3866 -0.4001 -0.2549
11221TIP3    H255155   5.742   5.424   4.066 -0.7284  0.5490  0.5667
11222TIP3   OH255156   5.673   6.763  15.398  0.2152 -0.1662 -0.6222
11222TIP3    H155157   5.586   6.799  15.416  0.8599  1.3751 -0.4483
11222TIP3    H255158   5.662   6.715  15.316 -1.0271 -0.8971 -0.0630
11223TIP3   OH255159   5.481   1.610   2.816 -0.1908  0.0106 -0.7479
11223TIP3    H155160   5.563   1.591   2.772  0.1100  0.2270 -0.2832
11223TIP3    H255161   5.443   1.524   2.834 -1.6452 -0.1538 -3.8130
11224TIP3   OH255162   7.104   6.787   0.390  0.3526 -0.1476  1.0475
11224TIP3    H155163   7.038   6.846   0.427  0.0766 -0.6904  1.4248
11224TIP3    H255164   7.082   6.782   0.297  0.6646  0.7167  0.9151
11225TIP3   OH255165   5.204   2.610  15.624 -0.3909 -0.7558 -0.0283
11225TIP3    H155166   5.224   2.519  15.646  0.5539 -0.2366  1.4705
11225TIP3    H255167   5.153   2.642  15.699  0.6821  0.3761  0.2505
11226TIP3   OH255168   5.768   7.045   3.793  0.6359 -0.2928  0.4350
11226TIP3    H155169   5.837   7.006   3.847  0.4618 -1.8429 -0.3704
11226TIP3    H255170   5.686   7.019   3.836  0.5198 -0.6129  0.0292
11227TIP3   OH255171   6.542   6.705  14.502  0.7712  0.6543  0.0541
11227TIP3    H155172   6.464   6.711  14.447  2.0967  1.5702 -1.8476
11227TIP3    H255173   6.578   6.794  14.502  1.6547  0.3196  1.1607
11228TIP3   OH255174   0.055   6.700  12.513 -0.5389 -0.1026 -0.8104
11228TIP3    H155175   0.125   6.638  12.490 -0.7227 -0.2977 -0.8417
11228TIP3    H255176  -0.019   6.644  12.536 -0.2802  0.0794  0.5193
11229TIP3   OH255177   6.041   2.513   2.187 -0.8975 -0.2929  0.0459
11229TIP3    H155178   6.036   2.608   2.181  1.2337 -0.1681 -0.6947
11229TIP3    H255179   6.129   2.495   2.221 -0.6345 -1.9932 -1.3206
11230TIP3   OH255180   2.313   6.779  12.197  0.1444  0.4292  0.3582
11230TIP3    H155181   2.255   6.716  12.239  1.4639 -0.1480  1.4226
11230TIP3    H255182   2.337   6.738  12.114 -1.2074  0.8329 -0.2527
11231TIP3   OH255183   6.012   2.529   0.650  0.1102 -0.0922 -0.3850
11231TIP3    H155184   6.046   2.606   0.695 -0.1180  0.3789 -0.9939
11231TIP3    H255185   6.052   2.454   0.695  1.3142  0.4158 -0.5696
11232TIP3   OH255186   2.488   6.231   4.222  0.1801 -0.4408 -0.4966
11232TIP3    H155187   2.521   6.145   4.195 -1.5565 -1.0487 -0.8259
11232TIP3    H255188   2.540   6.294   4.173  0.5285 -1.3639 -1.3246
11233TIP3   OH255189   5.989   6.134   6.004 -0.2955 -0.2197 -1.0787
11233TIP3    H155190   6.042   6.210   5.980  0.4751 -1.0105 -1.9910
11233TIP3    H255191   6.053   6.068   6.030 -0.8334 -1.0765 -1.8687
11234TIP3   OH255192   4.771   4.777   4.204  0.3300 -0.5557  0.8125
11234TIP3    H155193   4.830   4.734   4.142 -0.5444 -2.3933  1.2018
11234TIP3    H255194   4.687   4.735   4.190 -1.1115  2.4001 -0.1154
11235TIP3   OH255195   5.246   4.035  12.799 -0.5204  0.0317 -0.1346
11235TIP3    H155196   5.341   4.042  12.798 -0.3919 -1.1734  0.7473
11235TIP3    H255197   5.225   3.973  12.729 -0.5860 -0.2376  0.1191
11236TIP3   OH255198   0.520   4.281  13.253 -0.2202  0.2081  0.1256
11236TIP3    H155199   0.563   4.310  13.173  0.1913 -0.9866 -0.1089
11236TIP3    H255200   0.527   4.185  13.251 -1.5238  0.0774  0.8589
11237TIP3   OH255201   0.959   2.964  12.704  0.2180  1.1437  0.7267
11237TIP3    H155202   0.907   3.024  12.651  1.1070  1.3119  0.0296
11237TIP3    H255203   1.047   2.968  12.667  0.5898  0.3729  1.4756
11238TIP3   OH255204   7.031   7.114   2.986  0.2685  0.3519  0.4452
11238TIP3    H155205   6.945   7.096   3.024  1.0880 -1.0148  1.7918
11238TIP3    H255206   7.065   7.028   2.963  2.4069  0.5129  2.5893
11239TIP3   OH255207   3.927   5.030  15.562 -0.7901 -0.3366 -0.0525
11239TIP3    H155208   3.837   4.999  15.556 -0.4581 -1.2042 -0.7466
11239TIP3    H255209   3.978   4.952  15.584  0.0335 -0.2742 -1.5851
11240TIP3   OH255210   2.768   0.793   5.919  0.3124 -0.5676  0.0025
11240TIP3    H155211   2.774   0.829   6.007  0.5801 -0.4716 -0.0536
11240TIP3    H255212   2.828   0.846   5.867  1.5808 -1.7862  0.1612
11241TIP3   OH255213   3.831   3.183  15.672 -1.0462  0.0353 -0.0868
11241TIP3    H155214   3.893   3.256  15.672 -0.4609 -0.4463  0.2605
11241TIP3    H255215   3.785   3.189  15.589 -0.4577  0.3467 -0.3937
11242TIP3   OH255216   2.137   1.108  14.517 -0.3157  0.2891  0.7234
11242TIP3    H155217   2.188   1.167  14.573  0.8905  0.3151 -0.3527
11242TIP3    H255218   2.065   1.162  14.486  0.3333  0.9921  0.3897
11243TIP3   OH255219   6.087   6.421   0.229 -0.2444 -0.0358 -0.1356
11243TIP3    H155220   6.146   6.372   0.287  0.4589 -1.4639 -1.9510
11243TIP3    H255221   6.098   6.379   0.143 -2.9362  0.5144 -0.8346
11244TIP3   OH255222   2.441   0.019   1.992 -0.1022  0.4420 -0.0203
11244TIP3    H155223   2.355  -0.018   1.971  0.0013  1.4652 -2.7049
11244TIP3    H255224   2.422   0.098   2.042 -0.8708  1.2853 -1.5546
11245TIP3   OH255225   0.182   3.819   1.031  0.5737 -0.0479  0.0873
11245TIP3    H155226   0.277   3.826   1.044  0.2501  1.3516  2.1605
11245TIP3    H255227   0.147   3.806   1.119 -1.1497 -0.8367 -0.6918
11246TIP3   OH255228   1.168   2.790  11.716  0.3974  0.2694 -0.1239
11246TIP3    H155229   1.253   2.784  11.760 -0.7975  1.3964  2.5597
11246TIP3    H255230   1.172   2.873  11.669  1.1249 -0.1713 -0.8628
11247TIP3   OH255231   5.871   4.029   1.545 -0.1779  0.4072  0.5397
11247TIP3    H155232   5.901   4.099   1.488  1.5142 -1.0692 -0.5071
11247TIP3    H255233   5.786   4.004   1.511  0.5268 -0.0154 -1.0023
11248TIP3   OH255234   2.789   5.406   3.605  0.0159 -0.3905  0.2110
11248TIP3    H155235   2.819   5.347   3.536  0.9166  0.9184 -0.5616
11248TIP3    H255236   2.740   5.475   3.559  0.7231  0.5668  0.8411
11249TIP3   OH255237   1.805   7.061  10.917 -0.2186 -0.2948  0.6576
11249TIP3    H155238   1.845   6.980  10.884 -3.4242 -0.9658 -2.1558
11249TIP3    H255239   1.847   7.131  10.866  0.4534 -0.4663  0.9601
11250TIP3   OH255240   5.868   4.416  10.113 -0.0742 -0.0332 -0.0356
11250TIP3    H155241   5.955   4.379  10.131 -0.9175 -2.2485 -0.2029
11250TIP3    H255242   5.817   4.342  10.078 -1.2145  1.8704 -2.7388
11251TIP3   OH255243   7.158   6.670   1.410  0.5092 -0.1768 -0.5243
11251TIP3    H155244   7.142   6.755   1.450 -1.0548 -0.4666 -0.4763
11251TIP3    H255245   7.194   6.617   1.480 -0.7086 -0.2091  0.1095
11252TIP3   OH255246   4.317   3.670   5.445 -0.1123 -0.1717 -0.2831
11252TIP3    H155247   4.372   3.726   5.500  1.4096 -0.2327 -1.6926
11252TIP3    H255248   4.253   3.633   5.506 -0.4222  2.1306  0.9034
11253TIP3   OH255249   3.307   2.510   0.418 -0.2367 -0.1775 -0.5064
11253TIP3    H155250   3.294   2.448   0.346 -1.0691  0.7264 -1.1561
11253TIP3    H255251   3.276   2.462   0.495 -0.2406 -0.8111 -0.8902
11254TIP3   OH255252   0.707   1.720  14.316  0.2892 -0.2492  0.4917
11254TIP3    H155253   0.661   1.799  14.343  0.7010 -0.1343  0.8692
11254TIP3    H255254   0.692   1.658  14.388  2.2237  0.3834  1.5015
11255TIP3   OH255255   6.909   5.811   2.550  0.1944 -0.2774  0.0817
11255TIP3    H155256   6.880   5.893   2.511 -0.4399  0.6856  2.4176
11255TIP3    H255257   6.867   5.809   2.636  0.1943 -3.0665  0.1063
11256TIP3   OH255258   6.391   5.241  11.132 -0.0569  0.6186  0.0069
11256TIP3    H155259   6.306   5.240  11.177  0.5962  3.2728  1.5839
11256TIP3    H255260   6.379   5.302  11.059  0.1848  0.0797 -0.4892
11257TIP3   OH255261   6.543   0.726   0.387  0.0743 -0.1154  0.0039
11257TIP3    H155262   6.470   0.763   0.337  0.9914  0.8693 -0.6455
11257TIP3    H255263   6.507   0.714   0.475 -2.4309 -4.4000 -1.3196
11258TIP3   OH255264   1.696   0.973   5.221  0.1125  0.3606 -0.6256
11258TIP3    H155265   1.662   0.926   5.145  3.7262 -1.0239 -1.6226
11258TIP3    H255266   1.744   0.907   5.271 -0.4079  1.6879  1.7815
11259TIP3   OH255267   6.198   0.446   0.648  0.1275  0.2974  0.0439
11259TIP3    H155268   6.121   0.409   0.604 -0.1238  1.0021 -0.1253
11259TIP3    H255269   6.161   0.504   0.715  0.5130 -0.0726  0.5730
11260TIP3   OH255270   1.008   3.734  14.217 -0.4031 -0.5834  0.0082
11260TIP3    H155271   1.046   3.709  14.133  1.4873 -0.7044  0.8572
11260TIP3    H255272   1.014   3.655  14.271 -2.1630 -0.6874  0.0934
11261TIP3   OH255273   0.658   4.214   3.921 -0.4587  0.4121 -0.0658
11261TIP3    H155274   0.719   4.158   3.968 -0.1292  0.3471 -0.5775
11261TIP3    H255275   0.688   4.303   3.941  0.6473  0.3625 -1.4375
11262TIP3   OH255276   6.919   6.269  10.426 -0.3769  0.0342  0.3028
11262TIP3    H155277   6.878   6.278  10.340  2.1770  0.4542 -0.9858
11262TIP3    H255278   6.968   6.186  10.421 -0.7568 -0.2948  1.6283
11263TIP3   OH255279   0.939   2.560   2.052  0.6425 -0.0396 -0.0035
11263TIP3    H155280   0.954   2.652   2.030  3.4709  0.0340  1.6899
11263TIP3    H255281   0.933   2.560   2.148 -0.7355 -1.4790 -0.0572
11264TIP3   OH255282   6.655   6.539   2.476  0.4510 -0.1075  0.1132
11264TIP3    H155283   6.630   6.460   2.427  1.3594 -1.3546  1.5701
11264TIP3    H255284   6.675   6.604   2.408 -4.0724  0.2611 -1.2082
11265TIP3   OH255285   4.333   1.911  11.485  0.1678 -0.5649 -0.2239
11265TIP3    H155286   4.245   1.913  11.448 -1.2882 -0.8700  2.9008
11265TIP3    H255287   4.320   1.896  11.578  3.5967 -1.4585  0.2697
11266TIP3   OH255288   5.586   4.086   1.393  0.1228  0.1576  0.1537
11266TIP3    H155289   5.616   3.995   1.400  0.6482  0.4009  1.3516
11266TIP3    H255290   5.491   4.079   1.389  0.2086 -0.5231 -1.6249
11267TIP3   OH255291   0.074   4.178  14.653  0.3042  0.0209 -0.7797
11267TIP3    H155292   0.032   4.240  14.593 -1.1715 -0.8613 -0.7161
11267TIP3    H255293   0.119   4.232  14.717 -1.4182  1.0573 -0.3881
11268TIP3   OH255294   3.988   0.165   3.695  0.2972 -0.6441 -0.6844
11268TIP3    H155295   3.955   0.222   3.765  1.4278  0.0284 -0.6535
11268TIP3    H255296   3.911   0.140   3.645 -0.4769 -0.7312  0.5126
11269TIP3   OH255297   4.846   6.866   5.247  0.1317  0.0822  0.6619
11269TIP3    H155298   4.940   6.848   5.256  0.1654 -0.1869 -0.1354
11269TIP3    H255299   4.806   6.819   5.321  0.3961 -1.8845 -0.3653
11270TIP3   OH255300   5.915   3.566   0.696  0.8583 -0.0103  0.3402
11270TIP3    H155301   6.001   3.580   0.735  0.1736  2.2361  1.2508
11270TIP3    H255302   5.895   3.474   0.714  3.1983 -0.6974 -0.2704
11271TIP3   OH255303   2.776   1.700  15.026  0.0487  0.0647 -0.4563
11271TIP3    H155304   2.820   1.615  15.029  0.9043  0.4954 -0.4275
11271TIP3    H255305   2.800   1.743  15.108 -0.9752  0.0627 -0.1370
11272TIP3   OH255306   0.144   6.402   5.778  0.1247 -0.3241 -0.7599
11272TIP3    H155307   0.148   6.455   5.858 -0.4421 -2.0540  0.4797
11272TIP3    H255308   0.076   6.443   5.725 -3.0323 -1.8745  1.8147
11273TIP3   OH255309   4.872   0.421   1.177 -0.1622 -0.6326  0.0715
11273TIP3    H155310   4.807   0.487   1.151 -1.2802 -0.5127  2.7940
11273TIP3    H255311   4.934   0.418   1.104 -1.0247  2.1788 -0.9199
11274TIP3   OH255312   4.630   5.828   0.322 -0.0175  0.1882 -0.1676
11274TIP3    H155313   4.593   5.789   0.243  0.2537  1.2166 -0.8167
11274TIP3    H255314   4.554   5.843   0.379  0.0925 -4.2121  1.5542
11275TIP3   OH255315   4.180   4.615  14.884  0.1263  0.1556  0.4574
11275TIP3    H155316   4.201   4.708  14.894 -0.9687  0.7101 -1.7456
11275TIP3    H255317   4.093   4.607  14.923  0.0197  0.1613  0.2212
11276TIP3   OH255318   0.165   0.675  12.541 -0.2628  0.3577  0.3109
11276TIP3    H155319   0.260   0.690  12.538 -0.3420  0.7017 -1.2481
11276TIP3    H255320   0.151   0.633  12.626  1.4102 -0.5725  0.1837
11277TIP3   OH255321   1.121   3.705  15.352 -0.0441 -0.6514 -0.0906
11277TIP3    H155322   1.029   3.693  15.329 -0.1281  0.0103 -0.1146
11277TIP3    H255323   1.169   3.673  15.277 -0.2137 -2.0659  0.3638
11278TIP3   OH255324   4.749   3.790  12.751  0.1963  0.1669  0.0447
11278TIP3    H155325   4.736   3.737  12.673 -1.9416  0.0986  0.3970
11278TIP3    H255326   4.760   3.727  12.822 -1.9529  0.1284  0.4005
11279TIP3   OH255327   3.060   5.354  13.844  0.8369  0.1245  0.4454
11279TIP3    H155328   3.057   5.357  13.940 -1.1013  0.5203  0.4039
11279TIP3    H255329   3.138   5.406  13.822  1.4809 -0.2039  1.7954
11280TIP3   OH255330   1.751   0.187   0.418  0.4322  0.1321  0.3105
11280TIP3    H155331   1.780   0.131   0.347  1.7463  0.0250  0.9126
11280TIP3    H255332   1.775   0.275   0.391 -1.1541  0.3938 -0.3932
11281TIP3   OH255333   5.425   4.571  11.411  0.2907  0.1636  0.1288
11281TIP3    H155334   5.383   4.538  11.332  1.4673 -0.6172 -0.1897
11281TIP3    H255335   5.502   4.515  11.423  2.1277  2.4714 -0.1775
11282TIP3   OH255336   4.510   0.354   1.480 -0.1713 -0.1016  0.1266
11282TIP3    H155337   4.594   0.314   1.503  1.0022  2.7321  1.3693
11282TIP3    H255338   4.506   0.350   1.385  1.7706  0.3044 -0.0195
11283TIP3   OH255339   5.753   2.146  12.365  0.2599  0.3779  0.4635
11283TIP3    H155340   5.743   2.225  12.313  1.2955 -0.8975 -1.8094
11283TIP3    H255341   5.844   2.119  12.351  0.3524 -0.4588  2.3606
11284TIP3   OH255342   1.672   4.017   0.415 -0.4805  0.0883  0.2227
11284TIP3    H155343   1.762   3.994   0.392 -1.0073 -0.8683 -0.9904
11284TIP3    H255344   1.677   4.109   0.441  0.7596  0.2121 -0.3505
11285TIP3   OH255345   6.190   0.378   4.523  0.9856  0.4314 -0.1148
11285TIP3    H155346   6.180   0.465   4.560  1.2431 -0.2754  1.7283
11285TIP3    H255347   6.100   0.348   4.508  0.9057  1.1584 -1.1778
11286TIP3   OH255348   4.664   3.027  12.609  0.1545  0.2164  0.1677
11286TIP3    H155349   4.614   2.959  12.563  1.5061 -0.9084  0.2731
11286TIP3    H255350   4.638   3.109  12.566 -1.0346 -0.4327 -0.4066
11287TIP3   OH255351   2.042   5.094   0.601  0.4292 -0.6902  0.2401
11287TIP3    H155352   1.997   5.036   0.662  1.1514  0.5779  2.0511
11287TIP3    H255353   2.098   5.036   0.550  0.9868 -1.6503  1.8609
11288TIP3   OH255354   2.732   0.788   0.396  0.9675 -0.2332 -0.3770
11288TIP3    H155355   2.637   0.782   0.381  1.2802 -2.1838 -2.0556
11288TIP3    H255356   2.747   0.737   0.476  0.3656  2.3866  1.5421
11289TIP3   OH255357   2.979   0.685  12.283  0.2401  0.2265  0.1521
11289TIP3    H155358   2.928   0.696  12.363  0.4421 -1.3065  0.5143
11289TIP3    H255359   3.067   0.714  12.307  0.0862  0.6486  0.2090
11290TIP3   OH255360   6.323   0.801   5.118 -0.0371  0.0876  0.3159
11290TIP3    H155361   6.362   0.746   5.186 -0.8919 -1.4858 -0.4240
11290TIP3    H255362   6.257   0.854   5.164  0.0166 -0.3038  0.8493
11291TIP3   OH255363   4.697   0.610   4.566 -0.3030  0.6655  0.5835
11291TIP3    H155364   4.791   0.625   4.572 -0.1933 -0.2983  1.5806
11291TIP3    H255365   4.689   0.526   4.519 -0.6572  0.6778  0.6220
11292TIP3   OH255366   4.378   3.196   4.719  0.5614 -0.5417 -0.3202
11292TIP3    H155367   4.322   3.198   4.641  0.4420  1.4869 -0.2296
11292TIP3    H255368   4.320   3.163   4.789 -0.3664  0.8970 -0.3697
11293TIP3   OH255369   3.461   0.337  11.754  0.4496  0.1202 -0.2658
11293TIP3    H155370   3.527   0.297  11.810 -1.7207 -3.5280  0.0235
11293TIP3    H255371   3.495   0.327  11.665  0.3381 -1.7711 -0.1298
11294TIP3   OH255372   0.548   3.939  11.649  0.4291 -0.1594  0.5000
11294TIP3    H155373   0.617   3.987  11.601 -0.1763 -1.5540 -1.9371
11294TIP3    H255374   0.538   3.857  11.600 -2.6216 -0.2169  1.0496
11295TIP3   OH255375   3.206   6.431   2.716  0.3779  0.2277  0.0288
11295TIP3    H155376   3.244   6.422   2.804  0.0798  0.7568  0.2150
11295TIP3    H255377   3.173   6.343   2.696  1.8153 -0.2938 -0.2025
11296TIP3   OH255378   6.892   4.861  15.480 -0.1965 -0.7246  0.3045
11296TIP3    H155379   6.828   4.915  15.435  0.4862  0.8439  1.1280
11296TIP3    H255380   6.977   4.890  15.446  0.1897 -1.2571  0.7816
11297TIP3   OH255381   1.584   6.336   4.718  0.3356 -0.7218  0.8227
11297TIP3    H155382   1.558   6.313   4.628  1.7931 -0.8191  0.4064
11297TIP3    H255383   1.664   6.386   4.707 -1.0026  1.8274  1.9118
11298TIP3   OH255384   2.162   3.278  15.611  0.3676 -0.4456  0.3612
11298TIP3    H155385   2.082   3.328  15.597 -0.2685 -0.7787  2.4438
11298TIP3    H255386   2.228   3.324  15.560 -1.0236  0.1150 -1.0410
11299TIP3   OH255387   1.620   7.017   5.424 -0.4565 -0.1176 -0.2216
11299TIP3    H155388   1.674   6.939   5.417  0.5236  0.6176 -1.1239
11299TIP3    H255389   1.573   7.022   5.340 -3.7432 -1.9727  1.3040
11300TIP3   OH255390   2.142   0.661  14.362 -0.0212  1.1547  0.4053
11300TIP3    H155391   2.127   0.730  14.427  0.7367  1.6973  0.0126
11300TIP3    H255392   2.225   0.622  14.387 -0.4003  0.4346  0.5678
11301TIP3   OH255393   5.737   4.203   4.971 -0.7638  0.2535  0.1637
11301TIP3    H155394   5.673   4.148   5.016 -1.0151 -0.3475 -0.8921
11301TIP3    H255395   5.822   4.170   5.000 -0.8514  1.7239  2.3915
11302TIP3   OH255396   6.537   2.434  12.357  0.6738  0.2000 -0.0842
11302TIP3    H155397   6.579   2.356  12.395  0.7742  0.1024 -0.3958
11302TIP3    H255398   6.567   2.506  12.412  1.9324  0.2491 -0.8220
11303TIP3   OH255399   2.163   1.438   2.964 -0.3924 -0.5654 -1.0092
11303TIP3    H155400   2.083   1.407   3.006 -1.5387  0.5349 -2.2787
11303TIP3    H255401   2.225   1.452   3.036 -2.3894  1.6164  0.4442
11304TIP3   OH255402   0.301   1.843   2.583  0.0699 -0.1475  0.6062
11304TIP3    H155403   0.244   1.775   2.547  0.8875 -0.0199 -1.0398
11304TIP3    H255404   0.256   1.874   2.661 -2.4224  0.3605 -0.9263
11305TIP3   OH255405   6.266   2.176   9.395  0.2393 -0.4265  0.0574
11305TIP3    H155406   6.261   2.250   9.334 -0.3687 -0.9390 -0.5260
11305TIP3    H255407   6.310   2.107   9.346 -1.0881 -1.1563 -0.1504
11306TIP3   OH255408   4.412   2.816   1.330  0.1862 -0.6156 -0.3127
11306TIP3    H155409   4.430   2.784   1.241 -0.6968  0.7727 -1.0273
11306TIP3    H255410   4.329   2.863   1.322 -0.4841 -1.3671  1.4966
11307TIP3   OH255411   4.834   5.970  11.728 -0.4685  0.0391  0.0812
11307TIP3    H155412   4.838   6.053  11.681 -1.1139  0.0171 -0.0252
11307TIP3    H255413   4.903   5.916  11.687  0.6396  0.8461  0.8352
11308TIP3   OH255414   5.813   4.762   1.737  0.1175 -0.1568 -0.0606
11308TIP3    H155415   5.858   4.678   1.724  0.0179 -0.3564  0.8112
11308TIP3    H255416   5.819   4.806   1.652  0.5441 -0.8662 -0.4076
11309TIP3   OH255417   5.664   1.331   2.117 -0.1097  0.4022 -0.4833
11309TIP3    H155418   5.648   1.336   2.211 -0.1048 -0.8078 -0.3931
11309TIP3    H255419   5.758   1.314   2.110  0.0119  1.1394 -0.7444
11310TIP3   OH255420   6.296   7.053   3.363  0.3132 -0.3575 -0.2035
11310TIP3    H155421   6.381   7.012   3.345  0.3883  0.2386 -1.3458
11310TIP3    H255422   6.290   7.055   3.458  2.2822  0.9749 -0.0440
11311TIP3   OH255423   6.709   6.852   3.707 -0.3488  0.2104  0.1057
11311TIP3    H155424   6.718   6.760   3.732  0.8088  1.3331  4.7119
11311TIP3    H255425   6.798   6.877   3.680 -0.3668  0.2589  0.0917
11312TIP3   OH255426   2.445   2.222  15.198  0.1547  0.6538 -0.4873
11312TIP3    H155427   2.398   2.303  15.183  0.6134  0.7306 -1.6320
11312TIP3    H255428   2.397   2.178  15.268 -1.1833  1.0474 -1.1362
11313TIP3   OH255429   4.877   1.764  12.438  0.4921 -0.6879  0.0142
11313TIP3    H155430   4.851   1.825  12.507  0.5822  1.7174 -1.9288
11313TIP3    H255431   4.970   1.782  12.424  0.7635 -1.9774  0.0129
11314TIP3   OH255432   2.157   1.797   4.573 -0.4196 -0.0252 -0.6029
11314TIP3    H155433   2.084   1.828   4.628 -0.5983 -1.5133  0.0278
11314TIP3    H255434   2.122   1.721   4.527 -0.0610  0.8013 -2.3288
11315TIP3   OH255435   0.149   4.068   0.442  0.4098  0.2120  0.4989
11315TIP3    H155436   0.136   3.985   0.396 -0.5733 -0.9284  2.6711
11315TIP3    H255437   0.078   4.124   0.410 -1.9909 -1.4737  2.4063
11316TIP3   OH255438   5.780   2.049  15.326  0.3521  0.6497 -0.4634
11316TIP3    H155439   5.816   1.977  15.274 -0.2222 -0.6688  0.8765
11316TIP3    H255440   5.806   2.128  15.279  0.4438 -0.4436 -2.3512
11317TIP3   OH255441   2.481   3.241  13.771  0.0750  0.2690 -0.0514
11317TIP3    H155442   2.566   3.259  13.811  0.6519  0.1000 -1.1706
11317TIP3    H255443   2.418   3.249  13.843  0.9288  1.3186  0.6070
11318TIP3   OH255444   6.725   0.821   4.859  0.7261  0.0877 -0.0302
11318TIP3    H155445   6.736   0.766   4.937  0.3539  1.2807  0.8861
11318TIP3    H255446   6.630   0.827   4.848  0.7681 -0.7895 -1.1309
11319TIP3   OH255447   1.459   4.413   2.358 -0.0275 -0.0996  0.3136
11319TIP3    H155448   1.481   4.503   2.332 -2.4480 -0.0055 -1.7665
11319TIP3    H255449   1.426   4.420   2.447  2.0754  0.6306  1.1096
11320TIP3   OH255450   1.553   1.613   2.613 -0.2500 -0.3962 -0.3882
11320TIP3    H155451   1.516   1.545   2.670  0.6698 -1.0238 -0.5094
11320TIP3    H255452   1.530   1.585   2.524 -1.9207  0.7246 -0.3559
11321TIP3   OH255453   6.616   3.527   9.877  0.3874  0.2032  0.1475
11321TIP3    H155454   6.673   3.450   9.871 -1.1413 -1.0649  1.1354
11321TIP3    H255455   6.587   3.528   9.969 -2.2052 -0.0061 -0.5990
11322TIP3   OH255456   6.599   5.535  15.157  0.1346  0.1251  0.3178
11322TIP3    H155457   6.531   5.594  15.187 -2.0207 -0.9059 -2.1563
11322TIP3    H255458   6.637   5.499  15.237 -1.9298  1.0901  1.8129
11323TIP3   OH255459   3.036   1.813   2.511 -0.3609  0.0557  0.3041
11323TIP3    H155460   2.974   1.742   2.529 -1.3509  0.3223 -1.7438
11323TIP3    H255461   3.007   1.884   2.568 -0.2123 -0.7120  1.3704
11324TIP3   OH255462   4.974   6.015  12.962 -0.1001  0.4056  0.1427
11324TIP3    H155463   4.973   6.103  12.922  2.0374  1.0199  1.3102
11324TIP3    H255464   5.053   5.974  12.929 -0.0670 -0.3509  1.1126
11325TIP3   OH255465   4.534   3.815  12.147  0.0711 -0.0408 -0.0428
11325TIP3    H155466   4.446   3.841  12.174 -0.4115 -0.3859 -1.2258
11325TIP3    H255467   4.520   3.755  12.073  1.2637 -0.9178  0.4044
11326TIP3   OH255468   5.121   5.585  15.150  0.0218 -0.2204  0.6607
11326TIP3    H155469   5.165   5.667  15.128 -0.5722 -0.0217  0.1809
11326TIP3    H255470   5.037   5.612  15.187 -0.8021 -0.6025 -0.8411
11327TIP3   OH255471   0.355   5.377   2.388  0.4208  0.2805  0.1493
11327TIP3    H155472   0.277   5.348   2.436  0.4044  0.1196  0.0294
11327TIP3    H255473   0.367   5.310   2.320  1.0429 -0.0520  0.5752
11328TIP3   OH255474   6.492   0.432   5.109 -0.6126 -0.3815  0.2673
11328TIP3    H155475   6.558   0.440   5.178  0.8237 -1.8155 -0.8628
11328TIP3    H255476   6.527   0.366   5.050 -1.5997  1.0623 -2.0720
11329TIP3   OH255477   6.001   0.326  14.890 -0.5193  0.3631 -0.0068
11329TIP3    H155478   6.045   0.331  14.805  0.7248 -0.6182  0.5450
11329TIP3    H255479   5.927   0.386  14.883  0.2634  1.2003 -1.3642
11330TIP3   OH255480   6.689   2.716   5.806 -0.0696 -0.1662 -0.4037
11330TIP3    H155481   6.671   2.633   5.850  1.5692  0.0142  0.7051
11330TIP3    H255482   6.782   2.710   5.782  0.1044  1.3719 -0.2145
11331TIP3   OH255483   2.103   6.395  14.825 -0.1506 -0.0722 -0.0597
11331TIP3    H155484   2.094   6.339  14.902  0.3439 -2.2120 -1.4839
11331TIP3    H255485   2.196   6.419  14.824  0.2317 -1.4618 -0.8654
11332TIP3   OH255486   3.697   4.001   5.210  0.7922  0.5554 -0.7313
11332TIP3    H155487   3.742   4.041   5.285 -0.0866  1.2581 -0.5610
11332TIP3    H255488   3.720   3.908   5.215 -1.0294  0.1224  1.7666
11333TIP3   OH255489   2.670   5.318  13.996 -0.3184  0.3999  0.1200
11333TIP3    H155490   2.608   5.269  14.051  0.0508  1.6949  1.7589
11333TIP3    H255491   2.615   5.377  13.945 -0.4896  2.8164  2.8346
11334TIP3   OH255492   4.045   3.860   5.720  0.0088 -0.3087  0.3717
11334TIP3    H155493   3.995   3.918   5.778 -1.0220 -2.1819  1.4888
11334TIP3    H255494   4.125   3.841   5.768 -0.1066 -0.5691  0.4660
11335TIP3   OH255495   6.669   5.446   5.573 -0.1684 -0.3452  0.1317
11335TIP3    H155496   6.736   5.392   5.530  0.5139 -0.9322  1.8313
11335TIP3    H255497   6.586   5.409   5.543  0.2694 -0.2851 -1.1986
11336TIP3   OH255498   5.115   3.393  11.639  0.2626  0.1551  0.2133
11336TIP3    H155499   5.200   3.421  11.606  0.6774 -0.0395  1.0952
11336TIP3    H255500   5.135   3.340  11.716 -0.6226 -0.5221 -0.0097
11337TIP3   OH255501   1.744   1.142  11.119  0.2294  0.1563  0.1823
11337TIP3    H155502   1.814   1.127  11.055 -0.6536 -0.6867 -0.6277
11337TIP3    H255503   1.766   1.086  11.193 -0.0154 -0.7543 -0.4215
11338TIP3   OH255504   5.162   1.661   0.976 -0.1896 -0.1312 -0.2774
11338TIP3    H155505   5.129   1.697   1.058  0.4013  2.1506 -0.9754
11338TIP3    H255506   5.230   1.722   0.948  2.2111 -2.7799 -0.6757
11339TIP3   OH255507   3.665   6.723   4.778 -0.1044 -0.5103 -0.6790
11339TIP3    H155508   3.581   6.757   4.809 -0.0924 -0.9968 -0.0954
11339TIP3    H255509   3.643   6.670   4.702  0.0565  2.2217 -2.7616
11340TIP3   OH255510   0.682   1.527  15.365 -0.1711 -0.1942  0.0615
11340TIP3    H155511   0.667   1.620  15.382  0.8267 -0.0225  0.0797
11340TIP3    H255512   0.758   1.504  15.418  1.3413 -0.3010 -2.0035
11341TIP3   OH255513   1.706   1.772  14.572 -0.3843  1.0634  0.4290
11341TIP3    H155514   1.711   1.727  14.488  2.4480 -0.1740  1.1522
11341TIP3    H255515   1.774   1.839  14.568  0.4811  0.3501  2.0279
11342TIP3   OH255516   0.954   3.952   0.486 -0.0904 -0.2964  0.2091
11342TIP3    H155517   1.027   3.955   0.425 -1.1920 -0.2941 -1.1647
11342TIP3    H255518   0.944   3.859   0.507 -1.0724 -0.5763 -1.3725
11343TIP3   OH255519   4.322   5.776   1.341  0.2431  0.4366  0.3456
11343TIP3    H155520   4.279   5.707   1.290 -2.5017  0.9304  1.7709
11343TIP3    H255521   4.286   5.858   1.306  0.3643  0.9041  1.2744
11344TIP3   OH255522   6.242   5.746  12.466  0.1473  0.0568  0.3572
11344TIP3    H155523   6.236   5.652  12.482  1.9342  0.1931  2.2310
11344TIP3    H255524   6.287   5.753  12.381  0.4715 -0.7894  0.4528
11345TIP3   OH255525   2.547   3.341   4.396  0.7100  0.3933  0.3870
11345TIP3    H155526   2.612   3.340   4.466  0.6943  1.2285  0.4182
11345TIP3    H255527   2.463   3.325   4.440  0.6779  1.0945  0.5908
11346TIP3   OH255528   6.232   4.500   9.931 -0.4944  0.3813  0.2628
11346TIP3    H155529   6.323   4.487   9.905  0.1033  0.8399  2.0163
11346TIP3    H255530   6.200   4.412   9.952  0.6757  0.5436  3.0704
11347TIP3   OH255531   2.953   5.555  12.971  0.1534  0.1480 -0.3928
11347TIP3    H155532   2.914   5.618  13.032 -0.6674  1.4460 -2.1762
11347TIP3    H255533   3.039   5.535  13.010  0.7527  2.9355 -0.0862
11348TIP3   OH255534   2.857   0.195   2.390 -0.2241 -0.3650 -0.3132
11348TIP3    H155535   2.764   0.200   2.365  0.0049 -0.6408 -1.2571
11348TIP3    H255536   2.876   0.101   2.389  0.0191 -0.3187  0.0590
11349TIP3   OH255537   1.773   6.630  12.374  0.2224 -0.2998 -0.3162
11349TIP3    H155538   1.792   6.713  12.331 -1.3472 -0.1571 -0.7955
11349TIP3    H255539   1.678   6.630  12.388  0.4548 -1.0539  1.7070
11350TIP3   OH255540   2.130   5.770   3.147 -0.4262 -0.0611 -0.7338
11350TIP3    H155541   2.175   5.711   3.087 -2.3636 -0.8761 -1.4720
11350TIP3    H255542   2.144   5.731   3.233  1.5043  0.5451 -0.7321
11351TIP3   OH255543   1.661   4.490  11.418 -0.0855 -0.5759 -0.3826
11351TIP3    H155544   1.677   4.479  11.511  1.8327 -0.0468 -0.6119
11351TIP3    H255545   1.571   4.523  11.413 -0.7571 -2.0502  1.1586
11352TIP3   OH255546   1.884   5.748   1.158 -0.8926  0.5101 -0.0544
11352TIP3    H155547   1.798   5.707   1.166 -1.2180  0.8088 -1.6923
11352TIP3    H255548   1.920   5.714   1.077  0.4233  0.6384  0.4447
11353TIP3   OH255549   3.810   5.363   2.612  0.4029 -0.4892 -0.3028
11353TIP3    H155550   3.904   5.345   2.611  0.6098  0.5231 -0.2723
11353TIP3    H255551   3.798   5.437   2.553 -0.4141 -0.7461 -0.4814
11354TIP3   OH255552   1.864   0.306   0.892  0.3989  0.0986  0.1649
11354TIP3    H155553   1.834   0.381   0.943 -0.8248 -0.1403 -0.1701
11354TIP3    H255554   1.784   0.268   0.855  1.0292 -1.1270 -0.0090
11355TIP3   OH255555   1.033   2.783   2.309  0.4062 -0.3660 -0.0319
11355TIP3    H155556   1.023   2.858   2.368  0.6924 -1.1555  1.0436
11355TIP3    H255557   0.978   2.715   2.348  1.9305 -1.4571  0.2912
11356TIP3   OH255558   1.926   4.545   4.157 -0.1075  0.1398 -0.1814
11356TIP3    H155559   1.923   4.639   4.178  0.9865  0.5145 -1.5642
11356TIP3    H255560   1.834   4.519   4.150 -0.5446  0.4218  2.8880
11357TIP3   OH255561   3.674   5.934  10.411  0.0577 -0.3021  0.2994
11357TIP3    H155562   3.664   5.992  10.336 -0.9031 -1.0318 -0.1561
11357TIP3    H255563   3.624   5.856  10.388 -2.1250  0.2993  2.5622
11358TIP3   OH255564   5.490   4.305   5.124  0.2810 -0.4161 -0.2723
11358TIP3    H155565   5.481   4.382   5.068  1.8851  0.1120  0.1650
11358TIP3    H255566   5.475   4.338   5.212  1.3918 -0.5022 -0.0405
11359TIP3   OH255567   1.904   0.807   2.028 -0.0222 -0.0156  0.5173
11359TIP3    H155568   1.846   0.733   2.044 -0.9568  0.6784  0.4610
11359TIP3    H255569   1.890   0.829   1.935  0.4780  0.0379  0.4501
11360TIP3   OH255570   0.951   5.492   0.321 -0.2967 -0.7048  0.3585
11360TIP3    H155571   0.899   5.412   0.311 -0.4996 -1.0076  3.0479
11360TIP3    H255572   0.887   5.563   0.311 -0.4985 -0.9304 -0.0124
11361TIP3   OH255573   3.107   0.108  15.354 -0.2831 -0.0358 -0.9833
11361TIP3    H155574   3.101   0.203  15.365 -1.4169 -0.2232  0.3225
11361TIP3    H255575   3.070   0.091  15.268  0.3626  0.7408 -1.4226
11362TIP3   OH255576   6.515   2.912  10.268  0.4254  0.2444  0.2145
11362TIP3    H155577   6.440   2.952  10.225 -0.9880 -1.1172  1.2433
11362TIP3    H255578   6.579   2.899  10.199 -0.4353  1.1123 -0.7790
11363TIP3   OH255579   1.427   6.481   3.720  0.0238 -0.1606 -0.1677
11363TIP3    H155580   1.369   6.556   3.727  0.1850 -0.0901  0.5605
11363TIP3    H255581   1.470   6.490   3.635  0.9560  1.2435  0.4258
11364TIP3   OH255582   0.971   1.982   3.011 -0.3510 -0.0596  0.3347
11364TIP3    H155583   1.011   2.069   3.018 -0.4340  0.1432 -1.2708
11364TIP3    H255584   1.044   1.924   2.988 -0.7583  0.1711 -1.7751
11365TIP3   OH255585   0.728   4.339   2.016  0.0200 -0.4353 -0.0760
11365TIP3    H155586   0.779   4.338   1.934 -1.1128 -0.2408 -0.7955
11365TIP3    H255587   0.638   4.325   1.989 -0.5674  0.9706  1.0069
11366TIP3   OH255588   4.167   6.598  11.820  0.1333  0.0983 -0.4067
11366TIP3    H155589   4.101   6.660  11.787  1.0526  1.7237  0.6353
11366TIP3    H255590   4.249   6.627  11.780  1.1013  1.5026  2.2885
11367TIP3   OH255591   2.300   6.787  15.157 -0.5998  0.0048  0.1651
11367TIP3    H155592   2.308   6.876  15.192  1.5590 -0.5397  1.2392
11367TIP3    H255593   2.260   6.737  15.228  0.5334 -0.3717  0.5624
11368TIP3   OH255594   6.725   3.709   4.763 -0.5741 -0.0208 -0.5751
11368TIP3    H155595   6.805   3.751   4.794 -0.3999 -0.6415 -0.1584
11368TIP3    H255596   6.694   3.658   4.838 -0.8983 -0.4501 -0.9937
11369TIP3   OH255597   5.518   6.128   1.621 -0.0765  0.5621 -0.4364
11369TIP3    H155598   5.487   6.120   1.531 -1.0442 -0.6285 -0.0229
11369TIP3    H255599   5.477   6.208   1.654  0.0875  0.8697 -0.9603
11370TIP3   OH255600   3.848   6.340   5.744  0.0767  0.5464 -0.3490
11370TIP3    H155601   3.942   6.323   5.752 -0.3267 -1.7898  0.1606
11370TIP3    H255602   3.824   6.377   5.829  0.4415  0.7363 -0.3233
11371TIP3   OH255603   2.829   4.195  10.697  0.0456  0.6749  0.2855
11371TIP3    H155604   2.755   4.157  10.649  0.5999 -0.4484  0.2812
11371TIP3    H255605   2.880   4.240  10.631  0.8110 -0.8747 -0.2372
11372TIP3   OH255606   4.086   5.442   2.299 -0.0225 -0.1208  0.7709
11372TIP3    H155607   4.167   5.420   2.252 -1.8165 -0.1235 -2.6821
11372TIP3    H255608   4.078   5.537   2.288 -0.7359 -0.2020  0.5712
11373TIP3   OH255609   6.126   6.423   2.930  0.3624  0.0643 -0.3963
11373TIP3    H155610   6.203   6.420   2.987  1.0270  0.3986 -1.2659
11373TIP3    H255611   6.055   6.452   2.987  1.2492  1.4862  0.0216
11374TIP3   OH255612   5.309   6.334  13.481  0.0537 -0.8982 -0.0952
11374TIP3    H155613   5.269   6.346  13.568  1.1747 -2.1403  0.6203
11374TIP3    H255614   5.402   6.351  13.495  0.1173 -0.1814 -1.2809
11375TIP3   OH255615   5.770   6.108  15.298  0.2955  0.0120  0.5593
11375TIP3    H155616   5.851   6.159  15.306 -0.6240  1.3205  2.1615
11375TIP3    H255617   5.741   6.123  15.208  1.3506  0.2528  0.2455
11376TIP3   OH255618   6.984   0.761  13.510 -0.0497 -0.3028 -0.0472
11376TIP3    H155619   6.892   0.744  13.487 -0.1192 -0.0290  0.0119
11376TIP3    H255620   7.002   0.702  13.583  0.0806 -0.9630 -0.6113
11377TIP3   OH255621   6.009   5.403   5.114  0.4320  0.0517  0.2510
11377TIP3    H155622   5.932   5.375   5.163  0.0428  0.5544 -0.0571
11377TIP3    H255623   6.052   5.322   5.088 -1.1658 -0.3295 -1.4200
11378TIP3   OH255624   5.268   4.637   2.407  0.4465 -0.4490  0.2422
11378TIP3    H155625   5.196   4.611   2.350 -1.6110  1.5115  1.7734
11378TIP3    H255626   5.278   4.565   2.469 -1.7935  0.1493  1.3911
11379TIP3   OH255627   6.966   6.816   0.794 -0.2126  0.3671 -0.4186
11379TIP3    H155628   6.937   6.760   0.723  0.1656  0.3067 -0.5293
11379TIP3    H255629   6.949   6.765   0.873 -1.1306  0.6515 -0.4231
11380TIP3   OH255630   1.373   1.257   3.930 -0.4976  0.7392 -0.2428
11380TIP3    H155631   1.437   1.197   3.968  0.2955  0.8251 -1.3806
11380TIP3    H255632   1.307   1.268   3.998  0.5613  0.4433  0.8769
11381TIP3   OH255633   2.963   4.751  10.920  0.4025  0.1692 -0.0532
11381TIP3    H155634   2.918   4.667  10.923  0.4393  0.1699  0.7659
11381TIP3    H255635   2.984   4.770  11.011  0.0886  1.2318 -0.1859
11382TIP3   OH255636   3.900   0.551   4.295 -0.2675  0.2174  0.0246
11382TIP3    H155637   3.952   0.478   4.262 -0.1857  0.5515 -0.6142
11382TIP3    H255638   3.950   0.629   4.269 -2.2093  0.6807 -2.7696
11383TIP3   OH255639   1.338   2.055   4.616 -0.1380  0.2943  0.4957
11383TIP3    H155640   1.315   2.126   4.676 -0.4959 -0.2041  0.9569
11383TIP3    H255641   1.338   2.096   4.529  2.1041  1.4374  0.9616
11384TIP3   OH255642   6.853   4.904   5.118  0.2678 -0.4994  0.4015
11384TIP3    H155643   6.783   4.868   5.063 -1.4247  2.1658  0.6414
11384TIP3    H255644   6.819   4.895   5.208  0.2806  0.6760  0.5292
11385TIP3   OH255645   5.563   0.115   9.796  0.2004  0.5264 -0.0086
11385TIP3    H155646   5.613   0.136   9.717  2.0266 -0.5106  0.7871
11385TIP3    H255647   5.617   0.049   9.841 -1.7439 -0.3687  1.1213
11386TIP3   OH255648   0.910   5.683   1.302 -0.4552  0.0103 -0.3167
11386TIP3    H155649   0.996   5.723   1.291 -0.1609 -0.7602 -0.8719
11386TIP3    H255650   0.850   5.758   1.309  0.4399  0.6175  2.0024
11387TIP3   OH255651   6.664   0.484   2.644  0.3499 -0.1589  0.3063
11387TIP3    H155652   6.606   0.508   2.717 -0.7744 -1.3466 -0.1483
11387TIP3    H255653   6.650   0.552   2.579 -0.6823 -0.5174  0.1369
11388TIP3   OH255654   0.784   4.666   3.710 -0.1737 -0.7996 -0.4732
11388TIP3    H155655   0.847   4.596   3.692 -0.0457 -0.5543 -1.0313
11388TIP3    H255656   0.699   4.628   3.687 -0.4269 -1.6198  1.6623
11389TIP3   OH255657   7.045   5.500  11.427  0.1955 -0.5142 -0.3526
11389TIP3    H155658   7.109   5.534  11.489  0.5714  0.1848 -1.1066
11389TIP3    H255659   6.963   5.498  11.476  0.4951 -0.0242  0.1767
11390TIP3   OH255660   5.132   3.408   4.191  0.4180  0.1782 -0.3169
11390TIP3    H155661   5.097   3.355   4.119 -0.5330  0.5418 -0.1432
11390TIP3    H255662   5.058   3.417   4.251  1.3484 -0.6018  1.0050
11391TIP3   OH255663   4.282   4.271  11.726  0.1315  0.5039 -0.1633
11391TIP3    H155664   4.347   4.217  11.770  0.2568  0.9633  0.2333
11391TIP3    H255665   4.297   4.359  11.761 -0.6969  0.6143 -0.0613
11392TIP3   OH255666   1.666   6.628   3.176  0.4010  0.3104  0.0539
11392TIP3    H155667   1.683   6.696   3.111 -0.6074 -0.0383 -0.5894
11392TIP3    H255668   1.596   6.576   3.139  0.6447 -0.6415  0.8781
11393TIP3   OH255669   6.084   2.476   4.095  0.0208 -0.5161  0.2263
11393TIP3    H155670   6.055   2.402   4.042  0.4208 -1.5974  1.4985
11393TIP3    H255671   6.179   2.467   4.100  0.1372  0.4031 -0.0487
11394TIP3   OH255672   0.974   1.634   4.900  0.2362  0.5128 -0.0619
11394TIP3    H155673   1.049   1.655   4.956 -0.0898 -0.0252  0.5875
11394TIP3    H255674   0.921   1.714   4.902  0.7965  0.9130 -0.5584
11395TIP3   OH255675   1.223   4.634  12.660  0.2310  0.4663  0.4543
11395TIP3    H155676   1.209   4.546  12.623  2.2568  0.5952 -0.7857
11395TIP3    H255677   1.218   4.692  12.584 -0.6078  1.3868  1.1970
11396TIP3   OH255678   1.057   4.605  15.717  0.2109 -0.0861 -0.0336
11396TIP3    H155679   0.975   4.560  15.738 -0.9462  0.9931 -1.9550
11396TIP3    H255680   1.073   4.582  15.625  1.2951  0.8732 -0.0966
11397TIP3   OH255681   2.937   5.358   2.114  0.2780 -0.6090 -0.0160
11397TIP3    H155682   2.948   5.436   2.060 -0.9869 -0.7064 -0.4629
11397TIP3    H255683   3.001   5.367   2.184  0.4502  0.6108 -0.3130
11398TIP3   OH255684   1.327   6.054  15.315  0.0407 -0.2183  0.4856
11398TIP3    H155685   1.318   5.960  15.325  1.2237 -0.2957  0.9902
11398TIP3    H255686   1.241   6.089  15.341 -0.1352 -1.0962  1.1456
11399TIP3   OH255687   3.120   6.414  13.754 -0.5100 -0.3096 -0.7531
11399TIP3    H155688   3.124   6.319  13.764 -1.5242 -0.2805  0.1420
11399TIP3    H255689   3.032   6.431  13.719 -0.9269  0.3800  0.5519
11400TIP3   OH255690   5.732   0.303  14.414  0.0462 -0.3637 -0.1950
11400TIP3    H155691   5.660   0.349  14.370  0.9986  1.1824 -0.2303
11400TIP3    H255692   5.732   0.216  14.376 -0.7481  0.1469 -1.4155
11401TIP3   OH255693   2.845   2.853  11.424  0.4916 -0.3025 -0.4571
11401TIP3    H155694   2.864   2.875  11.515 -0.3415 -0.4782 -0.2325
11401TIP3    H255695   2.872   2.761  11.415  0.2437 -0.3923 -0.2873
11402TIP3   OH255696   0.440   0.779  10.840  0.0203  0.7990 -0.3997
11402TIP3    H155697   0.407   0.841  10.776  0.6707  0.8841 -0.6630
11402TIP3    H255698   0.410   0.693  10.809  0.8916  0.7630 -1.2058
11403TIP3   OH255699   4.187   4.444  10.141  0.4237  0.0056 -0.2829
11403TIP3    H155700   4.148   4.389  10.209  1.1643  0.1962  0.3148
11403TIP3    H255701   4.178   4.393  10.060 -1.7319  0.3772 -0.3381
11404TIP3   OH255702   0.162   3.342   0.974 -0.8047  0.6187 -0.4812
11404TIP3    H155703   0.087   3.399   0.960  0.1393  1.5399 -2.0432
11404TIP3    H255704   0.219   3.392   1.033 -1.5612 -0.2749  1.0935
11405TIP3   OH255705   0.813   3.367  13.210 -0.3738  0.0403  0.0247
11405TIP3    H155706   0.848   3.360  13.121 -0.3633  0.2819  0.0093
11405TIP3    H255707   0.888   3.350  13.267 -0.3354  0.0973 -0.0102
11406TIP3   OH255708   3.565   4.798   3.979  0.1837 -0.0135  0.3182
11406TIP3    H155709   3.643   4.843   4.012  0.6746 -1.6182  1.4927
11406TIP3    H255710   3.598   4.715   3.945 -0.5473  0.8341 -2.7583
11407TIP3   OH255711   3.949   4.300  15.107 -0.0626 -0.0173 -0.8137
11407TIP3    H155712   3.995   4.284  15.190 -2.1177  2.5082  0.9633
11407TIP3    H255713   3.887   4.227  15.100 -0.2317  0.0136  0.1700
11408TIP3   OH255714   6.461   4.060   2.242 -0.2360  0.2248 -0.6829
11408TIP3    H155715   6.387   4.053   2.302 -0.0368 -0.3319 -0.4990
11408TIP3    H255716   6.536   4.079   2.299 -0.3433  1.5005 -0.9313
11409TIP3   OH255717   3.643   3.773  10.636 -0.0165  0.0395 -0.5891
11409TIP3    H155718   3.703   3.705  10.603 -0.3984 -0.2233 -0.7520
11409TIP3    H255719   3.648   3.765  10.731 -1.3809 -1.4147 -0.5986
11410TIP3   OH255720   4.854   7.120  13.105 -0.8220  0.3186  0.6219
11410TIP3    H155721   4.814   7.099  13.190  0.5982 -1.4017  0.9343
11410TIP3    H255722   4.809   7.062  13.043 -0.4370  0.0744  0.5706
11411TIP3   OH255723   3.863   3.796  12.039  0.4120  0.7675 -0.7004
11411TIP3    H155724   3.904   3.880  12.015  1.6670  0.2279 -0.4983
11411TIP3    H255725   3.836   3.808  12.130 -0.6950  1.4119 -1.0783
11412TIP3   OH255726   6.884   5.249   0.986  0.3386 -0.0994 -0.6119
11412TIP3    H155727   6.977   5.232   0.998  0.0871 -0.9018  0.3461
11412TIP3    H255728   6.854   5.281   1.071 -0.4559 -0.8134 -0.6056
11413TIP3   OH255729   5.143   2.408   4.747  0.0077  0.2185  0.0274
11413TIP3    H155730   5.052   2.425   4.722 -0.0936  1.4580  1.0886
11413TIP3    H255731   5.182   2.495   4.753  0.8232 -0.2031  1.1375
11414TIP3   OH255732   6.060   4.915   9.622 -0.5864  0.2336 -0.3356
11414TIP3    H155733   6.034   5.001   9.654 -0.7669 -0.5331  1.7393
11414TIP3    H255734   6.119   4.881   9.689 -1.9628 -1.9778 -0.1322
11415TIP3   OH255735   2.941   5.190  10.445 -0.3528 -0.0655  0.0072
11415TIP3    H155736   2.882   5.240  10.387  0.0074  0.4455  0.0814
11415TIP3    H255737   2.888   5.114  10.471 -1.5241  1.1213  1.2519
11416TIP3   OH255738   4.847   5.785   4.874 -0.0347 -0.1991 -0.6296
11416TIP3    H155739   4.864   5.836   4.954 -2.6610 -1.2934  0.7194
11416TIP3    H255740   4.782   5.837   4.826 -1.8043 -1.5893  0.1628
11417TIP3   OH255741   1.007   1.048  15.664  0.1770 -0.2367  0.1745
11417TIP3    H155742   1.019   0.995  15.585  0.0480  0.7040 -0.5020
11417TIP3    H255743   1.021   0.987  15.736 -2.2767 -1.7864 -0.5087
11418TIP3   OH255744   4.269   2.455   2.007  0.5893  0.8388 -0.3154
11418TIP3    H155745   4.229   2.368   2.011  2.2455  0.0587  0.5477
11418TIP3    H255746   4.235   2.501   2.084 -0.2527  0.9483 -0.7459
11419TIP3   OH255747   4.759   6.542   1.581 -0.9428  0.1757 -0.0772
11419TIP3    H155748   4.787   6.630   1.559  4.2100 -1.2265 -0.4376
11419TIP3    H255749   4.707   6.553   1.661  2.6686  3.4191  2.1967
11420TIP3   OH255750   3.118   4.533  14.155  0.7858  0.2890  0.0994
11420TIP3    H155751   3.125   4.570  14.067  2.2614  0.9136  0.4510
11420TIP3    H255752   3.133   4.608  14.213  0.3964 -0.2291  0.8721
11421TIP3   OH255753   1.215   1.212   1.661  0.4240  0.7571 -1.0398
11421TIP3    H155754   1.129   1.183   1.631 -0.2052  0.9979  0.4361
11421TIP3    H255755   1.218   1.306   1.640  0.9783  0.4446 -2.4831
11422TIP3   OH255756   6.514   5.477  11.337  0.3400 -0.0384 -0.2027
11422TIP3    H155757   6.538   5.448  11.425 -0.8291 -0.8770 -0.1365
11422TIP3    H255758   6.422   5.452  11.327  0.4614 -0.0072 -1.6862
11423TIP3   OH255759   6.089   0.935   0.927  0.3668 -0.5590  0.0001
11423TIP3    H155760   6.063   0.896   0.844  2.0624 -3.3035  0.6461
11423TIP3    H255761   6.182   0.916   0.935  1.0494  2.5784  1.0570
11424TIP3   OH255762   2.487   1.987  11.856  0.2315 -0.1992 -0.4468
11424TIP3    H155763   2.394   2.011  11.860  0.4486  0.9304 -1.4504
11424TIP3    H255764   2.524   2.025  11.936  0.2066  1.3025 -1.1021
11425TIP3   OH255765   5.157   6.900  11.999  0.6625  0.5699 -0.3883
11425TIP3    H155766   5.086   6.924  12.059  0.7582  1.0146 -0.4525
11425TIP3    H255767   5.170   6.806  12.014 -0.5104  0.2907 -0.9758
11426TIP3   OH255768   6.173   5.225   5.565  0.0616 -0.0168  0.2718
11426TIP3    H155769   6.077   5.223   5.562  0.0880 -1.0018 -0.6952
11426TIP3    H255770   6.198   5.150   5.618  0.3006  1.0112  1.6772
11427TIP3   OH255771   5.486   1.675  11.503  0.5190 -0.2240 -0.0823
11427TIP3    H155772   5.454   1.585  11.492  1.1287 -0.7518  1.9619
11427TIP3    H255773   5.415   1.721  11.548  1.4884 -0.6818  2.0458
11428TIP3   OH255774   4.323   1.009   0.540  0.3350  0.5551  0.4212
11428TIP3    H155775   4.377   0.963   0.476  0.5943  1.2925  0.0904
11428TIP3    H255776   4.257   0.946   0.566  1.2998 -0.3425  0.7583
11429TIP3   OH255777   1.847   3.562   3.873  0.0807  0.0102 -0.4309
11429TIP3    H155778   1.778   3.514   3.827 -1.5332  1.9431 -0.2006
11429TIP3    H255779   1.891   3.497   3.927 -1.1367 -1.4187 -1.1053
11430TIP3   OH255780   6.099   1.605  15.008  0.4461  0.2346  0.4498
11430TIP3    H155781   6.067   1.685  14.967  0.3027 -0.7421 -1.4227
11430TIP3    H255782   6.151   1.636  15.083 -0.7256  2.0011  0.5850
11431TIP3   OH255783   3.250   3.461   4.461  0.3429 -0.1179 -1.3774
11431TIP3    H155784   3.166   3.438   4.501  1.2800  2.0052  2.2740
11431TIP3    H255785   3.303   3.382   4.469  0.0109 -0.2090  0.4697
11432TIP3   OH255786   0.351   0.428  15.339  0.4016 -0.3014  0.4530
11432TIP3    H155787   0.394   0.496  15.391  0.0186 -0.8811  1.5542
11432TIP3    H255788   0.262   0.461  15.325  0.5479 -0.0781  0.0163
11433TIP3   OH255789   3.924   6.722  11.194 -0.3092  0.6313  0.0707
11433TIP3    H155790   3.886   6.756  11.275  0.4836 -0.9856  1.1783
11433TIP3    H255791   3.872   6.644  11.174  1.3204 -0.6744  0.7012
11434TIP3   OH255792   0.658   6.114   0.387  0.0257  0.3409  0.4333
11434TIP3    H155793   0.684   6.185   0.445 -1.1412  0.9030  0.3031
11434TIP3    H255794   0.693   6.139   0.302 -0.5193  0.8635  0.3529
11435TIP3   OH255795   5.135   2.246   1.262 -0.1464 -0.2163 -0.0154
11435TIP3    H155796   5.056   2.246   1.208 -0.0608 -2.0947 -0.2044
11435TIP3    H255797   5.159   2.154   1.270  0.9068  0.1556  1.7002
11436TIP3   OH255798   3.831   5.615   1.737  0.2660  0.6677  0.6321
11436TIP3    H155799   3.760   5.569   1.782  1.8402 -0.3270  2.2066
11436TIP3    H255800   3.876   5.663   1.807  0.6632  1.9901 -0.4796
11437TIP3   OH255801   6.783   3.214   0.781 -0.1767 -0.1437  0.0682
11437TIP3    H155802   6.782   3.193   0.688 -0.9602  1.4969 -0.3279
11437TIP3    H255803   6.872   3.195   0.810  0.4476  0.5573 -1.3282
11438TIP3   OH255804   0.588   0.555  13.001  0.5442 -0.0474 -0.2200
11438TIP3    H155805   0.598   0.631  12.944  0.6663  1.0498  1.1920
11438TIP3    H255806   0.674   0.544  13.042 -0.2492  1.0416  1.9072
11439TIP3   OH255807   5.165   0.898  11.478 -0.0783  0.3681 -0.3506
11439TIP3    H155808   5.098   0.953  11.436 -0.8513  0.6699  1.1854
11439TIP3    H255809   5.196   0.841  11.408 -3.5224 -1.3133 -0.7521
11440TIP3   OH255810   6.267   0.799   1.708 -0.0622  0.2799  0.0316
11440TIP3    H155811   6.342   0.741   1.715 -0.6016 -0.2946  1.4467
11440TIP3    H255812   6.201   0.747   1.663 -0.7433 -0.4781  1.8054
11441TIP3   OH255813   5.104   4.080  10.233 -0.0245 -0.9686  0.0792
11441TIP3    H155814   5.067   4.024  10.302 -0.6558 -0.0987  0.4702
11441TIP3    H255815   5.082   4.036  10.151 -0.8872 -1.0794  0.3634
11442TIP3   OH255816   0.962   3.526   4.378  0.2214  0.2884  0.0266
11442TIP3    H155817   1.024   3.456   4.397  1.2816  1.6831  2.1916
11442TIP3    H255818   0.881   3.501   4.423  0.6158  0.4588  0.8380
11443TIP3   OH255819   5.784   3.723   3.543  0.3348  0.0096 -0.0794
11443TIP3    H155820   5.804   3.804   3.589 -0.0668  0.1034 -0.0692
11443TIP3    H255821   5.870   3.690   3.514  0.6305 -0.2316  1.0320
11444TIP3   OH255822   5.038   2.110   3.703  0.2496 -0.0062 -0.0754
11444TIP3    H155823   4.965   2.076   3.652  0.9208 -3.9131  1.1708
11444TIP3    H255824   5.114   2.098   3.647  0.5550 -1.1313  0.5425
11445TIP3   OH255825   1.489   4.150  10.163  0.3465 -0.3355  0.2220
11445TIP3    H155826   1.486   4.055  10.163  0.9437 -0.3637 -0.5011
11445TIP3    H255827   1.481   4.174  10.071 -3.2087  0.4631  0.5925
11446TIP3   OH255828   6.411   4.657   4.284  0.0869 -0.7990  0.1507
11446TIP3    H155829   6.484   4.599   4.264 -0.8167 -1.3253 -1.9155
11446TIP3    H255830   6.450   4.728   4.336  1.9613 -1.3107 -0.4696
11447TIP3   OH255831   5.763   5.995   5.976 -0.1267 -0.2014  0.0684
11447TIP3    H155832   5.849   6.036   5.982 -0.2752  0.2805 -0.8691
11447TIP3    H255833   5.778   5.903   5.998  0.3588  0.1835  1.4062
11448TIP3   OH255834   5.002   5.814  14.903 -0.8196  0.4433  0.0657
11448TIP3    H155835   4.982   5.903  14.874 -0.5898 -0.1313 -1.9862
11448TIP3    H255836   5.058   5.826  14.979 -0.2138  2.0581 -0.5973
11449TIP3   OH255837   6.977   7.002  13.172  0.2754 -0.1162 -0.0379
11449TIP3    H155838   6.996   6.980  13.264 -1.5536 -0.5334  0.2879
11449TIP3    H255839   6.922   7.080  13.178  0.1757 -0.1299 -0.7884
11450TIP3   OH255840   0.922   1.814  10.590  0.0146 -0.0486 -0.5974
11450TIP3    H155841   0.828   1.815  10.574  0.1034 -0.6270 -1.1847
11450TIP3    H255842   0.958   1.881  10.531 -0.2360  1.7412  1.1636
11451TIP3   OH255843   2.455   1.773   0.806  0.0833  0.0750  0.0504
11451TIP3    H155844   2.504   1.706   0.854  0.6836  1.9438  2.1888
11451TIP3    H255845   2.522   1.829   0.766 -0.3624  0.6702  0.1174
11452TIP3   OH255846   4.309   5.302   2.177  0.5901  0.1695  0.0287
11452TIP3    H155847   4.335   5.220   2.136 -0.1355 -0.1558  0.2145
11452TIP3    H255848   4.382   5.362   2.159  1.5020 -0.7465  0.6080
11453TIP3   OH255849   2.067   3.512   0.064 -0.7231 -0.1682 -0.5434
11453TIP3    H155850   2.090   3.602   0.087  2.5559 -1.3119  1.2608
11453TIP3    H255851   2.096   3.502  -0.026  1.7877 -0.1810  0.1985
11454TIP3   OH255852   1.958   5.114  11.487  0.0120 -0.1805 -0.0730
11454TIP3    H155853   1.963   5.082  11.397  0.0483  0.5637 -0.3471
11454TIP3    H255854   2.047   5.107  11.520 -0.4680 -3.1239  0.8983
11455TIP3   OH255855   5.111   5.885   2.227  0.1967  0.6651  0.0001
11455TIP3    H155856   5.124   5.820   2.297 -0.9641 -1.1903 -1.4317
11455TIP3    H255857   5.198   5.895   2.188  0.1281 -1.2950 -0.7725
11456TIP3   OH255858   2.516   1.523  10.822 -0.1288  0.0236  0.6335
11456TIP3    H155859   2.593   1.539  10.877  2.0613  0.9845 -2.4654
11456TIP3    H255860   2.547   1.461  10.756 -2.0581  0.4031 -0.6862
11457TIP3   OH255861   6.398   0.267  10.125 -0.0880 -0.5340  0.2893
11457TIP3    H155862   6.347   0.196  10.086 -0.3029 -0.2542  0.0475
11457TIP3    H255863   6.489   0.238  10.120 -0.2217 -1.0381  0.7193
11458TIP3   OH255864   6.550   4.505  15.634 -0.2141  0.2263  0.2763
11458TIP3    H155865   6.470   4.535  15.592  0.4376  1.5915 -0.0563
11458TIP3    H255866   6.543   4.534  15.725 -0.3866 -0.2344  0.4101
11459TIP3   OH255867   2.061   5.364   2.407  0.4069 -0.4100 -0.3856
11459TIP3    H155868   2.146   5.357   2.366  2.0209  0.9871  2.3973
11459TIP3    H255869   2.074   5.330   2.496 -1.8131  0.1894  0.2490
11460TIP3   OH255870   5.609   1.934   3.203  0.3088 -0.3675 -0.1168
11460TIP3    H155871   5.625   1.998   3.272 -2.1207  0.1439  0.0857
11460TIP3    H255872   5.631   1.850   3.242  0.7499  0.0805  0.6238
11461TIP3   OH255873   1.964   2.407   3.791 -0.1461  0.3231 -0.2181
11461TIP3    H155874   1.888   2.391   3.735 -1.1392  1.5316  0.7305
11461TIP3    H255875   2.014   2.473   3.745  2.2786 -2.8122 -2.5629
11462TIP3   OH255876   2.212   2.833   5.542 -0.3093 -0.6120  0.1849
11462TIP3    H155877   2.268   2.849   5.618  0.3968 -1.1626 -0.2116
11462TIP3    H255878   2.132   2.882   5.560  0.8406  1.3851  0.1158
11463TIP3   OH255879   6.628   5.733   3.549  0.3224 -0.4443  0.2470
11463TIP3    H155880   6.623   5.638   3.540  0.6768 -0.3078 -2.2469
11463TIP3    H255881   6.718   5.751   3.574  0.1409 -0.7638  1.1586
11464TIP3   OH255882   3.187   5.843  15.533 -0.1502  0.9752  0.8897
11464TIP3    H155883   3.247   5.899  15.584  1.1753  0.7216 -0.3377
11464TIP3    H255884   3.243   5.775  15.497 -1.0379  1.1365 -0.8920
11465TIP3   OH255885   2.299   1.896   2.567  0.1069 -0.2798 -0.5294
11465TIP3    H155886   2.381   1.941   2.547 -0.2290  1.0684  0.9409
11465TIP3    H255887   2.239   1.924   2.498  0.6320 -0.5634 -1.1059
11466TIP3   OH255888   3.096   3.148   4.857 -0.5685  0.0783  0.3720
11466TIP3    H155889   3.067   3.057   4.849 -0.5218 -0.1236  2.1123
11466TIP3    H255890   3.021   3.199   4.829 -1.6468 -0.4852  2.0932
11467TIP3   OH255891   0.522   5.212   5.123  0.2259 -0.8556 -0.6267
11467TIP3    H155892   0.560   5.277   5.064 -1.8585  1.2125  0.1477
11467TIP3    H255893   0.536   5.247   5.211 -0.1703 -1.8944 -0.1279
11468TIP3   OH255894   1.273   2.663   0.957 -0.1822  0.0957 -0.4233
11468TIP3    H155895   1.191   2.705   0.981  0.3014 -0.2464  2.0426
11468TIP3    H255896   1.251   2.570   0.953 -0.2876  0.1563 -1.5800
11469TIP3   OH255897   5.955   0.939  14.860  0.5594  0.0905  0.5273
11469TIP3    H155898   5.892   0.924  14.931  1.5099 -1.3035  1.1308
11469TIP3    H255899   5.908   0.914  14.781 -0.2975  1.0192  0.7234
11470TIP3   OH255900   5.580   3.585   2.616 -0.1667 -0.0230  0.1474
11470TIP3    H155901   5.558   3.645   2.545  0.2347  0.6980  0.6182
11470TIP3    H255902   5.536   3.621   2.693 -1.3507 -1.2907  0.1109
11471TIP3   OH255903   4.599   0.476   0.823 -0.0944  0.3005 -0.4981
11471TIP3    H155904   4.590   0.565   0.789 -2.8649  0.1119 -0.4857
11471TIP3    H255905   4.608   0.421   0.744 -2.0672  0.2825 -0.7425
11472TIP3   OH255906   1.308   5.906   2.012  0.2982  0.3966  0.2845
11472TIP3    H155907   1.352   5.822   2.000  2.7429  1.5639  0.5339
11472TIP3    H255908   1.250   5.913   1.936  0.9199 -0.9842 -0.3642
11473TIP3   OH255909   3.514   3.395  15.097  0.5430 -0.1160 -0.3220
11473TIP3    H155910   3.431   3.438  15.081  0.0870 -0.2746  1.3907
11473TIP3    H255911   3.579   3.465  15.094  0.1339  0.2754 -0.0855
11474TIP3   OH255912   2.511   0.653   3.870  0.0855 -0.4935 -0.1438
11474TIP3    H155913   2.474   0.735   3.838  2.6299  0.4621 -0.8340
11474TIP3    H255914   2.511   0.663   3.965  1.0475  0.6552 -0.2407
11475TIP3   OH255915   2.648   6.730   0.341  0.4713 -0.5748  0.3945
11475TIP3    H155916   2.575   6.790   0.326  0.5918 -0.2760  0.9941
11475TIP3    H255917   2.691   6.724   0.256  0.1797 -0.1871  0.2143
11476TIP3   OH255918   3.298   0.673   4.265  0.2757  0.4690  0.3073
11476TIP3    H155919   3.277   0.753   4.217  0.3462  1.1396  1.3506
11476TIP3    H255920   3.212   0.635   4.285  0.2444  0.2377 -0.2628
11477TIP3   OH255921   3.275   6.889   5.825  0.3624 -0.2018  0.1234
11477TIP3    H155922   3.190   6.851   5.847  0.2094 -0.6719 -1.2029
11477TIP3    H255923   3.293   6.950   5.897 -2.4698  2.1756 -0.9918
11478TIP3   OH255924   3.066   6.584   4.629  0.2796 -0.2220  0.7318
11478TIP3    H155925   3.152   6.599   4.590  0.0697 -0.5876  0.1097
11478TIP3    H255926   3.060   6.489   4.640 -1.3890 -0.6493 -2.5409
11479TIP3   OH255927   6.469   5.371  13.278 -0.1988 -0.2547  0.7022
11479TIP3    H155928   6.431   5.284  13.263 -3.3861  1.0549  0.4628
11479TIP3    H255929   6.452   5.419  13.197  0.1571  1.0453  1.3794
11480TIP3   OH255930   6.017   6.762   0.622 -0.4394 -0.6298  0.2881
11480TIP3    H155931   6.036   6.705   0.548  0.9707 -0.7801  0.7254
11480TIP3    H255932   5.923   6.776   0.618 -0.6440 -2.0127 -0.5310
11481TIP3   OH255933   3.797   3.679   2.119  0.3865  0.6233 -0.2503
11481TIP3    H155934   3.713   3.650   2.085  0.0516  0.6200  0.5508
11481TIP3    H255935   3.786   3.677   2.214  2.4728 -3.2195  0.1516
11482TIP3   OH255936   4.981   4.226  15.671 -0.2050  0.8179  0.2974
11482TIP3    H155937   4.959   4.150  15.617  0.5767 -0.1841  1.3251
11482TIP3    H255938   4.913   4.229  15.738 -1.4752  2.3749 -0.9787
11483TIP3   OH255939   0.324   7.127   0.379  0.4666 -0.2126 -1.0114
11483TIP3    H155940   0.359   7.049   0.422  0.5238  0.1459 -0.3973
11483TIP3    H255941   0.393   7.193   0.388 -0.3708  0.5259  0.2917
11484TIP3   OH255942   6.882   5.588   0.122  0.0868  0.7745  0.0540
11484TIP3    H155943   6.922   5.567   0.037  0.5111  3.2597 -0.4384
11484TIP3    H255944   6.917   5.675   0.144  0.3379  0.0193  3.0198
11485TIP3   OH255945   4.913   2.019  15.179 -0.4043  0.2491 -0.2908
11485TIP3    H155946   4.848   1.964  15.221 -2.4399  0.7713 -2.5319
11485TIP3    H255947   4.968   2.051  15.251 -2.2844 -0.6347  1.6376
11486TIP3   OH255948   3.486   0.482   4.336 -0.1555  0.3021  0.8719
11486TIP3    H155949   3.408   0.537   4.343  1.0276  2.3051 -0.6835
11486TIP3    H255950   3.546   0.532   4.281  0.4094 -3.2403 -2.1286
11487TIP3   OH255951   3.920   2.217   4.879  0.1366  0.6376 -0.9904
11487TIP3    H155952   4.004   2.246   4.843  0.5075  1.0200  0.1477
11487TIP3    H255953   3.929   2.227   4.973 -1.9800  2.9382 -0.9240
11488TIP3   OH255954   4.735   1.271   3.454  0.1300 -0.2522 -0.2841
11488TIP3    H155955   4.672   1.218   3.503  0.0867  0.8505  0.8967
11488TIP3    H255956   4.685   1.307   3.381 -0.0342 -1.1678 -0.6425
11489TIP3   OH255957   4.494   3.507   2.249 -0.1153  0.2607  0.0594
11489TIP3    H155958   4.448   3.582   2.211 -0.1593  0.8804  1.3045
11489TIP3    H255959   4.486   3.519   2.343 -0.1522 -1.3394  0.2845
11490TIP3   OH255960   4.509   1.057  12.336 -0.4132  0.4642 -0.0795
11490TIP3    H155961   4.457   1.106  12.400  0.1048  0.8851  0.0335
11490TIP3    H255962   4.445   1.008  12.285 -0.7349 -1.3920  1.9848
11491TIP3   OH255963   5.396   2.108  15.470  0.1520 -0.1772 -0.7741
11491TIP3    H155964   5.407   2.189  15.519  1.8154  0.0984 -1.5486
11491TIP3    H255965   5.396   2.039  15.537  1.2669  0.2795 -0.2861
11492TIP3   OH255966   0.369   4.766   1.192  0.0409  0.0080 -0.1188
11492TIP3    H155967   0.405   4.851   1.219 -1.2029  0.1999  1.0705
11492TIP3    H255968   0.412   4.747   1.109 -0.2256  2.2057 -0.8349
11493TIP3   OH255969   0.887   2.521  15.463 -0.3194 -0.1205  0.2191
11493TIP3    H155970   0.811   2.468  15.438  0.8443 -1.2255 -1.1700
11493TIP3    H255971   0.939   2.527  15.383  0.8904  0.9166  1.0452
11494TIP3   OH255972   4.892   0.086  14.737 -0.0843  0.1148  0.1384
11494TIP3    H155973   4.808   0.072  14.781  0.0190 -1.4038 -0.0961
11494TIP3    H255974   4.943   0.139  14.798  0.1754 -2.1891  2.0780
11495TIP3   OH255975   1.338   2.512  14.400 -0.3921 -0.3010  0.1724
11495TIP3    H155976   1.432   2.498  14.415 -0.3182  0.1811  0.1916
11495TIP3    H255977   1.314   2.445  14.336  0.4585  0.8807 -1.4734
11496TIP3   OH255978   4.965   6.966   2.239 -0.3860 -0.2923 -0.5052
11496TIP3    H155979   5.000   6.880   2.263 -0.8185 -0.5609 -0.8097
11496TIP3    H255980   4.901   6.986   2.308  0.1518  0.0644 -0.1068
11497TIP3   OH255981   6.172   4.967  15.688 -0.2232 -0.6048  0.1509
11497TIP3    H155982   6.228   5.038  15.659 -1.3206  0.0357 -0.4595
11497TIP3    H255983   6.092   4.975  15.635 -1.6064 -0.4461  2.1251
11498TIP3   OH255984   2.107   6.786  15.541 -0.6218  0.7709 -0.7408
11498TIP3    H155985   2.143   6.737  15.467  0.0816  0.6161 -0.3030
11498TIP3    H255986   2.120   6.729  15.617 -1.7823  0.7182 -0.5547
11499TIP3   OH255987   5.094   5.850   4.492  0.8519  0.8495  0.2991
11499TIP3    H155988   5.005   5.884   4.483  0.4138 -0.0742  1.0169
11499TIP3    H255989   5.085   5.755   4.484  1.2420  0.4027  3.6867
11500TIP3   OH255990   2.045   5.351  14.834  0.2634 -0.8012  0.1932
11500TIP3    H155991   2.108   5.318  14.770  1.4291 -0.9433  1.3537
11500TIP3    H255992   2.074   5.441  14.851  1.3288 -1.4380  2.0679
11501TIP3   OH255993   3.481   3.845   1.675 -0.2340 -0.0178  0.0940
11501TIP3    H155994   3.558   3.896   1.701  1.1832 -1.2724 -1.4722
11501TIP3    H255995   3.480   3.849   1.580 -3.4601  1.8214  0.0470
11502TIP3   OH255996   6.280   0.730   2.938 -0.2328 -0.3079  0.4446
11502TIP3    H155997   6.201   0.738   2.884  0.3720  1.4102 -0.2536
11502TIP3    H255998   6.258   0.775   3.019  0.6997  2.2365 -0.6116
11503TIP3   OH255999   5.253   3.765   3.304  0.2761 -0.0584 -0.1313
11503TIP3    H156000   5.230   3.748   3.213  0.8526 -0.9928 -0.1123
11503TIP3    H256001   5.345   3.789   3.302 -0.0265  1.1724  0.0756
11504TIP3   OH256002   5.237   0.854  15.291  0.6726 -0.1678  0.0130
11504TIP3    H156003   5.331   0.847  15.276  0.4674 -1.4270 -0.8245
11504TIP3    H256004   5.200   0.876  15.205  0.2793  1.3784  0.5438
11505TIP3   OH256005   2.583   0.056  10.506  0.0113  0.6980  0.2399
11505TIP3    H156006   2.517   0.113  10.469  0.0001  0.7049  0.2704
11505TIP3    H256007   2.657   0.062  10.446  0.4415  1.6291  0.8441
11506TIP3   OH256008   1.278   0.881   5.014  0.1929 -0.2169 -0.5828
11506TIP3    H156009   1.314   0.891   4.926  0.3605  1.1525 -0.3909
11506TIP3    H256010   1.208   0.817   5.005 -1.3015  1.5338 -2.2153
11507TIP3   OH256011   5.206   4.148  11.492  0.5940 -0.0816  0.1762
11507TIP3    H156012   5.227   4.069  11.542  1.8082  0.4172  0.4993
11507TIP3    H256013   5.195   4.216  11.558 -2.6632 -0.3654  0.0739
11508TIP3   OH256014   3.627   5.343   0.472  0.3833  0.1627 -0.2259
11508TIP3    H156015   3.617   5.300   0.387  1.0832 -0.5773  0.0519
11508TIP3    H256016   3.558   5.307   0.526 -0.7678  1.4530 -0.7756
11509TIP3   OH256017   0.213   5.369   2.840 -0.5548 -0.4156 -0.3107
11509TIP3    H156018   0.189   5.346   2.929 -0.2909  0.3707 -0.0297
11509TIP3    H256019   0.253   5.289   2.804  2.1899  0.1168  1.2813
11510TIP3   OH256020   3.093   3.828  15.351  0.3516 -0.2264 -0.1730
11510TIP3    H156021   3.098   3.839  15.256  1.9408 -1.2214 -0.2388
11510TIP3    H256022   3.113   3.735  15.366 -1.7539 -0.5404  1.0318
11511TIP3   OH256023   4.854   4.719   4.926 -0.1497  0.1815  0.7831
11511TIP3    H156024   4.931   4.667   4.903 -0.2620  0.1676  0.4229
11511TIP3    H256025   4.821   4.752   4.842 -2.1856 -2.1084  0.5775
11512TIP3   OH256026   0.415   5.513   0.222  0.5970 -0.7945 -0.3225
11512TIP3    H156027   0.419   5.558   0.307  2.7816 -2.3351  0.4728
11512TIP3    H256028   0.493   5.541   0.176 -0.4295 -0.1976 -1.7847
11513TIP3   OH256029   2.129   0.072  12.855 -0.4031 -0.2372  0.3402
11513TIP3    H156030   2.160  -0.018  12.848 -0.8854 -0.4753  1.1251
11513TIP3    H256031   2.209   0.124  12.865 -0.0362 -0.4254 -1.3211
11514TIP3   OH256032   1.812   6.134   0.599 -0.2133  0.5862  0.4704
11514TIP3    H156033   1.731   6.086   0.582 -0.7500  1.7042 -0.3148
11514TIP3    H256034   1.840   6.165   0.513  0.4577  1.1227  0.8689
11515TIP3   OH256035   4.700   6.773   5.495  0.4949  0.5561 -0.2075
11515TIP3    H156036   4.678   6.701   5.554 -1.1506  0.1236 -1.2965
11515TIP3    H256037   4.687   6.852   5.547 -1.1621  0.1892 -0.0331
11516TIP3   OH256038   0.789   0.262   4.567  0.6628  0.2530  0.4430
11516TIP3    H156039   0.767   0.242   4.658  0.0753 -2.8095 -0.2595
11516TIP3    H256040   0.885   0.266   4.566  0.7743 -1.4671  0.9378
11517TIP3   OH256041   2.102   3.294   3.467  0.1916  0.2151 -0.3260
11517TIP3    H156042   2.094   3.355   3.393  0.2408  0.0125 -0.4974
11517TIP3    H256043   2.149   3.219   3.432  0.0786  0.0503 -0.1281
11518TIP3   OH256044   5.449   3.990  14.750 -0.1255  0.4039 -0.9727
11518TIP3    H156045   5.532   3.943  14.747  1.1009  2.4540 -0.8875
11518TIP3    H256046   5.428   3.995  14.844 -0.5284 -0.3590 -1.0107
11519TIP3   OH256047   4.900   5.927   3.824 -0.1049  0.2108 -0.0440
11519TIP3    H156048   4.943   5.883   3.897 -1.8995 -2.0440 -0.2066
11519TIP3    H256049   4.910   6.020   3.841  1.5351 -0.2594  1.8200
11520TIP3   OH256050   1.303   0.956  10.698 -0.1365 -0.0309  0.0790
11520TIP3    H156051   1.317   0.973  10.605 -0.5381 -0.3241 -0.0371
11520TIP3    H256052   1.391   0.949  10.735  0.0221 -0.8656 -0.4539
11521TIP3   OH256053   4.713   5.263   5.906  0.1754 -0.2007 -0.2978
11521TIP3    H156054   4.745   5.173   5.899 -0.3632 -0.4061 -0.1455
11521TIP3    H256055   4.622   5.254   5.936  0.1083  0.3912 -0.3178
11522TIP3   OH256056   6.921   2.732   9.998  0.3527  0.5728  0.1845
11522TIP3    H156057   6.897   2.749   9.907  1.1423 -1.4280 -0.4415
11522TIP3    H256058   6.837   2.720  10.043 -0.0466  1.7057 -0.2266
11523TIP3   OH256059   1.390   4.969   1.783 -0.5061 -0.2902 -0.1542
11523TIP3    H156060   1.431   4.937   1.703 -1.2902 -0.1519 -0.6197
11523TIP3    H256061   1.429   4.916   1.853 -1.6011 -2.1530 -0.8760
11524TIP3   OH256062   6.249   7.039  14.504 -0.6325 -0.2413 -0.3137
11524TIP3    H156063   6.244   7.011  14.413 -0.2352  3.2029 -1.5711
11524TIP3    H256064   6.330   7.090  14.508 -0.3037 -0.8641  2.1835
11525TIP3   OH256065   0.377   5.017  10.821 -0.1467 -0.1597  0.4526
11525TIP3    H156066   0.373   4.923  10.806  1.2153 -0.0847 -0.5258
11525TIP3    H256067   0.312   5.033  10.890  1.0086 -2.1161  2.1009
11526TIP3   OH256068   0.833   2.359   3.354  0.3470  0.0144  0.0608
11526TIP3    H156069   0.805   2.373   3.445  0.8848  0.3670  0.1773
11526TIP3    H256070   0.832   2.264   3.343 -1.7939  0.0249 -0.2296
11527TIP3   OH256071   5.665   2.254   0.670  0.3300 -0.2742 -0.2203
11527TIP3    H156072   5.607   2.221   0.739 -1.4851  1.1162 -0.9910
11527TIP3    H256073   5.657   2.191   0.599 -0.7053  0.1773 -0.5227
11528TIP3   OH256074   5.649   0.899  10.626 -0.1853 -0.2571  0.7763
11528TIP3    H156075   5.574   0.900  10.686 -0.2442 -0.2641  0.7029
11528TIP3    H256076   5.619   0.847  10.552  0.0198 -0.5720  0.9100
11529TIP3   OH256077   0.075   3.747   4.744 -0.3335  0.0358 -0.3391
11529TIP3    H156078   0.144   3.682   4.742  0.0899  0.4190  0.8710
11529TIP3    H256079   0.108   3.819   4.690 -0.0940 -0.0682 -0.3317
11530TIP3   OH256080   5.529   6.120   3.408 -0.1884 -0.3321 -0.2749
11530TIP3    H156081   5.500   6.078   3.488 -0.7186  1.2412  0.3921
11530TIP3    H256082   5.618   6.088   3.395  0.3522  0.2969  1.6018
11531TIP3   OH256083   0.749   3.980  13.180 -0.3141 -0.2194  0.4381
11531TIP3    H156084   0.736   3.984  13.275 -2.2947 -0.8743  0.2435
11531TIP3    H256085   0.818   3.915  13.168  0.6047  0.5317  1.4440
11532TIP3   OH256086   6.212   5.086   4.864  0.1718 -0.2284 -0.5624
11532TIP3    H156087   6.141   5.145   4.837 -0.0570  0.4009  1.2678
11532TIP3    H256088   6.168   5.003   4.881  0.0173 -0.1054 -0.3520
11533TIP3   OH256089   0.634   5.915   2.372  0.3136  0.2316  0.2434
11533TIP3    H156090   0.552   5.896   2.419  0.3577  2.3357  1.3013
11533TIP3    H256091   0.700   5.863   2.418 -0.5754 -2.9616 -1.7659
11534TIP3   OH256092   6.240   2.798   5.125 -0.1364 -0.1047 -0.2095
11534TIP3    H156093   6.207   2.875   5.079 -1.8797 -0.0970  0.9592
11534TIP3    H256094   6.297   2.755   5.061  0.2922  1.7369 -1.1297
11535TIP3   OH256095   5.730   4.270   4.342 -0.5626  0.2450 -0.0627
11535TIP3    H156096   5.824   4.254   4.337 -0.3077  1.8951 -2.0400
11535TIP3    H256097   5.705   4.242   4.430  1.7490 -0.2837  0.4825
11536TIP3   OH256098   3.409   1.882  10.805  0.0982  0.2535  0.3403
11536TIP3    H156099   3.405   1.977  10.809 -1.1505  0.2635 -0.5408
11536TIP3    H256100   3.386   1.853  10.893  0.9258  0.7675  0.7307
11537TIP3   OH256101   2.498   0.158  13.713  0.3028 -0.6073  0.5083
11537TIP3    H156102   2.425   0.219  13.711 -0.1437 -1.1239  0.8337
11537TIP3    H256103   2.478   0.099  13.786 -0.0885 -2.1271 -0.7853
11538TIP3   OH256104   6.580   2.575   0.972 -0.6224 -0.0653 -0.2251
11538TIP3    H156105   6.569   2.561   0.878  0.7987  0.0120 -0.4229
11538TIP3    H256106   6.523   2.509   1.013 -0.9044 -0.4025 -1.1242
11539TIP3   OH256107   1.815   2.965   2.598  0.0380 -0.4781  0.1630
11539TIP3    H156108   1.899   3.010   2.608  0.1073 -0.1670 -1.5339
11539TIP3    H256109   1.752   3.020   2.644  0.2439  1.0235 -1.2750
11540TIP3   OH256110   2.439   0.072   5.869 -0.5172  0.1896  0.5097
11540TIP3    H156111   2.525   0.052   5.906 -0.2394 -0.4014 -0.3961
11540TIP3    H256112   2.377   0.037   5.932 -0.0587 -0.8095  0.4328
11541TIP3   OH256113   0.866   7.093  15.071 -0.4723 -0.0290 -0.1100
11541TIP3    H156114   0.781   7.049  15.077  0.6701 -2.3290  0.3427
11541TIP3    H256115   0.930   7.022  15.063  1.3335  1.6755 -1.9110
11542TIP3   OH256116   6.885   5.297   5.810  0.5313 -0.2877 -0.1577
11542TIP3    H156117   6.933   5.325   5.889  2.5507  1.2581 -1.8165
11542TIP3    H256118   6.824   5.368   5.793  2.1347  0.8476 -1.5328
11543TIP3   OH256119   2.446   1.039   1.186  0.0132 -0.0267 -0.1466
11543TIP3    H156120   2.481   1.123   1.159  0.3410 -0.1321 -0.0534
11543TIP3    H256121   2.485   1.023   1.273 -1.4205  0.5517  0.6402
11544TIP3   OH256122   4.191   4.641  15.203  0.2888 -0.3903 -0.5577
11544TIP3    H156123   4.212   4.727  15.166  0.0023  1.1502  2.5092
11544TIP3    H256124   4.276   4.607  15.233  0.1409 -0.1660  0.1374
11545TIP3   OH256125   5.189   0.867  13.388 -0.2077  0.0362  0.4127
11545TIP3    H156126   5.240   0.807  13.333 -1.9107 -2.1587  1.0717
11545TIP3    H256127   5.183   0.823  13.472 -1.6850  1.0444  0.8778
11546TIP3   OH256128   2.619   2.336  15.715  0.1227  0.3056  0.0405
11546TIP3    H156129   2.709   2.365  15.700  0.9934 -2.1963 -0.0294
11546TIP3    H256130   2.610   2.333  15.810  0.0577  0.6208  0.0485
11547TIP3   OH256131   7.036   5.475   3.497 -0.1179  0.3112 -0.3848
11547TIP3    H156132   7.037   5.402   3.559 -0.4085  0.2622 -0.4366
11547TIP3    H256133   7.127   5.507   3.495 -0.0929  0.2669  0.0113
11548TIP3   OH256134   0.919   4.615   3.042 -0.2708 -0.9762 -0.3372
11548TIP3    H156135   0.869   4.541   3.009  0.6606 -1.8993  0.2698
11548TIP3    H256136   1.009   4.583   3.048 -0.0395 -0.1495  0.9908
11549TIP3   OH256137   6.812   2.081  13.205  0.0255 -0.1542 -0.0140
11549TIP3    H156138   6.740   2.105  13.263 -0.7959  0.2397 -1.1522
11549TIP3    H256139   6.848   2.001  13.243  0.7014  1.0537  2.0207
11550TIP3   OH256140   3.151   4.771  12.687  0.0296  0.3165 -0.3424
11550TIP3    H156141   3.189   4.858  12.702  0.0328  0.1126  0.9129
11550TIP3    H256142   3.206   4.712  12.739 -0.5605 -0.3129 -0.4245
11551TIP3   OH256143   0.555   5.793   2.911  0.5372 -0.2270  0.2494
11551TIP3    H156144   0.559   5.698   2.923 -1.2006 -0.4917 -0.8342
11551TIP3    H256145   0.470   5.818   2.947  1.1792  1.0093  0.9590
11552TIP3   OH256146   1.423   3.264   0.737 -0.1964  0.4829  0.5834
11552TIP3    H156147   1.512   3.281   0.707  0.2929 -0.9407  1.1272
11552TIP3    H256148   1.367   3.310   0.675  0.8459 -0.4360 -1.1077
11553TIP3   OH256149   3.921   2.819  12.387 -0.0617  0.7676 -0.4929
11553TIP3    H156150   3.960   2.887  12.332 -2.1893  1.7701 -0.8754
11553TIP3    H256151   3.867   2.867  12.450 -0.9709 -0.5250 -0.2402
11554TIP3   OH256152   5.359   2.661   0.112 -0.1354  0.0683  0.0985
11554TIP3    H156153   5.291   2.709   0.160 -2.4128 -0.6638 -2.1419
11554TIP3    H256154   5.398   2.726   0.054  0.8580  0.3950  1.0928
11555TIP3   OH256155   6.213   5.735   5.884 -0.5121  0.3770 -0.5578
11555TIP3    H156156   6.294   5.719   5.835 -0.2409  0.8524 -0.2782
11555TIP3    H256157   6.207   5.831   5.889 -0.5257  0.3340  0.3607
11556TIP3   OH256158   0.496   5.699   3.247 -0.0001 -0.9136  0.2415
11556TIP3    H156159   0.512   5.736   3.334 -0.6387 -0.2940  0.1065
11556TIP3    H256160   0.467   5.774   3.194  1.4236 -1.0601 -0.8132
11557TIP3   OH256161   2.583   5.337   4.482  0.3219 -0.6927  0.0802
11557TIP3    H156162   2.508   5.282   4.506 -0.8548  0.9170  0.3191
11557TIP3    H256163   2.544   5.422   4.461  1.9213 -0.3367 -1.6899
11558TIP3   OH256164   5.761   4.421   5.126 -0.0716 -0.0854 -0.0071
11558TIP3    H156165   5.728   4.351   5.069 -0.4476  0.3645 -0.3507
11558TIP3    H256166   5.798   4.486   5.066  0.1192  0.0925  0.3004
11559TIP3   OH256167   6.407   2.900   0.846 -0.3144  0.1043  0.2854
11559TIP3    H156168   6.430   2.979   0.798  1.0114 -0.7463 -0.5431
11559TIP3    H256169   6.489   2.873   0.888 -0.8619 -0.5762  0.9474
11560TIP3   OH256170   4.331   3.002   4.036  0.2001  0.2822 -0.4361
11560TIP3    H156171   4.270   3.072   4.016 -0.9910 -0.2012  1.2790
11560TIP3    H256172   4.301   2.967   4.121  0.5075 -2.5204 -1.3630
11561TIP3   OH256173   5.179   2.387   4.388 -0.1769  0.4663 -0.0765
11561TIP3    H156174   5.154   2.315   4.446 -3.6994 -1.1229 -3.1228
11561TIP3    H256175   5.249   2.350   4.334 -0.6944 -0.0915 -0.3909
11562TIP3   OH256176   0.938   3.789   2.754 -0.1051 -0.1565  0.3873
11562TIP3    H156177   0.913   3.874   2.718  1.0142  0.6032  1.3392
11562TIP3    H256178   0.855   3.743   2.766 -0.9834  1.7135  2.0966
11563TIP3   OH256179   5.062   3.065  15.497 -0.4269  0.5728  0.0491
11563TIP3    H156180   5.065   2.985  15.549  2.0599  0.6383  0.1371
11563TIP3    H256181   5.025   3.037  15.413 -2.3105 -0.0023  1.0091
11564TIP3   OH256182   5.407   0.436   4.967  0.0229  0.0337  0.3378
11564TIP3    H156183   5.313   0.456   4.970  0.0379  0.1245  0.2147
11564TIP3    H256184   5.447   0.518   4.938  0.1583  0.0500  0.5702
11565TIP3   OH256185   0.676   0.942   5.164  0.3614  0.0433  0.2967
11565TIP3    H156186   0.704   0.997   5.237  0.2963  1.7415 -0.9063
11565TIP3    H256187   0.738   0.961   5.094 -0.9230  0.1961 -0.8378
11566TIP3   OH256188   2.537   5.053  11.399 -0.4396 -0.7822  0.0779
11566TIP3    H156189   2.563   4.961  11.409 -0.4974 -0.9334 -1.0451
11566TIP3    H256190   2.553   5.092  11.485  0.0763 -1.7196  0.4203
11567TIP3   OH256191   6.506   2.916  14.341 -0.1267 -0.4648  0.1780
11567TIP3    H156192   6.536   2.916  14.250  0.6218  0.1686  0.4160
11567TIP3    H256193   6.528   2.829  14.373  2.3907  0.2618  0.6240
11568TIP3   OH256194   2.548   2.181   5.965  0.7779 -0.3001  0.7130
11568TIP3    H156195   2.592   2.258   6.002  1.3763 -0.1688 -0.2468
11568TIP3    H256196   2.617   2.132   5.920 -0.1021  0.1826 -1.2986
11569TIP3   OH256197   5.208   2.987  10.923 -0.1891 -0.1253  0.4871
11569TIP3    H156198   5.263   3.064  10.909 -0.4811 -0.1918 -1.2528
11569TIP3    H256199   5.152   2.983  10.845 -1.2149 -1.2396  1.2558
11570TIP3   OH256200   1.925   5.545   3.396 -0.2502 -0.1843 -0.2164
11570TIP3    H156201   1.872   5.465   3.392 -1.0887  0.3856 -2.1353
11570TIP3    H256202   1.862   5.615   3.377  0.8441  0.7045 -0.6589
11571TIP3   OH256203   4.332   3.395  12.611  0.3169  0.5262 -0.2522
11571TIP3    H156204   4.418   3.392  12.654  0.3357  0.6631 -0.2799
11571TIP3    H256205   4.276   3.442  12.673  0.8194  2.4953 -1.1900
11572TIP3   OH256206   3.468   2.690   0.731  0.5022  0.0224  0.5092
11572TIP3    H156207   3.457   2.601   0.763  0.7255 -0.3532 -0.4005
11572TIP3    H256208   3.563   2.703   0.728  0.4584  0.5650  1.3463
11573TIP3   OH256209   2.539   6.006   0.519 -0.3160 -0.0721  0.0810
11573TIP3    H156210   2.531   6.097   0.489  0.7269  0.2435  0.6889
11573TIP3    H256211   2.630   5.982   0.500 -0.8267 -1.3245 -0.9119
11574TIP3   OH256212   4.513   6.859  12.306 -0.3516  0.7709 -0.1702
11574TIP3    H156213   4.485   6.947  12.281 -1.1915  0.5509 -0.0239
11574TIP3    H256214   4.466   6.801  12.246 -0.7991  0.3518  0.5728
11575TIP3   OH256215   3.150   6.963  10.422  0.3989 -0.2292  0.1364
11575TIP3    H156216   3.199   7.040  10.396 -0.2796  0.1579 -0.0264
11575TIP3    H256217   3.161   6.958  10.517  1.4510 -0.6517  0.0115
11576TIP3   OH256218   6.882   6.236  10.913 -0.2792 -0.3364  0.0884
11576TIP3    H156219   6.939   6.189  10.973  0.1393  0.9407  0.7366
11576TIP3    H256220   6.874   6.323  10.951 -0.1059  0.4745 -1.6260
11577TIP3   OH256221   3.823   1.565  15.667 -0.6328 -0.3702  0.0369
11577TIP3    H156222   3.889   1.507  15.706 -0.0510  0.3378  0.1292
11577TIP3    H256223   3.740   1.532  15.701 -0.2193 -0.4516  1.0032
11578TIP3   OH256224   1.409   5.235  13.501  0.0916  0.7501  0.1268
11578TIP3    H156225   1.439   5.301  13.563 -1.0178  1.1096  0.2855
11578TIP3    H256226   1.317   5.220  13.523  0.2693 -0.7270 -0.0068
11579TIP3   OH256227   4.124   7.088  12.895  0.0450  0.0885 -0.0957
11579TIP3    H156228   4.196   7.117  12.839 -0.0822  0.1126 -0.2451
11579TIP3    H256229   4.102   7.164  12.948 -0.6742  0.4482 -0.8874
11580TIP3   OH256230   2.469   6.838   4.104  0.4475 -0.0190 -0.1066
11580TIP3    H156231   2.476   6.824   4.009  0.6859 -0.3107 -0.0464
11580TIP3    H256232   2.557   6.864   4.130  1.2707 -3.0151  0.5398
11581TIP3   OH256233   0.737   0.483   3.702  0.1183 -0.3348  0.3072
11581TIP3    H156234   0.707   0.492   3.792 -1.0018 -0.2302 -0.0552
11581TIP3    H256235   0.662   0.513   3.649  1.1672  0.7262 -0.6301
11582TIP3   OH256236   0.999   5.637   1.833  0.6113 -0.1665 -0.2543
11582TIP3    H156237   1.070   5.666   1.889  1.5868 -0.9111 -1.0456
11582TIP3    H256238   1.011   5.542   1.827 -0.8454 -0.3973  0.1052
11583TIP3   OH256239   3.846   1.262  12.443 -0.2592  0.1561 -0.2943
11583TIP3    H156240   3.868   1.182  12.397  0.8189 -0.2134  0.8136
11583TIP3    H256241   3.849   1.330  12.376  0.7467 -0.4439 -0.8757
11584TIP3   OH256242   6.192   6.824  14.065 -0.0752  0.5295 -0.2577
11584TIP3    H156243   6.232   6.744  14.098 -1.1631  0.5105  1.1210
11584TIP3    H256244   6.213   6.826  13.972  0.5198 -1.0145 -0.1687
11585TIP3   OH256245   2.929   4.013   1.100  0.9246  0.1753  0.6955
11585TIP3    H156246   2.970   4.018   1.186  2.7549 -0.4600 -0.1074
11585TIP3    H256247   2.992   4.053   1.040  1.2785 -2.4833 -0.8538
11586TIP3   OH256248   1.761   5.248  11.617  0.3670  0.3656 -0.0965
11586TIP3    H156249   1.705   5.278  11.546 -0.3951 -1.9423 -0.5663
11586TIP3    H256250   1.846   5.232  11.576  0.5239  0.9969 -0.0279
11587TIP3   OH256251   3.995   3.081  11.682  0.0886 -0.1314 -0.2071
11587TIP3    H156252   4.090   3.076  11.674 -0.0239 -1.3060 -1.1190
11587TIP3    H256253   3.977   3.068  11.775  0.7257 -2.4834 -0.3430
11588TIP3   OH256254   2.791   3.540   4.421  0.0936  0.3636 -0.5120
11588TIP3    H156255   2.732   3.611   4.393 -1.5983  0.0789  2.0320
11588TIP3    H256256   2.744   3.497   4.493  1.8768 -2.2181 -0.7811
11589TIP3   OH256257   6.146   3.069   0.899  0.5154 -0.4106  0.6332
11589TIP3    H156258   6.089   2.996   0.923  1.3087 -0.6453  1.9575
11589TIP3    H256259   6.220   3.062   0.960  0.4967  1.6472  0.9716
11590TIP3   OH256260   5.967   0.425   1.056 -0.2578  0.8968  0.4535
11590TIP3    H156261   5.945   0.437   0.964 -0.4544  2.2256  0.6600
11590TIP3    H256262   6.005   0.336   1.060 -0.9626  0.5185 -0.7533
11591TIP3   OH256263   2.204   2.232  10.665  0.7535  0.1815  0.1543
11591TIP3    H156264   2.121   2.275  10.682 -0.0482 -0.5812 -1.6579
11591TIP3    H256265   2.235   2.205  10.752 -0.4711  1.1899  0.9349
11592TIP3   OH256266   4.114   0.817  11.780 -0.9555 -0.1339 -0.1612
11592TIP3    H156267   4.097   0.748  11.715  0.0441 -0.6285  0.0769
11592TIP3    H256268   4.068   0.894  11.746 -1.3727 -0.6846 -0.8770
11593TIP3   OH256269   4.865   5.550   0.144  0.0281 -0.1659  0.7244
11593TIP3    H156270   4.823   5.636   0.143  0.0459 -0.1611  0.0005
11593TIP3    H256271   4.959   5.570   0.137 -0.0824 -0.2944 -2.2910
11594TIP3   OH256272   1.420   4.261  12.314  0.8156  0.4136 -0.3260
11594TIP3    H156273   1.511   4.263  12.343  0.6185 -3.5746  1.1158
11594TIP3    H256274   1.420   4.203  12.238 -0.6565 -0.9057  0.6144
11595TIP3   OH256275   7.052   3.633  13.230 -0.2664 -0.1683  0.0722
11595TIP3    H156276   7.046   3.588  13.315  0.4489 -0.2868  0.0648
11595TIP3    H256277   7.142   3.666  13.227 -0.3889  0.1181 -0.5047
11596TIP3   OH256278   0.947   6.006  14.880  0.1609  0.2691  0.2694
11596TIP3    H156279   0.888   5.956  14.824  0.2688 -0.7532  1.0265
11596TIP3    H256280   1.020   6.030  14.823 -0.6911  1.0151 -0.5170
11597TIP3   OH256281   4.898   0.745   0.007 -0.1690 -0.3293 -0.4740
11597TIP3    H156282   4.909   0.768  -0.085  0.7046  0.5283 -0.1675
11597TIP3    H256283   4.850   0.818   0.045  1.3501  0.3497  0.1965
11598TIP3   OH256284   1.220   4.562  15.160 -0.6087 -0.3365 -0.4354
11598TIP3    H156285   1.266   4.517  15.231 -0.6989  2.3469  1.4675
11598TIP3    H256286   1.278   4.553  15.085  1.4041 -0.0633  0.9985
11599TIP3   OH256287   0.967   5.641  12.278  0.2512  0.1275  0.1025
11599TIP3    H156288   1.051   5.687  12.289 -0.0378  0.5405  0.6177
11599TIP3    H256289   0.984   5.578  12.208  0.9651  0.2782  0.1264
11600TIP3   OH256290   1.873   4.148   9.794 -0.1920  0.6993  0.5136
11600TIP3    H156291   1.959   4.141   9.753 -1.0965 -1.2549 -1.1797
11600TIP3    H256292   1.885   4.107   9.880  0.0487 -1.7520 -0.6290
11601TIP3   OH256293   6.915   1.445   9.769  0.6491  0.2464  0.5991
11601TIP3    H156294   6.957   1.454   9.684 -0.1338  0.1390  0.1963
11601TIP3    H256295   6.837   1.393   9.752  1.0892 -0.8021  1.5785
11602TIP3   OH256296   3.237   6.048   5.571  0.5955  0.1489  0.0235
11602TIP3    H156297   3.152   6.076   5.537 -0.2980 -2.7308 -0.3953
11602TIP3    H256298   3.293   6.126   5.564 -1.9884  2.1852  0.4539
11603TIP3   OH256299   2.266   2.737   2.849  0.1640  0.2589 -0.2594
11603TIP3    H156300   2.353   2.748   2.812 -1.3637 -0.4327 -4.7227
11603TIP3    H256301   2.220   2.819   2.828 -0.2202  0.9076  2.6391
11604TIP3   OH256302   4.166   4.625   9.892 -0.2572  0.1207 -0.1402
11604TIP3    H156303   4.173   4.529   9.884  0.6555  0.0005  1.6286
11604TIP3    H256304   4.087   4.639   9.945 -1.8731  0.5290 -2.4855
11605TIP3   OH256305   5.372   6.296  15.395  0.7744 -0.0396 -0.1806
11605TIP3    H156306   5.280   6.320  15.398  0.3610 -1.5026 -0.6512
11605TIP3    H256307   5.377   6.227  15.329  1.6485 -2.3261  2.1020
11606TIP3   OH256308   2.065   5.496  11.180 -0.7701  0.2711 -0.2383
11606TIP3    H156309   2.117   5.520  11.257 -1.7411  0.2464  0.4427
11606TIP3    H256310   2.117   5.527  11.106  1.5015 -2.0797  0.2230
11607TIP3   OH256311   2.668   5.536   5.789 -0.2746 -0.4239 -0.5697
11607TIP3    H156312   2.725   5.472   5.746  0.8096 -0.2969  0.6195
11607TIP3    H256313   2.607   5.484   5.841  0.8282 -0.5323  0.6743
11608TIP3   OH256314   6.460   2.104  11.043  0.1605  0.5801  0.5174
11608TIP3    H156315   6.441   2.155  11.121  0.3718 -1.1170  1.7362
11608TIP3    H256316   6.544   2.138  11.012  1.0593  0.0244  2.1862
11609TIP3   OH256317   5.799   4.542   4.706  0.1519 -0.0994  0.1465
11609TIP3    H156318   5.855   4.561   4.631 -0.4729  1.2226 -0.0186
11609TIP3    H256319   5.771   4.451   4.692  4.4185 -1.9362  1.7300
11610TIP3   OH256320   2.573   3.820  12.525  0.1035  0.2347  0.3248
11610TIP3    H156321   2.539   3.750  12.581  0.6219  0.8029  1.3805
11610TIP3    H256322   2.623   3.775  12.458  1.8016 -0.3972  1.9182
11611TIP3   OH256323   2.796   5.373  12.108  0.3507 -0.3963 -0.7217
11611TIP3    H156324   2.746   5.431  12.165  0.7727  0.8570 -1.6080
11611TIP3    H256325   2.737   5.298  12.093 -0.7160  0.4034 -0.6312
11612TIP3   OH256326   1.549   6.383   2.349 -0.4588  0.2760  0.4819
11612TIP3    H156327   1.457   6.365   2.330  0.0400  0.0901 -2.1135
11612TIP3    H256328   1.593   6.299   2.336  0.2604  0.6600  0.3958
11613TIP3   OH256329   4.587   3.848   5.389 -0.2285  0.1784 -0.3135
11613TIP3    H156330   4.575   3.841   5.484  0.3476 -1.8078 -0.3591
11613TIP3    H256331   4.512   3.900   5.360 -0.8288  0.1745  1.1221
11614TIP3   OH256332   4.663   2.940   3.168 -0.0583  1.0879  0.3805
11614TIP3    H156333   4.669   2.890   3.249  1.1453  2.1401  0.9652
11614TIP3    H256334   4.632   3.026   3.195 -2.7708  0.5625 -0.6918
11615TIP3   OH256335   3.318   0.727   0.396 -0.4559 -0.0632  0.1461
11615TIP3    H156336   3.411   0.715   0.416 -0.4949 -1.9644 -0.5815
11615TIP3    H256337   3.309   0.692   0.307 -2.1468 -1.4129  0.8056
11616TIP3   OH256338   6.281   5.256   2.032  0.1169  0.6886  0.2050
11616TIP3    H156339   6.335   5.258   1.952 -0.0007 -0.2121  0.0965
11616TIP3    H256340   6.195   5.284   2.003  0.1372  0.6068  0.0630
11617TIP3   OH256341   1.377   2.765  12.332  0.0325  0.7874  0.1193
11617TIP3    H156342   1.347   2.676  12.313 -0.0089 -0.5404  5.0642
11617TIP3    H256343   1.469   2.766  12.305 -0.3262 -0.2483 -1.2395
11618TIP3   OH256344   0.113   4.720   4.460 -0.0027 -0.5786 -0.1109
11618TIP3    H156345   0.188   4.729   4.402 -1.7334  1.2237 -2.2817
11618TIP3    H256346   0.150   4.714   4.548  2.6274  1.0577 -1.0035
11619TIP3   OH256347   5.102   4.224  15.138  0.1554  0.2512  0.1766
11619TIP3    H156348   5.089   4.132  15.160  2.8340 -0.3284 -0.3281
11619TIP3    H256349   5.066   4.233  15.049  0.5612 -0.5158 -0.0755
11620TIP3   OH256350   4.832   1.822   5.493  0.2016  0.5906  0.0398
11620TIP3    H156351   4.787   1.906   5.490 -3.0841 -0.9228 -4.2531
11620TIP3    H256352   4.913   1.835   5.444 -1.0156  1.0533 -1.9599
11621TIP3   OH256353   3.522   5.931  13.313 -0.6018  0.3530 -0.4018
11621TIP3    H156354   3.464   5.860  13.340 -1.1408  1.1979  0.7582
11621TIP3    H256355   3.522   5.927  13.217  1.0261 -2.4862 -0.4179
11622TIP3   OH256356   1.675   5.476   1.165 -0.0202 -0.4068  0.4385
11622TIP3    H156357   1.631   5.540   1.109  1.4787  2.7022  2.5185
11622TIP3    H256358   1.606   5.444   1.224 -0.5841  0.0969  0.0628
11623TIP3   OH256359   1.051   0.188   0.709 -0.6325  0.2704 -0.0579
11623TIP3    H156360   1.090   0.247   0.644 -0.1966  0.6403  0.5232
11623TIP3    H256361   1.005   0.247   0.769  0.8496  0.1840  1.2583
11624TIP3   OH256362   0.816   4.861  13.228 -0.2032  0.1897  0.1686
11624TIP3    H156363   0.892   4.917  13.215  0.6251 -1.1257 -0.9792
11624TIP3    H256364   0.840   4.778  13.186 -1.7239 -0.7276  1.0088
11625TIP3   OH256365   6.082   3.312   4.019 -0.3112  0.3641  0.1492
11625TIP3    H156366   6.008   3.370   4.037  0.9380  2.1148 -0.0974
11625TIP3    H256367   6.045   3.224   4.024 -2.2927  1.1604  0.5166
11626TIP3   OH256368   5.015   0.913   2.587  0.0834  0.1903  0.4409
11626TIP3    H156369   5.043   0.984   2.529  0.5424 -0.6201 -0.3384
11626TIP3    H256370   4.919   0.915   2.583  0.0572  1.3567  1.1590
11627TIP3   OH256371   6.002   1.053   0.598 -0.2922  0.2659 -0.0537
11627TIP3    H156372   6.006   1.083   0.508  3.1997  0.3258 -0.0301
11627TIP3    H256373   6.020   1.130   0.651 -0.2150 -0.1635  0.5671
11628TIP3   OH256374   6.671   2.425  13.477  0.5021  0.2782 -0.0258
11628TIP3    H156375   6.575   2.435  13.477  0.5763  1.0760  0.7202
11628TIP3    H256376   6.701   2.489  13.412  0.6054  0.9008  0.6287
11629TIP3   OH256377   6.944   5.222  12.632 -0.0585 -0.4338  0.3480
11629TIP3    H156378   6.887   5.145  12.627 -0.6041 -0.0002 -0.3110
11629TIP3    H256379   6.898   5.281  12.691  0.3260 -0.5752  0.7968
11630TIP3   OH256380   6.792   4.380  11.228  0.1025  0.2006  0.6065
11630TIP3    H156381   6.783   4.354  11.136 -0.8539  0.3121  0.6678
11630TIP3    H256382   6.882   4.355  11.250  0.7109  1.1302 -0.6629
11631TIP3   OH256383   5.949   4.573  12.785 -0.1950 -0.2674 -0.2805
11631TIP3    H156384   6.001   4.653  12.774 -0.8219  0.3009  0.7443
11631TIP3    H256385   5.867   4.603  12.825 -0.5202 -1.3966 -0.0726
11632TIP3   OH256386   4.242   5.284   3.836 -0.1392 -0.6653  0.2646
11632TIP3    H156387   4.147   5.275   3.842 -0.3714  0.4619 -1.0436
11632TIP3    H256388   4.265   5.245   3.752  0.4483 -0.2843  0.2396
11633TIP3   OH256389   6.140   0.933  10.298 -0.0477 -0.4374  0.2937
11633TIP3    H156390   6.229   0.964  10.313  0.0074 -1.1272  1.5550
11633TIP3    H256391   6.142   0.841  10.325 -1.1603 -0.4473  0.3836
11634TIP3   OH256392   1.781   7.097  12.171  0.3946  0.2942  0.4723
11634TIP3    H156393   1.765   7.190  12.187 -1.4342  0.1318 -0.1191
11634TIP3    H256394   1.876   7.088  12.172  0.5727  1.9575  1.6545
11635TIP3   OH256395   4.783   1.074   1.831 -0.6747  0.5095 -0.1739
11635TIP3    H156396   4.795   0.979   1.823 -0.0710  0.5093  0.6846
11635TIP3    H256397   4.688   1.085   1.842 -0.8104  0.0555 -0.7936
11636TIP3   OH256398   6.972   0.690   1.522  0.4864  0.0534  0.3775
11636TIP3    H156399   6.992   0.598   1.502 -1.2068 -0.7433  1.9254
11636TIP3    H256400   6.933   0.724   1.442 -2.0349 -1.6771  0.7385
11637TIP3   OH256401   0.614   0.136  15.305 -0.1668  0.0154  0.1697
11637TIP3    H156402   0.640   0.045  15.317 -0.3136  0.0903  1.0952
11637TIP3    H256403   0.597   0.143  15.211  2.5662 -0.1697 -0.4292
11638TIP3   OH256404   3.233   6.498   4.023  0.6648  0.2368  0.4494
11638TIP3    H156405   3.309   6.492   4.081  0.4209 -0.8007  0.6826
11638TIP3    H256406   3.174   6.429   4.054  0.4575 -0.2415 -0.9457
11639TIP3   OH256407   6.192   6.241   1.216  0.0034  0.4253 -0.4205
11639TIP3    H156408   6.109   6.193   1.213  0.7611 -0.9250 -0.8081
11639TIP3    H256409   6.233   6.212   1.297  0.6214  0.1604 -0.8268
11640TIP3   OH256410   1.497   6.430  11.240  0.0995 -0.0358  0.2411
11640TIP3    H156411   1.574   6.481  11.263  0.5823 -0.6830  0.0917
11640TIP3    H256412   1.425   6.470  11.289  0.5092  0.6440  0.2867
11641TIP3   OH256413   3.182   4.841   4.322 -0.1878 -0.1356 -0.2229
11641TIP3    H156414   3.229   4.776   4.270 -1.7754 -1.0917 -0.5321
11641TIP3    H256415   3.164   4.913   4.261  0.5261  0.0675 -0.2000
11642TIP3   OH256416   4.574   1.397   5.441 -0.5897  0.0352 -0.1462
11642TIP3    H156417   4.555   1.422   5.531 -0.0890 -2.9013  0.8523
11642TIP3    H256418   4.535   1.311   5.430  2.7682 -1.4897 -1.4098
11643TIP3   OH256419   4.244   2.155   9.617 -0.0845  0.8073 -0.5281
11643TIP3    H156420   4.178   2.101   9.661 -1.0177  0.8575 -1.8250
11643TIP3    H256421   4.235   2.241   9.658  1.5161  0.0412  1.6693
11644TIP3   OH256422   5.745   7.145  12.126 -0.0554  0.0444  0.1240
11644TIP3    H156423   5.805   7.145  12.052 -0.7211  0.6060 -0.4303
11644TIP3    H256424   5.783   7.209  12.187  0.0442  0.2181 -0.1158
11645TIP3   OH256425   6.852   3.845   1.044  0.2990  0.1557  0.4332
11645TIP3    H156426   6.916   3.797   1.097  2.4992  3.0485  0.6404
11645TIP3    H256427   6.876   3.824   0.954  1.3749  0.8998  0.5175
11646TIP3   OH256428   3.289   3.804  10.921 -0.2739  0.1526  0.0488
11646TIP3    H156429   3.249   3.724  10.953  0.0720 -1.0903 -2.3828
11646TIP3    H256430   3.221   3.847  10.869 -0.0161  0.7123  0.1564
11647TIP3   OH256431   6.854   5.224   4.109 -0.0062 -0.1144 -0.8969
11647TIP3    H156432   6.820   5.212   4.020  0.2732 -1.3290 -0.8487
11647TIP3    H256433   6.840   5.317   4.127 -0.1624  0.1318 -2.1713
11648TIP3   OH256434   5.047   0.538  14.713 -0.2019 -0.0256 -0.0849
11648TIP3    H156435   5.062   0.584  14.630 -0.6066 -0.2748 -0.3014
11648TIP3    H256436   5.110   0.466  14.712 -1.3685 -1.0997 -1.0130
11649TIP3   OH256437   4.700   6.514   3.319  0.3942  0.0381  0.0210
11649TIP3    H156438   4.752   6.538   3.242  1.5464  1.2500  1.1233
11649TIP3    H256439   4.615   6.556   3.305  0.3614 -0.2858 -0.8640
11650TIP3   OH256440   5.768   6.856   2.825 -0.3651  0.3507  0.0482
11650TIP3    H156441   5.822   6.798   2.879 -0.3399 -0.0933 -0.4435
11650TIP3    H256442   5.738   6.800   2.753  0.9746  1.3154 -1.3366
11651TIP3   OH256443   2.199   5.890   2.701 -0.4077  0.3679 -0.6196
11651TIP3    H156444   2.286   5.920   2.675  0.3236 -1.0644  0.0618
11651TIP3    H256445   2.175   5.825   2.635 -0.8108  0.5044 -0.6111
11652TIP3   OH256446   0.895   1.775   2.534 -0.7606  0.1366 -0.4916
11652TIP3    H156447   0.913   1.707   2.469 -1.7727 -0.3090 -0.3298
11652TIP3    H256448   0.800   1.769   2.549 -0.7712  1.2120 -0.0588
11653TIP3   OH256449   1.835   4.337  14.530 -0.1172 -0.0310 -0.6369
11653TIP3    H156450   1.880   4.383  14.601  0.0506  0.2229 -0.9022
11653TIP3    H256451   1.742   4.351  14.548 -0.0783  1.9421 -1.6590
11654TIP3   OH256452   1.400   4.547  13.578 -0.8638  0.4284  0.4944
11654TIP3    H156453   1.402   4.635  13.540 -0.1907  0.4597  0.6052
11654TIP3    H256454   1.338   4.554  13.651  0.7101  1.3396  1.7918
11655TIP3   OH256455   6.045   3.210   1.940  0.5641 -0.3749 -0.2185
11655TIP3    H156456   6.010   3.172   1.860  0.0114  0.9205 -0.6245
11655TIP3    H256457   6.086   3.292   1.912  2.4950 -1.0375  0.4932
11656TIP3   OH256458   3.377   3.344  13.498  0.4380 -0.5897  0.3577
11656TIP3    H156459   3.398   3.262  13.544  0.0894 -1.3224 -0.7553
11656TIP3    H256460   3.287   3.364  13.525  0.6702 -0.3344  0.9615
11657TIP3   OH256461   1.502   0.679   1.933  0.7439 -0.0858 -0.4870
11657TIP3    H156462   1.430   0.670   1.996  0.0587 -1.4187 -1.4127
11657TIP3    H256463   1.581   0.686   1.987  0.0797 -0.3127  0.5326
11658TIP3   OH256464   2.353   1.886   1.923 -0.0158 -1.0445 -0.2922
11658TIP3    H156465   2.371   1.832   2.000 -1.5760 -2.5591 -0.9237
11658TIP3    H256466   2.258   1.901   1.926  0.1919  0.5942 -0.8560
11659TIP3   OH256467   1.064   2.846   2.752 -0.0325 -0.3474 -0.3203
11659TIP3    H156468   1.064   2.936   2.785 -1.0976 -0.6872  0.6604
11659TIP3    H256469   0.995   2.802   2.801  1.6606 -2.1934  0.5473
11660TIP3   OH256470   5.606   3.100  14.504  0.2647 -0.3436  0.0549
11660TIP3    H156471   5.526   3.129  14.460  0.8231  1.3166  0.0508
11660TIP3    H256472   5.577   3.072  14.591 -0.2311  1.0173  0.3435
11661TIP3   OH256473   1.538   3.765  13.389 -0.1581 -1.0268 -0.2129
11661TIP3    H156474   1.557   3.716  13.468 -0.4247  2.1075  1.9847
11661TIP3    H256475   1.456   3.812  13.408  2.0842  3.4448 -0.2772
11662TIP3   OH256476   0.377   0.895  12.030  0.1893 -0.0728  0.1121
11662TIP3    H156477   0.324   0.816  12.044  0.2911 -0.3086 -0.8097
11662TIP3    H256478   0.341   0.935  11.951 -0.3639  1.2389  0.9925
11663TIP3   OH256479   0.818   3.233   3.423 -0.0258 -0.5681 -0.0695
11663TIP3    H156480   0.783   3.146   3.403 -2.2149 -0.1173  1.4364
11663TIP3    H256481   0.763   3.293   3.374 -1.8460  0.1880  2.6556
11664TIP3   OH256482   1.761   3.784   1.578 -0.4076 -0.1341 -0.2782
11664TIP3    H156483   1.841   3.753   1.620 -0.1923 -1.1578 -1.3777
11664TIP3    H256484   1.710   3.822   1.649 -0.4758 -2.6112  1.1201
11665TIP3   OH256485   2.109   3.508   1.602  0.1320 -0.0007 -0.0637
11665TIP3    H156486   2.191   3.516   1.650 -0.0254  0.2500  0.1649
11665TIP3    H256487   2.047   3.563   1.650 -0.9460 -2.3506  1.4466
11666TIP3   OH256488   5.259   3.710   3.738  0.3358 -0.0211  0.0012
11666TIP3    H156489   5.274   3.725   3.832 -0.5349 -1.1469  0.3356
11666TIP3    H256490   5.325   3.764   3.695  1.7148 -0.5884  1.3022
11667TIP3   OH256491   5.724   4.520   1.193  0.3891 -0.0350  0.1620
11667TIP3    H156492   5.787   4.452   1.219  0.2517 -0.3051 -0.2050
11667TIP3    H256493   5.646   4.502   1.247  0.9412  0.8721  1.3065
11668TIP3   OH256494   2.251   1.690   5.164  0.1788 -0.0969  0.3016
11668TIP3    H156495   2.176   1.748   5.182  0.5229  0.1453  1.0016
11668TIP3    H256496   2.323   1.729   5.213  0.7792 -0.3190 -0.3906
11669TIP3   OH256497   4.948   0.677  13.569  0.4965  0.2119  0.2067
11669TIP3    H156498   4.889   0.724  13.509  0.7550 -1.4564 -1.4442
11669TIP3    H256499   4.931   0.716  13.654 -1.3948  1.2997 -0.6039
11670TIP3   OH256500   1.355   0.992   0.156 -0.0455  0.7178  0.6116
11670TIP3    H156501   1.304   1.057   0.204 -0.1220  2.3439 -1.4945
11670TIP3    H256502   1.444   1.028   0.156 -0.2820  1.4405 -1.4334
11671TIP3   OH256503   4.908   1.026   4.596 -0.0665  0.1955 -0.5988
11671TIP3    H156504   4.937   0.991   4.512  2.1883 -1.7535  0.8489
11671TIP3    H256505   4.985   1.070   4.632  0.5287 -2.7932  2.2551
11672TIP3   OH256506   0.815   1.997   5.497 -0.1483 -0.1188 -0.5802
11672TIP3    H156507   0.760   1.966   5.568 -1.5499 -0.8922 -1.9270
11672TIP3    H256508   0.801   2.092   5.495  1.9342  0.3212  1.7507
11673TIP3   OH256509   3.784   3.051   4.899  0.1888 -0.0788  0.1791
11673TIP3    H156510   3.827   3.108   4.962 -1.2396  2.0778 -0.6867
11673TIP3    H256511   3.852   3.030   4.835  1.0368 -0.3578  1.1480
11674TIP3   OH256512   0.094   6.027  11.092  0.4118 -0.0151 -0.4255
11674TIP3    H156513   0.092   6.008  10.998  0.9726 -1.0757 -0.2458
11674TIP3    H256514   0.183   6.002  11.119 -0.4428 -1.9849  0.8031
11675TIP3   OH256515   5.048   2.725   3.028 -0.1693 -0.1569  0.4139
11675TIP3    H156516   5.130   2.762   2.995  0.0021 -0.2784  0.6958
11675TIP3    H256517   5.058   2.631   3.016 -0.1940 -0.1853  0.6112
11676TIP3   OH256518   6.243   2.474   0.242  0.6478 -0.0949  0.5803
11676TIP3    H156519   6.186   2.399   0.257  0.7466 -0.3558 -0.2673
11676TIP3    H256520   6.185   2.550   0.245 -0.3060 -0.5160 -2.8114
11677TIP3   OH256521   2.411   4.617   2.573 -0.0616  0.2060  0.7265
11677TIP3    H156522   2.397   4.706   2.539 -1.1962  0.5394  1.9839
11677TIP3    H256523   2.495   4.590   2.535 -1.1815  0.5364 -2.2903
11678TIP3   OH256524   7.023   5.851   0.193  0.0938  0.1500 -0.7220
11678TIP3    H156525   7.091   5.902   0.150  0.5790 -1.2371 -1.6679
11678TIP3    H256526   7.042   5.860   0.287  2.6711 -1.5457 -0.9831
11679TIP3   OH256527   1.973   3.663  14.058 -0.3136  0.3542 -0.3145
11679TIP3    H156528   1.970   3.665  14.153  0.7101 -0.0278 -0.2595
11679TIP3    H256529   1.887   3.632  14.031 -0.5695  0.3579  0.4866
11680TIP3   OH256530   6.632   4.607  12.523 -0.1485 -0.5722 -0.8733
11680TIP3    H156531   6.607   4.693  12.557 -2.4877 -1.6325  0.3399
11680TIP3    H256532   6.685   4.627  12.445 -1.4135  1.9673 -1.2133
11681TIP3   OH256533   5.641   6.779   1.522  0.1085  0.0764  0.1866
11681TIP3    H156534   5.608   6.705   1.573 -1.1516  1.0278  0.8284
11681TIP3    H256535   5.682   6.739   1.446 -1.4658 -1.2708 -0.0218
11682TIP3   OH256536   6.313   6.030   5.456 -0.2081  0.2751 -0.1420
11682TIP3    H156537   6.386   6.017   5.517  1.0724  0.4476 -1.5926
11682TIP3    H256538   6.339   6.104   5.402  0.0555 -1.6051 -2.8074
11683TIP3   OH256539   6.843   1.827  10.709 -0.0800  0.1027  0.5609
11683TIP3    H156540   6.789   1.749  10.696 -0.1646  0.2246  0.1811
11683TIP3    H256541   6.905   1.802  10.778  0.5024 -0.6196 -0.2076
11684TIP3   OH256542   5.701   6.242   4.543 -0.2740  0.1208  0.4787
11684TIP3    H156543   5.652   6.216   4.466  0.6703 -0.9232  0.2101
11684TIP3    H256544   5.641   6.227   4.616 -0.6211 -0.3840  0.0948
11685TIP3   OH256545   2.262   6.521  11.819  0.4372  0.0355  0.5020
11685TIP3    H156546   2.218   6.453  11.767  0.4533  1.2831 -1.2419
11685TIP3    H256547   2.214   6.601  11.798  1.7756  0.9370  0.7939
11686TIP3   OH256548   0.448   5.908  12.848 -0.6843 -0.1318  0.7433
11686TIP3    H156549   0.368   5.959  12.863 -0.9282 -0.2949  0.0297
11686TIP3    H256550   0.508   5.936  12.917  0.5145  3.7902 -1.5589
11687TIP3   OH256551   5.396   2.251  11.015  0.2446 -0.5989  0.3497
11687TIP3    H156552   5.461   2.193  10.975 -0.7340  0.4940 -3.1962
11687TIP3    H256553   5.426   2.339  10.993  0.3207  0.2755  3.4101
11688TIP3   OH256554   1.586   0.719  14.884 -0.0605  0.0541 -0.3368
11688TIP3    H156555   1.584   0.810  14.854  0.5022  0.0324 -0.4557
11688TIP3    H256556   1.512   0.712  14.945  0.1268  0.6957 -0.0233
11689TIP3   OH256557   2.255   6.059   4.134 -0.0069  0.4281 -0.1919
11689TIP3    H156558   2.302   6.138   4.160  0.4768  0.9769 -2.4941
11689TIP3    H256559   2.301   5.988   4.178  1.3644  1.1965 -0.3202
11690TIP3   OH256560   4.312   1.423   2.041 -0.2397  0.0016 -0.4371
11690TIP3    H156561   4.347   1.486   1.978 -0.6439  0.7456  0.0572
11690TIP3    H256562   4.374   1.425   2.114 -1.8378  2.2875  1.0194
11691TIP3   OH256563   0.856   0.451  11.177 -0.3599  0.4027 -0.0457
11691TIP3    H156564   0.916   0.524  11.190  0.0167  0.0468  0.2658
11691TIP3    H256565   0.816   0.437  11.263  1.8598 -1.7221  0.7625
11692TIP3   OH256566   2.397   5.525   3.651 -0.2847 -0.1330  0.2048
11692TIP3    H156567   2.456   5.549   3.722 -0.2698 -0.5327  0.3275
11692TIP3    H256568   2.343   5.603   3.637  0.8041  0.5323 -0.4491
11693TIP3   OH256569   6.741   4.883   2.070  0.2427  0.0167  0.2054
11693TIP3    H156570   6.742   4.788   2.057 -0.7953 -0.0365  0.4447
11693TIP3    H256571   6.739   4.895   2.165  1.8421  0.3220  0.2333
11694TIP3   OH256572   4.287   5.814  15.522 -0.4781  0.0870  0.0485
11694TIP3    H156573   4.203   5.855  15.543 -1.0004 -0.4938 -0.8452
11694TIP3    H256574   4.266   5.721  15.511  0.5082 -0.2741  1.0219
11695TIP3   OH256575   3.161   7.055  13.732 -0.3028  0.6739  0.3641
11695TIP3    H156576   3.162   7.138  13.684 -0.6200  0.0247 -0.8061
11695TIP3    H256577   3.166   7.080  13.824  1.7801  1.9178 -0.0397
11696TIP3   OH256578   1.084   0.699  10.958 -0.2708  0.1147  0.0663
11696TIP3    H156579   0.989   0.710  10.956 -0.3467 -0.6181 -1.2540
11696TIP3    H256580   1.110   0.695  10.866  1.4327  3.3992  0.2376
11697TIP3   OH256581   6.162   1.266  10.756 -0.2217 -0.2944  0.5009
11697TIP3    H156582   6.228   1.333  10.774 -1.1242  0.5995  0.5722
11697TIP3    H256583   6.188   1.192  10.811  0.5492  0.1500  0.7594
11698TIP3   OH256584   5.340   4.353   2.438  0.3112 -0.5017 -0.0715
11698TIP3    H156585   5.436   4.349   2.434  0.2843 -0.2783 -1.4908
11698TIP3    H256586   5.311   4.310   2.357 -0.7927 -0.5428  0.3280
11699TIP3   OH256587   5.074   4.525  12.378 -0.4211  0.8053 -0.1447
11699TIP3    H156588   5.064   4.602  12.434  0.2231  0.2484  0.7486
11699TIP3    H256589   5.132   4.555  12.308  1.7177  0.5455  1.4212
11700TIP3   OH256590   1.999   2.775   4.542  1.5330  0.2519 -0.3813
11700TIP3    H156591   1.957   2.763   4.627  0.7927  1.9820 -0.4499
11700TIP3    H256592   2.009   2.687   4.507 -3.2365 -0.3230 -0.8880
11701TIP3   OH256593   4.759   1.192  11.205  0.1093  0.0729 -0.0876
11701TIP3    H156594   4.741   1.285  11.214  0.9202  0.2436 -0.0936
11701TIP3    H256595   4.726   1.169  11.118 -0.5776  0.2239  0.1271
11702TIP3   OH256596   2.818   4.184   3.200 -0.0481  0.2892  0.0309
11702TIP3    H156597   2.854   4.156   3.117  1.6947  0.4063  0.6977
11702TIP3    H256598   2.880   4.250   3.232 -0.2864 -0.2620  1.7395
11703TIP3   OH256599   2.329   4.547  11.966  0.1229  0.5464  0.3438
11703TIP3    H156600   2.284   4.629  11.947  1.0542  0.9809 -0.0460
11703TIP3    H256601   2.364   4.558  12.054 -1.6624 -0.3228  1.2051
11704TIP3   OH256602   6.444   2.585   0.084  0.1091 -0.2846 -0.3647
11704TIP3    H156603   6.388   2.543   0.149  0.5871 -0.8087 -0.2840
11704TIP3    H256604   6.412   2.675   0.079  0.3359 -0.1155  0.9001
11705TIP3   OH256605   7.073   5.562  13.704 -0.0948  0.0719  0.5808
11705TIP3    H156606   7.145   5.556  13.641  0.7301  2.6925  1.1741
11705TIP3    H256607   7.009   5.497  13.673  1.7182 -1.0547 -0.9934
11706TIP3   OH256608   5.391   6.507   3.570 -0.2846 -0.7887 -0.1374
11706TIP3    H156609   5.343   6.581   3.606  0.8070 -0.1953  0.1135
11706TIP3    H256610   5.325   6.458   3.520 -0.7494  1.0711 -1.4348
11707TIP3   OH256611   2.315   2.313  15.643 -0.5514  0.1322  0.2911
11707TIP3    H156612   2.406   2.344  15.644 -0.8899  1.2006 -0.4014
11707TIP3    H256613   2.308   2.257  15.720  0.0349  2.0813  1.8478
11708TIP3   OH256614   1.555   2.518   3.208 -0.1461 -0.1190  0.5844
11708TIP3    H156615   1.465   2.533   3.238 -0.8026 -0.1404 -1.2598
11708TIP3    H256616   1.546   2.453   3.139  1.3015 -0.1203  0.3754
11709TIP3   OH256617   0.415   2.176   2.104  0.0969  0.5598  0.4852
11709TIP3    H156618   0.445   2.175   2.195  1.1906  0.6369  0.1387
11709TIP3    H256619   0.457   2.252   2.066  0.1722  0.1471 -0.2663
11710TIP3   OH256620   4.801   1.402  15.317 -0.0545 -0.1409 -0.5027
11710TIP3    H156621   4.827   1.341  15.247 -0.7447  0.0234 -0.9059
11710TIP3    H256622   4.723   1.363  15.355  0.8900 -0.7531  0.8717
11711TIP3   OH256623   4.762   1.600  13.887  0.0340  0.2752 -0.4237
11711TIP3    H156624   4.754   1.506  13.878 -0.2904 -0.0026  1.9980
11711TIP3    H256625   4.672   1.632  13.886 -0.0534  0.1985  1.3374
11712TIP3   OH256626   1.394   4.842  10.306  0.7185 -0.6219 -0.5847
11712TIP3    H156627   1.471   4.898  10.300  0.0828  0.2343 -0.9738
11712TIP3    H256628   1.373   4.820  10.215 -0.5606  0.6757 -0.6523
11713TIP3   OH256629   5.873   6.296  12.166  0.4612 -0.0358 -0.1896
11713TIP3    H156630   5.933   6.333  12.231 -0.4317  0.7091  0.2420
11713TIP3    H256631   5.883   6.201  12.176  2.3379  0.0473 -0.8785
11714TIP3   OH256632   0.623   3.215  14.358  0.0506 -0.1957  0.4960
11714TIP3    H156633   0.705   3.165  14.355 -0.3469 -0.8218 -1.4163
11714TIP3    H256634   0.646   3.301  14.323 -0.1925 -0.5474 -0.5647
11715TIP3   OH256635   4.332   3.150   5.179 -0.0802 -0.5878  0.1215
11715TIP3    H156636   4.317   3.089   5.251  2.3267  0.1761  1.3863
11715TIP3    H256637   4.427   3.151   5.168 -0.1881  1.3674 -1.2336
11716TIP3   OH256638   2.146   5.717   4.395  0.0568  0.4561 -0.5765
11716TIP3    H156639   2.120   5.647   4.335  0.4797  0.4341 -0.7407
11716TIP3    H256640   2.085   5.788   4.377 -0.3770  0.1312 -0.4096
11717TIP3   OH256641   6.654   6.876   2.739 -0.5874 -0.2366  0.5086
11717TIP3    H156642   6.598   6.953   2.731 -0.1233  0.0276 -0.3878
11717TIP3    H256643   6.647   6.850   2.831  0.7841  2.0738  1.3626
11718TIP3   OH256644   2.837   3.522  14.027 -0.1926 -0.2942  0.1459
11718TIP3    H156645   2.754   3.537  13.982 -0.1894 -0.0516  0.2160
11718TIP3    H256646   2.890   3.599  14.006  0.3903 -0.9171 -0.7226
11719TIP3   OH256647   4.892   1.478  13.025 -0.2143 -0.2621 -0.6688
11719TIP3    H156648   4.943   1.401  13.003 -0.6026 -0.6862 -0.0999
11719TIP3    H256649   4.930   1.511  13.106 -0.5304 -0.2945 -0.5047
11720TIP3   OH256650   2.155   4.940   5.512 -0.1915  0.1799  0.8190
11720TIP3    H156651   2.181   4.902   5.428 -0.0157 -3.6826  2.3811
11720TIP3    H256652   2.059   4.937   5.511 -0.2002 -2.8247  1.7753
11721TIP3   OH256653   0.458   2.154   0.474  0.0843  0.1834  0.3370
11721TIP3    H156654   0.407   2.088   0.428  0.7109 -0.2390  0.2332
11721TIP3    H256655   0.415   2.164   0.559 -0.1269 -0.2201  0.2754
11722TIP3   OH256656   6.422   1.578   4.114  0.3557 -0.5163 -0.1858
11722TIP3    H156657   6.439   1.660   4.159 -0.7772 -0.9199  1.0413
11722TIP3    H256658   6.500   1.524   4.132  0.9905  0.1762 -0.7900
11723TIP3   OH256659   0.814   1.110  10.541  0.2506  0.4872  0.3564
11723TIP3    H156660   0.845   1.200  10.555  0.2703  0.4207  0.7488
11723TIP3    H256661   0.836   1.092  10.450  1.4578  0.4167  0.6377
11724TIP3   OH256662   2.014   3.375   4.034 -0.4946  0.5257  0.3521
11724TIP3    H156663   2.100   3.347   4.005 -0.3498  1.1287  0.1864
11724TIP3    H256664   1.958   3.298   4.020  0.5539 -0.8639  3.1533
11725TIP3   OH256665   3.376   1.933  10.181 -0.1736 -0.1741  0.2387
11725TIP3    H156666   3.291   1.897  10.155 -0.2275  0.7913 -1.0009
11725TIP3    H256667   3.355   2.020  10.216  0.4019  0.5728 -1.2059
11726TIP3   OH256668   2.072   2.218  15.226 -0.4247  0.9897  0.5333
11726TIP3    H156669   2.036   2.132  15.249 -1.3552  1.8510  2.5089
11726TIP3    H256670   2.030   2.238  15.142 -0.3908 -0.3502  0.1609
11727TIP3   OH256671   6.008   5.952   0.052  0.5053  0.1185 -0.0421
11727TIP3    H156672   6.001   5.897   0.130  1.0259  0.6541  0.3910
11727TIP3    H256673   6.006   5.891  -0.021 -1.9337 -0.2775  0.2736
11728TIP3   OH256674   3.693   2.568   1.337  0.1719  0.3333  0.0355
11728TIP3    H156675   3.717   2.475   1.331 -0.4520  0.1204  0.6832
11728TIP3    H256676   3.667   2.592   1.248  2.8132  0.6030 -0.7418
11729TIP3   OH256677   2.343   4.459   4.264  0.4337 -0.4993  0.8976
11729TIP3    H156678   2.297   4.425   4.341 -0.2447  2.4689  1.9597
11729TIP3    H256679   2.425   4.410   4.261  0.6026 -0.5404  3.7182
11730TIP3   OH256680   6.221   6.841  12.053 -0.2315  0.0990  0.2263
11730TIP3    H156681   6.145   6.891  12.082  0.5986  1.1877  0.6294
11730TIP3    H256682   6.251   6.796  12.132 -1.6307 -1.9919 -0.3757
11731TIP3   OH256683   1.757   5.987  12.117 -0.3346  0.0131 -0.7879
11731TIP3    H156684   1.688   5.957  12.058 -0.7272 -0.7164  0.0105
11731TIP3    H256685   1.792   5.906  12.155  2.0846  0.2372 -2.3617
11732TIP3   OH256686   7.100   0.983  13.442 -0.5926 -0.4471  0.1145
11732TIP3    H156687   7.150   0.987  13.523 -0.2808 -1.1270 -0.0422
11732TIP3    H256688   7.041   0.909  13.453 -2.4322  1.0232  0.7710
11733TIP3   OH256689   2.095   4.198   0.978  0.2840  0.1348  0.5292
11733TIP3    H156690   2.153   4.189   1.054 -2.3501  1.8556  2.9436
11733TIP3    H256691   2.107   4.288   0.949  0.2771 -0.1182 -0.2992
11734TIP3   OH256692   6.516   5.955  10.355 -0.5686  0.0032  0.1401
11734TIP3    H156693   6.469   5.960  10.272 -1.5481 -0.3687  0.6507
11734TIP3    H256694   6.534   6.046  10.378  2.2104  0.0768 -1.7988
11735TIP3   OH256695   0.070   2.321   0.407  0.0766  0.3822  0.3441
11735TIP3    H156696   0.020   2.250   0.367  0.1798 -1.6319  3.4622
11735TIP3    H256697   0.155   2.317   0.363 -0.8216  0.5273 -1.5011
11736TIP3   OH256698   4.962   5.280   0.771  0.2293  0.2970  0.0038
11736TIP3    H156699   5.032   5.307   0.711  0.0016  2.5338  0.6333
11736TIP3    H256700   4.928   5.199   0.733  1.0336  0.8759 -2.1139
11737TIP3   OH256701   6.662   1.730  12.644  0.4893 -0.3426 -0.0083
11737TIP3    H156702   6.754   1.720  12.619  0.8697  1.4130  0.5651
11737TIP3    H256703   6.653   1.681  12.725  0.8202 -0.8373 -0.2693
11738TIP3   OH256704   0.960   2.171   4.600  0.1901 -0.1188  0.2330
11738TIP3    H156705   1.043   2.203   4.565 -0.7131  1.1152 -0.9177
11738TIP3    H256706   0.932   2.105   4.536 -0.1257  0.1054  0.1380
11739TIP3   OH256707   4.782   0.417  11.113  0.8326  0.7669 -0.7682
11739TIP3    H156708   4.757   0.358  11.042  0.2179 -0.9737  0.8106
11739TIP3    H256709   4.833   0.363  11.173 -0.1281  1.6969  0.9777
11740TIP3   OH256710   3.153   5.767   4.151  0.1497  0.2261 -0.2480
11740TIP3    H156711   3.061   5.793   4.149  0.0070 -0.1533  0.8400
11740TIP3    H256712   3.183   5.789   4.239  1.5263  1.7064 -1.0155
11741TIP3   OH256713   1.316   3.856  14.697  0.2497 -0.7053 -0.2763
11741TIP3    H156714   1.244   3.863  14.634 -1.2269 -0.9176  1.2984
11741TIP3    H256715   1.278   3.807  14.770  1.0267  1.7699  1.9239
11742TIP3   OH256716   4.791   5.701   0.585 -0.1277 -0.4571 -0.1234
11742TIP3    H156717   4.829   5.782   0.618 -0.8507 -0.4450  0.7255
11742TIP3    H256718   4.738   5.727   0.510  1.5115 -0.4776 -1.3344
11743TIP3   OH256719   4.472   4.883   4.764 -0.5658  0.0085 -0.7667
11743TIP3    H156720   4.424   4.965   4.780 -1.5818 -0.5823 -0.6952
11743TIP3    H256721   4.549   4.889   4.821 -2.0031 -0.2602  1.3247
11744TIP3   OH256722   3.978   6.048   0.141  0.4047 -0.1438 -0.7763
11744TIP3    H156723   3.952   6.126   0.094 -0.3857  1.7748  2.4985
11744TIP3    H256724   3.910   6.036   0.208  2.2636 -1.5647  1.0017
11745TIP3   OH256725   5.091   6.762  13.556 -0.4271 -0.1326 -0.6663
11745TIP3    H156726   5.142   6.690  13.518  0.4972  0.4046 -0.4723
11745TIP3    H256727   5.141   6.841  13.533  0.4344  0.1955  2.0254
11746TIP3   OH256728   0.702   1.556   4.723 -0.6057  0.3430  0.6137
11746TIP3    H156729   0.759   1.606   4.781 -0.5073  0.2781  0.5736
11746TIP3    H256730   0.755   1.542   4.644 -0.5695  0.0215  0.6949
11747TIP3   OH256731   5.228   5.009  12.524 -0.2896  0.4286 -0.1023
11747TIP3    H156732   5.305   5.048  12.565  0.4125 -0.0923 -0.8742
11747TIP3    H256733   5.197   5.075  12.462  0.5395  0.0364 -0.9744
11748TIP3   OH256734   5.577   5.122  11.550  0.2376  0.1809  0.3438
11748TIP3    H156735   5.541   5.100  11.464 -0.9183  0.7936  0.6496
11748TIP3    H256736   5.525   5.071  11.612 -0.0488  0.9781  0.7850
11749TIP3   OH256737   4.405   4.458   1.284  0.1109  0.5261  0.0999
11749TIP3    H156738   4.466   4.413   1.226  0.1744  1.9951 -1.0458
11749TIP3    H256739   4.318   4.430   1.255  0.1754  0.3744  0.0553
11750TIP3   OH256740   4.243   5.923  11.232 -0.3340 -0.1074  0.0047
11750TIP3    H156741   4.275   5.964  11.152  0.4679 -0.0457  0.3464
11750TIP3    H256742   4.191   5.990  11.275 -2.9976 -0.9094 -1.6876
11751TIP3   OH256743   4.946   1.679   2.338 -0.2091 -0.2339  0.2764
11751TIP3    H156744   4.991   1.738   2.399  1.5524 -0.6006 -0.5994
11751TIP3    H256745   4.866   1.653   2.384  0.3104  0.7031  1.7828
11752TIP3   OH256746   2.412   6.417  13.343 -0.5953  0.0059  0.4168
11752TIP3    H156747   2.412   6.413  13.247  1.1487 -1.0141  0.4307
11752TIP3    H256748   2.347   6.485  13.364 -0.8673  0.3809 -1.4808
11753TIP3   OH256749   3.972   2.585  14.294  0.4222 -0.5676  0.2005
11753TIP3    H156750   4.015   2.500  14.280  0.2163 -0.5064 -0.9186
11753TIP3    H256751   3.917   2.571  14.371  0.2488 -1.5221 -0.0737
11754TIP3   OH256752   6.316   2.585   1.240  0.7589 -0.4903  0.4489
11754TIP3    H156753   6.283   2.536   1.165  1.1389  0.6758 -0.5131
11754TIP3    H256754   6.329   2.519   1.308  0.4801 -1.5862 -0.5299
11755TIP3   OH256755   5.482   5.583   3.446  0.2068 -0.3631 -0.0758
11755TIP3    H156756   5.416   5.628   3.392  0.8897  0.9451  0.1333
11755TIP3    H256757   5.431   5.543   3.517 -0.4014  0.4095 -0.0645
11756TIP3   OH256758   1.656   6.863  10.264  0.4199  0.6926 -0.4548
11756TIP3    H156759   1.733   6.895  10.312  0.9050  0.5022 -1.0884
11756TIP3    H256760   1.692   6.828  10.182 -0.2158 -0.5025 -0.2358
11757TIP3   OH256761   6.117   4.292   2.766 -0.3428 -0.3746  0.2942
11757TIP3    H156762   6.097   4.381   2.794  1.3012  0.3734 -0.7075
11757TIP3    H256763   6.124   4.299   2.670  2.7001 -0.8473  0.3711
11758TIP3   OH256764   4.286   1.458   1.003  0.2241  0.2308  0.1315
11758TIP3    H156765   4.208   1.415   1.038  0.4975  0.4131  1.0039
11758TIP3    H256766   4.276   1.550   1.029  1.0439  0.1317  0.8635
11759TIP3   OH256767   5.158   6.064   1.918 -0.5387 -0.1056  0.1495
11759TIP3    H156768   5.067   6.040   1.936 -0.5879 -2.0619 -2.1324
11759TIP3    H256769   5.153   6.154   1.886 -2.1093 -0.9682 -2.3247
11760TIP3   OH256770   1.723   6.670   5.024 -0.0132  0.0933 -0.7945
11760TIP3    H156771   1.761   6.696   4.941  0.1227 -0.6782 -0.9785
11760TIP3    H256772   1.647   6.617   5.001 -1.4010  1.8458 -0.4320
11761TIP3   OH256773   6.049   3.230  15.527 -0.3242 -0.2761 -0.0497
11761TIP3    H156774   5.967   3.258  15.487 -1.5547 -1.0716  1.7796
11761TIP3    H256775   6.042   3.134  15.531  1.3210 -0.4863 -1.0754
11762TIP3   OH256776   1.048   3.050  10.299  0.6693 -0.2464  0.1761
11762TIP3    H156777   1.023   3.037  10.390  2.8999  0.7706  1.0159
11762TIP3    H256778   1.096   2.971  10.275  1.8661  0.3359  0.5906
11763TIP3   OH256779   2.164   4.485   4.061  0.2815 -0.4387 -0.5396
11763TIP3    H156780   2.072   4.479   4.085  0.4184 -0.6049 -0.0458
11763TIP3    H256781   2.211   4.482   4.145  0.7745 -1.1506 -0.8388
11764TIP3   OH256782   5.527   6.930  13.285 -0.4614  0.3451 -0.0930
11764TIP3    H156783   5.613   6.935  13.244  0.2221  0.8234  1.3209
11764TIP3    H256784   5.470   6.890  13.219  1.7852 -4.2286  0.3527
11765TIP3   OH256785   3.787   1.880  15.153 -0.2109  0.1280 -0.8599
11765TIP3    H156786   3.750   1.850  15.236  1.7397  0.1528  0.0885
11765TIP3    H256787   3.880   1.857  15.159  0.8342  3.6003 -1.3568
11766TIP3   OH256788   6.779   5.087   3.495 -0.3155 -0.0240 -0.2549
11766TIP3    H156789   6.751   5.048   3.578 -0.8323  0.4807 -0.1884
11766TIP3    H256790   6.824   5.016   3.449 -1.6816 -0.8488 -0.3555
11767TIP3   OH256791   2.732   6.352  15.230  0.1203  0.3459  0.4150
11767TIP3    H156792   2.752   6.351  15.136 -0.0307 -4.5746  0.2235
11767TIP3    H256793   2.811   6.387  15.271  1.8490 -1.1987 -1.3924
11768TIP3   OH256794   3.836   0.413   2.982 -0.2283  0.3823 -0.1171
11768TIP3    H156795   3.850   0.332   2.932  0.2432  1.1459 -1.2440
11768TIP3    H256796   3.742   0.412   3.003 -0.1429 -0.6767  0.2926
11769TIP3   OH256797   6.718   6.682  14.083  0.1292 -0.2168 -0.0301
11769TIP3    H156798   6.680   6.597  14.107  1.2225 -0.2316  1.8553
11769TIP3    H256799   6.647   6.729  14.041 -1.6920 -0.6614  2.3550
11770TIP3   OH256800   6.346   1.352  11.515  0.0041 -0.2085 -0.0594
11770TIP3    H156801   6.438   1.377  11.509  0.4656 -2.0180 -1.4179
11770TIP3    H256802   6.348   1.257  11.525 -1.6536 -0.9600 -4.4468
11771TIP3   OH256803   6.387   1.070   3.519  0.1334  0.4181 -0.2017
11771TIP3    H156804   6.356   1.131   3.586  0.2356  1.5774 -1.1881
11771TIP3    H256805   6.431   1.001   3.569 -1.6821  0.0938  1.0655
11772TIP3   OH256806   1.742   0.809   1.033 -0.1067 -0.4972  0.0535
11772TIP3    H156807   1.833   0.815   1.064 -0.6634 -1.1620  1.9776
11772TIP3    H256808   1.726   0.892   0.988  1.9736 -1.0812 -1.9526
11773TIP3   OH256809   1.270   5.478  15.359 -0.0115 -0.0113  0.0573
11773TIP3    H156810   1.243   5.435  15.440  0.7319 -0.4128  0.0993
11773TIP3    H256811   1.365   5.481  15.364 -0.0188  1.1781 -0.1890
11774TIP3   OH256812   5.250   1.558  11.088 -0.0561 -0.4444  0.1652
11774TIP3    H156813   5.173   1.507  11.111 -0.5444 -0.4926 -1.4108
11774TIP3    H256814   5.215   1.642  11.057  0.6644  0.3767  1.4908
11775TIP3   OH256815   0.776   2.313   2.153 -0.3922  0.1826 -0.0875
11775TIP3    H156816   0.711   2.383   2.153  0.4078  0.9555 -1.0852
11775TIP3    H256817   0.728   2.235   2.178 -1.4032  1.0010  0.6007
11776TIP3   OH256818   6.392   3.625   4.153  0.5478 -0.4642 -0.4913
11776TIP3    H156819   6.399   3.540   4.197  0.3852 -0.3319 -0.2054
11776TIP3    H256820   6.454   3.619   4.081  0.9321 -0.6333 -0.1540
11777TIP3   OH256821   3.514   4.206  12.375 -0.1483  0.1762  0.1325
11777TIP3    H156822   3.496   4.300  12.371 -1.9731 -0.1274  0.3845
11777TIP3    H256823   3.609   4.200  12.366 -0.0922  1.9670 -1.1066
11778TIP3   OH256824   2.652   5.746  14.153 -0.2962  0.6639  0.0357
11778TIP3    H156825   2.744   5.747  14.180 -0.6060  1.4378  1.1300
11778TIP3    H256826   2.654   5.717  14.061  0.8401 -1.5833  0.6914
11779TIP3   OH256827   4.429   6.810  15.103  0.0971  0.3650  0.2393
11779TIP3    H156828   4.491   6.754  15.057 -0.6109  0.1807 -0.5248
11779TIP3    H256829   4.457   6.899  15.082 -0.5485  0.2909 -1.0626
11780TIP3   OH256830   7.106   5.174  13.645 -0.4870 -0.3388  0.7204
11780TIP3    H156831   7.036   5.179  13.710  1.0707 -0.8474  2.5203
11780TIP3    H256832   7.138   5.084  13.651 -1.1835 -0.8265 -1.7979
11781TIP3   OH256833   3.728   1.908  10.874  0.1702 -0.5316 -0.1298
11781TIP3    H156834   3.636   1.912  10.850 -0.4080 -2.7874  1.3453
11781TIP3    H256835   3.741   1.981  10.934 -1.1627 -1.2073  1.0383
11782TIP3   OH256836   4.407   5.169   1.904 -0.2989 -0.2411 -0.7341
11782TIP3    H156837   4.341   5.239   1.898 -0.3043 -0.1511  0.2525
11782TIP3    H256838   4.452   5.171   1.819 -0.7731  0.4841 -0.9779
11783TIP3   OH256839   0.753   7.112   4.585  0.7458 -0.4006  0.2166
11783TIP3    H156840   0.755   7.131   4.491 -0.9604 -2.0249 -0.1950
11783TIP3    H256841   0.747   7.198   4.626  2.5201  0.4096 -1.0745
11784TIP3   OH256842   5.463   6.233  14.325  0.2876  0.7213  0.0348
11784TIP3    H156843   5.482   6.172  14.396 -1.5879  0.3230  0.2473
11784TIP3    H256844   5.519   6.309  14.342  0.6155  0.2029  1.3650
11785TIP3   OH256845   1.428   0.448   3.405 -0.5404  0.1347  0.3908
11785TIP3    H156846   1.446   0.434   3.312  1.0217 -0.4046  0.7493
11785TIP3    H256847   1.388   0.366   3.434 -0.6869  0.1660  0.2768
11786TIP3   OH256848   2.933   3.222   3.945  0.3217 -0.2361  0.0221
11786TIP3    H156849   2.973   3.152   3.996 -0.1960  0.1354  0.9565
11786TIP3    H256850   2.871   3.264   4.005 -0.2552  0.2544 -0.8850
11787TIP3   OH256851   1.311   6.919  10.413  0.2450  0.0254  0.7403
11787TIP3    H156852   1.275   6.913  10.325  0.0061 -2.0670  0.9288
11787TIP3    H256853   1.373   6.993  10.409  0.1632  0.0372 -1.1308
11788TIP3   OH256854   3.850   1.414  14.625  0.0718 -0.5488  0.2194
11788TIP3    H156855   3.816   1.502  14.608 -0.5393 -1.0910 -1.5823
11788TIP3    H256856   3.932   1.411  14.576  0.7510 -0.5751  1.3331
11789TIP3   OH256857   1.932   0.073  11.696  0.5046 -0.8220  0.3914
11789TIP3    H156858   1.879   0.137  11.744 -0.1708 -1.5363  0.6190
11789TIP3    H256859   1.942  -0.000  11.756 -1.0034 -2.0640 -0.7618
11790TIP3   OH256860   6.135   3.753   1.872  0.3116 -0.4139  0.2908
11790TIP3    H156861   6.132   3.847   1.853  0.7001 -0.1088  1.6607
11790TIP3    H256862   6.053   3.719   1.836 -0.0150  0.5045  0.1302
11791TIP3   OH256863   1.126   1.954  14.762 -0.2474 -0.2557  0.8556
11791TIP3    H156864   1.136   1.915  14.676  0.2377  0.2826  0.6586
11791TIP3    H256865   1.061   2.023  14.750 -0.6803 -0.6244  1.0728
11792TIP3   OH256866   1.712   2.914   4.500  0.4531  0.5297 -0.0942
11792TIP3    H156867   1.792   2.945   4.542 -0.4343 -0.6814  2.6719
11792TIP3    H256868   1.737   2.831   4.459  0.7872  0.5989 -0.0347
11793TIP3   OH256869   4.293   1.262   5.468  0.4436  0.0501 -0.3216
11793TIP3    H156870   4.328   1.277   5.556 -1.3806 -0.9571  0.6397
11793TIP3    H256871   4.223   1.198   5.481 -0.4195  0.4999 -2.4010
11794TIP3   OH256872   5.312   0.447   3.304 -0.1620  0.3532 -0.0975
11794TIP3    H156873   5.247   0.516   3.319 -0.4146  0.5861 -1.9477
11794TIP3    H256874   5.266   0.383   3.249  0.6343 -0.3632  0.0523
11795TIP3   OH256875   7.053   0.316  10.021  0.1322  0.1117  0.5657
11795TIP3    H156876   7.056   0.329   9.927 -1.5256  0.1431  0.4857
11795TIP3    H256877   7.124   0.254  10.040  0.9883  0.7178 -0.5694
11796TIP3   OH256878   4.754   6.966   2.057 -0.4959 -0.5784  0.1881
11796TIP3    H156879   4.752   7.061   2.044 -1.2736 -0.4455  1.1502
11796TIP3    H256880   4.835   6.949   2.104 -0.4957 -0.3553  0.2679
11797TIP3   OH256881   5.654   5.059   2.388 -0.4471 -0.3308 -0.1795
11797TIP3    H156882   5.606   5.036   2.308  0.3750 -1.3001 -0.4116
11797TIP3    H256883   5.699   5.141   2.366  0.2630 -0.9085 -0.9388
11798TIP3   OH256884   6.322   3.104   1.656 -0.1481 -0.2223 -0.6779
11798TIP3    H156885   6.411   3.138   1.655 -0.0683 -0.3718  0.5242
11798TIP3    H256886   6.267   3.181   1.672 -0.0014 -0.5088  1.5450
11799TIP3   OH256887   1.898   3.474  11.697  0.0306  0.1922 -0.4935
11799TIP3    H156888   1.947   3.550  11.667 -0.0095  0.1831 -0.5827
11799TIP3    H256889   1.927   3.461  11.787 -1.4482  1.5467  0.2348
11800TIP3   OH256890   5.541   5.073   0.147  0.0511 -0.0813  0.2124
11800TIP3    H156891   5.537   5.140   0.078  2.3478 -1.5577 -1.4724
11800TIP3    H256892   5.516   5.120   0.226 -2.6949  1.7042 -1.5407
11801TIP3   OH256893   3.073   6.999   1.840 -0.1011  0.0651  0.9992
11801TIP3    H156894   3.021   7.028   1.765 -0.7030 -0.5148  1.1796
11801TIP3    H256895   3.081   7.076   1.896 -0.8950  0.1324  1.0319
11802TIP3   OH256896   0.837   0.989  13.485  0.1809 -0.1870  0.3629
11802TIP3    H156897   0.920   1.012  13.527  1.7741 -0.8912 -2.1947
11802TIP3    H256898   0.799   0.922  13.543  0.6063  1.2069  2.3573
11803TIP3   OH256899   0.008   4.026   1.494 -0.6050 -0.3755 -0.0587
11803TIP3    H156900  -0.025   4.078   1.421  0.4433  0.6279  0.1466
11803TIP3    H256901   0.001   4.083   1.570 -0.1819 -0.8150  0.3183
11804TIP3   OH256902   7.090   0.433   4.361 -0.0303  0.0726  0.0750
11804TIP3    H156903   7.046   0.351   4.385  0.5301 -0.3665 -0.3668
11804TIP3    H256904   7.049   0.499   4.417  0.6855 -0.7772  1.6664
11805TIP3   OH256905   3.841   4.416  14.348 -0.9885 -0.1721  0.2222
11805TIP3    H156906   3.908   4.370  14.399 -0.0227 -0.6490 -1.4075
11805TIP3    H256907   3.764   4.416  14.405 -0.0824 -1.0498  1.5048
11806TIP3   OH256908   5.194   2.480  10.969 -0.1419 -0.0137  0.3803
11806TIP3    H156909   5.115   2.434  10.942 -0.4344  1.9734 -2.6699
11806TIP3    H256910   5.175   2.509  11.058 -2.1133 -1.1409  0.3876
11807TIP3   OH256911   0.100   3.174  10.488  0.3477  0.2289  0.6131
11807TIP3    H156912   0.046   3.251  10.467  0.0756 -0.1254 -0.0239
11807TIP3    H256913   0.188   3.198  10.461  0.2596  0.3145  0.3977
11808TIP3   OH256914   0.141   0.600   0.460 -0.3210 -0.4997 -0.3659
11808TIP3    H156915   0.115   0.686   0.429 -0.2372  0.5516  2.2362
11808TIP3    H256916   0.089   0.539   0.408 -1.6107  1.1733 -1.1331
11809TIP3   OH256917   1.794   3.416  13.336  0.2167 -0.3572  0.2306
11809TIP3    H156918   1.797   3.328  13.298 -1.1314 -0.1154 -0.5271
11809TIP3    H256919   1.700   3.436  13.341  0.4836  0.7944  0.9733
11810TIP3   OH256920   6.841   0.506  12.493  0.2243  0.3291 -0.1626
11810TIP3    H156921   6.876   0.554  12.418 -0.8647  1.8250  0.2499
11810TIP3    H256922   6.799   0.429  12.454  1.7589 -0.2086 -0.8571
11811TIP3   OH256923   6.338   4.563  14.396 -0.2800  0.0535 -0.3954
11811TIP3    H156924   6.414   4.539  14.343  0.8341 -0.5164  1.3719
11811TIP3    H256925   6.355   4.654  14.421 -0.3742  0.0498 -0.3207
11812TIP3   OH256926   6.505   1.813   4.225 -0.1273  0.1879 -0.5715
11812TIP3    H156927   6.481   1.813   4.318  3.2797 -0.3243  0.4455
11812TIP3    H256928   6.508   1.906   4.201  0.0270  0.3800  0.1613
11813TIP3   OH256929   5.482   0.156  10.045  0.5025 -0.3765 -0.3519
11813TIP3    H156930   5.473   0.138   9.952 -3.3368  2.9831 -0.8734
11813TIP3    H256931   5.544   0.228  10.050  0.2279 -0.1359 -0.3914
11814TIP3   OH256932   0.557   4.784   2.402 -0.7521  0.0211 -0.4668
11814TIP3    H156933   0.519   4.852   2.347 -0.2463 -1.1437 -2.3580
11814TIP3    H256934   0.484   4.750   2.453 -1.4690  0.4104 -1.2196
11815TIP3   OH256935   6.547   4.350   2.221  0.0664  0.4525 -0.1202
11815TIP3    H156936   6.488   4.275   2.233  0.5397  0.1601  0.4004
11815TIP3    H256937   6.566   4.380   2.310  2.6277 -0.9597 -0.0985
11816TIP3   OH256938   0.762   4.058  10.014  0.1505 -0.0983  0.7066
11816TIP3    H156939   0.824   3.985  10.013  0.1423 -0.1068  0.7883
11816TIP3    H256940   0.700   4.037  10.084 -2.2737 -1.9911 -1.8147
11817TIP3   OH256941   3.961   0.083  11.335 -0.7483 -0.1123 -0.0238
11817TIP3    H156942   3.900   0.064  11.263 -1.2476 -1.0734  0.6379
11817TIP3    H256943   4.029   0.137  11.294 -1.3608 -0.0927 -1.0686
11818TIP3   OH256944   1.211   6.481  13.139 -0.3836  0.7430  0.8305
11818TIP3    H156945   1.128   6.517  13.108  0.0655  1.6804  0.6683
11818TIP3    H256946   1.244   6.547  13.200  1.4974  1.7345 -1.1090
11819TIP3   OH256947   2.637   0.934   0.680  0.0906  0.0492  0.3728
11819TIP3    H156948   2.577   0.883   0.624  0.4139 -0.8565  0.8251
11819TIP3    H256949   2.714   0.877   0.690  0.6346  0.8110  0.5616
11820TIP3   OH256950   2.317   5.534   4.052 -0.2340  0.7845 -0.1282
11820TIP3    H156951   2.396   5.548   4.000 -0.8138  0.6129 -1.0831
11820TIP3    H256952   2.349   5.503   4.137  0.7035 -0.2638 -0.8329
11821TIP3   OH256953   1.543   5.908  10.846  0.4479 -0.2375 -0.6616
11821TIP3    H156954   1.496   5.972  10.900 -0.3872 -0.1192 -1.4889
11821TIP3    H256955   1.627   5.949  10.827 -0.0097  0.5682 -1.0373
11822TIP3   OH256956   5.463   6.998   9.942 -0.1077 -0.2323  0.0540
11822TIP3    H156957   5.462   6.905   9.919 -0.9410  0.4522 -3.1779
11822TIP3    H256958   5.548   7.029   9.912 -0.4954  0.3611 -0.4548
11823TIP3   OH256959   1.595   0.492  12.018 -0.7485  0.5129  0.0772
11823TIP3    H156960   1.603   0.518  11.927 -0.2027 -1.5807 -0.5292
11823TIP3    H256961   1.674   0.527  12.060  1.0952 -1.7754 -1.1854
11824TIP3   OH256962   6.315   6.376   1.560 -0.2777  0.6657 -0.2900
11824TIP3    H156963   6.258   6.447   1.588 -0.0238 -0.0244  2.2674
11824TIP3    H256964   6.400   6.398   1.599  0.1076 -0.4121 -0.4990
11825TIP3   OH256965   5.673   1.490   3.418 -0.0489  0.0344 -0.6146
11825TIP3    H156966   5.590   1.481   3.371  0.2129  0.8565 -1.2690
11825TIP3    H256967   5.740   1.471   3.352  0.2889 -1.4706  0.1174
11826TIP3   OH256968   3.118   5.690   3.331  0.1304 -0.2393 -0.0614
11826TIP3    H156969   3.132   5.666   3.422  0.3861  1.4720  0.3836
11826TIP3    H256970   3.205   5.688   3.291 -0.2054 -2.9616 -0.8422
11827TIP3   OH256971   2.129   3.162  14.342 -0.2250  0.4328  0.2100
11827TIP3    H156972   2.145   3.168  14.436 -0.8901  1.2648  0.2871
11827TIP3    H256973   2.083   3.243  14.320  0.4074  0.4996 -0.9416
11828TIP3   OH256974   5.570   5.740   0.499  0.2192 -0.7117 -0.3378
11828TIP3    H156975   5.602   5.789   0.423  1.0896  0.0143  0.4736
11828TIP3    H256976   5.480   5.769   0.510  0.4383  0.0269 -0.4307
11829TIP3   OH256977   4.220   2.653   0.432 -0.3635  0.4217 -0.0647
11829TIP3    H156978   4.289   2.634   0.368 -1.6192 -0.7768 -1.1323
11829TIP3    H256979   4.229   2.747   0.449  2.4438  0.0343  0.9936
11830TIP3   OH256980   0.775   4.097   2.984 -0.8328 -0.3539 -0.0669
11830TIP3    H156981   0.765   4.027   3.048 -3.9729 -1.2953 -1.4198
11830TIP3    H256982   0.773   4.052   2.899  0.2249  1.1451 -0.9375
11831TIP3   OH256983   6.058   1.158  10.448 -0.1155  0.5255 -0.0606
11831TIP3    H156984   5.989   1.131  10.509 -0.3338 -1.7031 -1.1610
11831TIP3    H256985   6.061   1.087  10.383  3.5073  0.2352  0.1754
11832TIP3   OH256986   1.978   4.417  13.380 -0.2469  0.1012  0.6772
11832TIP3    H156987   1.889   4.388  13.361  0.0992 -0.3428 -0.3083
11832TIP3    H256988   2.002   4.473  13.307  0.8480 -1.0511  0.1227
11833TIP3   OH256989   4.375   1.159   3.953 -0.0943  0.4071  0.7060
11833TIP3    H156990   4.363   1.226   3.886  1.2102 -0.1286 -0.1154
11833TIP3    H256991   4.452   1.189   4.002  1.9797 -1.5159 -1.1221
11834TIP3   OH256992   1.751   1.380  12.732 -0.1109 -0.5169 -0.3297
11834TIP3    H156993   1.759   1.304  12.790  0.6402  0.7052  1.2805
11834TIP3    H256994   1.724   1.451  12.791 -0.7823  0.4770 -1.7839
11835TIP3   OH256995   5.118   2.062   4.203 -0.4005  0.6227 -0.8628
11835TIP3    H156996   5.188   2.108   4.250 -0.8767  0.0465  0.4483
11835TIP3    H256997   5.037   2.094   4.243 -0.7823 -0.5136 -0.7018
11836TIP3   OH256998   5.297   6.006   3.798 -0.3138 -0.1571  0.2980
11836TIP3    H156999   5.229   5.980   3.736  0.3382  2.4626 -1.7217
11836TIP3    H257000   5.375   5.958   3.770 -0.0577  0.9065 -0.9189
11837TIP3   OH257001   0.203   5.307  13.648  0.1919  0.1697 -0.2259
11837TIP3    H157002   0.138   5.242  13.622  0.2045 -0.6840  1.6605
11837TIP3    H257003   0.189   5.317  13.743  0.8066  2.2463 -0.3085
11838TIP3   OH257004   6.544   6.343   1.745 -0.2567 -0.1511  0.0409
11838TIP3    H157005   6.638   6.329   1.755 -0.4120 -0.5504  1.1156
11838TIP3    H257006   6.504   6.259   1.771 -0.8521 -0.8331 -2.6844
11839TIP3   OH257007   4.141   3.512  12.802  0.5413  0.5058 -0.3123
11839TIP3    H157008   4.079   3.547  12.737  1.6129  1.7228 -0.7188
11839TIP3    H257009   4.150   3.582  12.867 -1.1016 -0.9721  1.6445
11840TIP3   OH257010   1.719   4.159   1.252  0.5077 -0.1129 -0.8398
11840TIP3    H157011   1.693   4.241   1.209  0.2189  0.1571 -0.1671
11840TIP3    H257012   1.748   4.187   1.339  0.8736 -0.6748 -0.7799
11841TIP3   OH257013   1.225   5.967  11.437 -0.2191 -0.0342 -0.1444
11841TIP3    H157014   1.216   5.906  11.365  0.3101 -0.5291  0.2039
11841TIP3    H257015   1.243   6.051  11.395  0.1750 -0.3350 -0.5909
11842TIP3   OH257016   7.098   0.942   4.361 -0.2572  0.1452 -0.0318
11842TIP3    H157017   7.085   1.009   4.293  0.6030  0.2173 -0.1370
11842TIP3    H257018   7.145   0.988   4.431 -0.7077 -0.0539  0.4065
11843TIP3   OH257019   5.307   2.963   1.670  0.4378 -0.3468  0.3236
11843TIP3    H157020   5.238   2.904   1.701 -0.9709 -0.2391 -2.2615
11843TIP3    H257021   5.259   3.038   1.635  1.8546 -0.1492 -1.3251
11844TIP3   OH257022   1.746   2.849   0.040  0.0821  0.0879  0.5529
11844TIP3    H157023   1.793   2.906  -0.020 -1.3051 -1.0400 -1.7415
11844TIP3    H257024   1.688   2.908   0.089  0.0927  0.8709 -0.3494
11845TIP3   OH257025   4.265   5.940   2.552  0.0441  0.1756  0.1281
11845TIP3    H157026   4.174   5.936   2.525 -0.0983 -0.2902  0.6585
11845TIP3    H257027   4.301   6.015   2.505 -0.6864  0.5383  0.1334
11846TIP3   OH257028   2.767   4.521  12.561  0.1030 -0.2871  0.1380
11846TIP3    H157029   2.774   4.429  12.537  0.6499  0.0163 -0.9511
11846TIP3    H257030   2.716   4.560  12.490 -0.7003  0.1439  0.9229
11847TIP3   OH257031   3.060   3.037  14.081 -0.0268  0.3907  0.0029
11847TIP3    H157032   3.031   3.051  13.991  2.0102  0.2245 -0.7280
11847TIP3    H257033   3.000   3.089  14.134 -0.3176  1.7562 -1.5909
11848TIP3   OH257034   0.917   5.309  11.918 -0.5024  0.0478  0.1342
11848TIP3    H157035   1.004   5.276  11.939  0.2447  1.8851  0.1546
11848TIP3    H257036   0.906   5.292  11.824  0.7277  1.4838 -0.3196
11849TIP3   OH257037   6.149   4.434   5.843 -0.4833 -0.8212 -0.1304
11849TIP3    H157038   6.148   4.529   5.855  2.2047 -0.7672  0.3350
11849TIP3    H257039   6.058   4.407   5.857 -0.9493  1.4439  1.9049
11850TIP3   OH257040   6.890   1.967  11.087 -0.3724  0.1463 -0.0089
11850TIP3    H157041   6.824   2.037  11.093 -1.5075 -0.8893 -0.0237
11850TIP3    H257042   6.971   2.008  11.115 -1.3259  1.0781  1.4981
11851TIP3   OH257043   5.730   2.935  11.966 -0.2000  0.6143 -0.4599
11851TIP3    H157044   5.788   3.006  11.940  1.3878 -0.4350  0.0981
11851TIP3    H257045   5.683   2.969  12.043  3.4234 -0.1421  2.3895
11852TIP3   OH257046   2.945   2.649  12.469  0.1850 -0.1537 -0.1728
11852TIP3    H157047   3.018   2.673  12.412  0.1595  0.2805 -0.0236
11852TIP3    H257048   2.980   2.579  12.524  0.7299  0.5519  0.4059
11853TIP3   OH257049   5.932   0.137   2.090 -0.2841 -0.1303  0.5269
11853TIP3    H157050   6.014   0.088   2.092 -0.7579 -1.0133 -0.3060
11853TIP3    H257051   5.947   0.207   2.026  0.1872  0.4389  1.2446
11854TIP3   OH257052   7.079   6.307  13.915 -0.2218  0.0949 -0.3273
11854TIP3    H157053   7.080   6.395  13.877  0.0551 -0.2629 -1.1681
11854TIP3    H257054   7.161   6.267  13.886  0.8567  0.3783  2.0682
11855TIP3   OH257055   1.336   7.087  13.644  0.0373  0.5184  0.2453
11855TIP3    H157056   1.334   7.183  13.650 -1.2141  0.4845  0.7831
11855TIP3    H257057   1.265   7.059  13.702 -0.1407 -0.7026 -0.5472
11856TIP3   OH257058   3.512   0.124   3.056  0.5067 -0.1868  0.0767
11856TIP3    H157059   3.587   0.117   3.115  0.8876 -0.0438 -0.3844
11856TIP3    H257060   3.483   0.215   3.063 -0.4463 -0.5613  1.2385
11857TIP3   OH257061   2.397   4.362   3.586  0.3731  0.8558 -0.5960
11857TIP3    H157062   2.329   4.427   3.603  1.5792  1.5065  2.4462
11857TIP3    H257063   2.477   4.413   3.576  1.0424 -0.0394 -0.0030
11858TIP3   OH257064   1.538   0.362  11.573  0.4895  0.2378  0.4784
11858TIP3    H157065   1.507   0.388  11.660 -0.6739  0.8845 -0.1151
11858TIP3    H257066   1.631   0.340  11.587 -0.0560 -1.2976  2.2166
11859TIP3   OH257067   4.824   2.997   5.059 -0.6432 -0.2022  0.7097
11859TIP3    H157068   4.809   3.053   4.983 -1.4389  0.4103  1.3054
11859TIP3    H257069   4.737   2.975   5.091 -0.4292 -2.8702 -0.2447
11860TIP3   OH257070   3.446   6.692  12.357  0.1240  0.2461  0.2502
11860TIP3    H157071   3.394   6.715  12.280  0.6771  3.8559  0.8074
11860TIP3    H257072   3.382   6.655  12.418 -1.6304  3.0897  0.3217
11861TIP3   OH257073   1.630   1.078   0.913 -0.0528 -0.1948 -0.1463
11861TIP3    H157074   1.671   1.155   0.953  0.2760 -0.1082 -0.6346
11861TIP3    H257075   1.543   1.108   0.887  0.1278  0.0626 -0.4698
11862TIP3   OH257076   1.859   5.689  11.082  0.4726 -0.0458 -0.3788
11862TIP3    H157077   1.796   5.617  11.086 -0.6376  0.8360 -1.4411
11862TIP3    H257078   1.931   5.660  11.139 -1.0059 -0.9479  1.1527
11863TIP3   OH257079   2.569   0.017   3.754 -0.1474  0.3405 -0.2689
11863TIP3    H157080   2.629   0.087   3.727 -0.6415  0.4207 -1.1687
11863TIP3    H257081   2.493   0.063   3.790 -0.6463  0.2806 -1.2313
11864TIP3   OH257082   3.881   7.150   3.269  0.9664  0.1372  0.6247
11864TIP3    H157083   3.820   7.122   3.201 -0.3889  2.3541  0.8426
11864TIP3    H257084   3.890   7.072   3.325 -1.4674 -0.3914  0.4266
11865TIP3   OH257085   2.100   1.229   0.499 -0.0750 -0.5511 -0.0715
11865TIP3    H157086   2.047   1.150   0.510 -1.0605  0.1909  0.7892
11865TIP3    H257087   2.179   1.211   0.550 -1.0507 -0.3454  1.5888
11866TIP3   OH257088   1.523   4.253   2.145 -0.0561  0.2658  0.5603
11866TIP3    H157089   1.481   4.278   2.227 -3.4127 -0.1170 -0.8818
11866TIP3    H257090   1.598   4.312   2.137 -0.0827  0.8462  3.4320
11867TIP3   OH257091   1.190   0.001   0.410 -1.1829 -0.7325  0.0057
11867TIP3    H157092   1.189   0.096   0.417 -0.4768 -0.7780  0.8321
11867TIP3    H257093   1.263  -0.019   0.351 -1.1107 -0.7800  0.1110
11868TIP3   OH257094   4.884   7.028   1.186  0.1101  0.5319 -0.2303
11868TIP3    H157095   4.864   7.059   1.274 -0.2502  0.2584 -0.2116
11868TIP3    H257096   4.883   6.933   1.193 -0.8981  0.4911 -0.7310
11869TIP3   OH257097   1.102   7.057   4.065  0.0417 -0.0328 -0.1289
11869TIP3    H157098   1.109   6.984   4.003 -0.6363  0.1917 -0.4867
11869TIP3    H257099   1.090   7.015   4.150  1.4139 -0.3501 -0.0733
11870TIP3   OH257100   0.680   4.319   0.756 -0.3093  0.1668  0.0801
11870TIP3    H157101   0.617   4.269   0.703 -0.0621 -1.3398  1.1647
11870TIP3    H257102   0.764   4.277   0.738  0.6698  2.7505 -2.0997
11871TIP3   OH257103   6.390   3.361   9.996 -0.6757  0.2651 -0.2402
11871TIP3    H157104   6.460   3.334  10.056 -0.9920 -0.5023 -0.2051
11871TIP3    H257105   6.309   3.340  10.043 -0.9383  1.0929 -0.3014
11872TIP3   OH257106   1.397   4.527  13.156  0.9949  0.0994  0.3705
11872TIP3    H157107   1.348   4.509  13.076 -0.5022  1.0036  1.0388
11872TIP3    H257108   1.386   4.448  13.209  1.2863 -0.1712  0.0315
11873TIP3   OH257109   4.882   4.251   4.241  0.0362 -0.1839  0.3911
11873TIP3    H157110   4.844   4.195   4.310  1.5706 -1.5521  0.1833
11873TIP3    H257111   4.916   4.327   4.288 -1.0963  0.0808  0.8212
11874TIP3   OH257112   2.079   6.696  11.701 -0.0335 -0.1717  0.1264
11874TIP3    H157113   1.986   6.714  11.712  0.0247  0.0293  0.3019
11874TIP3    H257114   2.092   6.688  11.607 -0.0269  0.8855  0.0269
11875TIP3   OH257115   3.788   2.244  13.655 -0.0215 -0.4480 -0.0023
11875TIP3    H157116   3.756   2.159  13.685  0.6853 -0.2166  1.4586
11875TIP3    H257117   3.860   2.223  13.596 -0.4922 -0.8713 -0.4444
11876TIP3   OH257118   3.639   1.826  10.393 -0.1334  0.6687 -0.4625
11876TIP3    H157119   3.579   1.800  10.462  0.9913 -2.7070 -0.5540
11876TIP3    H257120   3.722   1.842  10.438  0.6155 -1.5852 -0.9070
11877TIP3   OH257121   0.968   4.592   2.059 -0.2894 -0.0847  0.5720
11877TIP3    H157122   0.906   4.626   1.994 -0.0823 -0.4193  0.1964
11877TIP3    H257123   0.913   4.542   2.120 -0.4727  0.1474  0.5994
11878TIP3   OH257124   4.082   1.984   0.170  0.3115 -0.3397 -0.3844
11878TIP3    H157125   3.996   1.949   0.147  0.5599  0.8331 -3.4711
11878TIP3    H257126   4.062   2.064   0.219 -0.3417 -0.5141 -0.3490
11879TIP3   OH257127   5.836   0.444  13.722 -0.0702 -0.2211  0.5045
11879TIP3    H157128   5.791   0.419  13.803  0.2236  1.7455  1.3172
11879TIP3    H257129   5.928   0.450  13.746 -0.0506  0.9685  0.2068
11880TIP3   OH257130   4.820   5.657   3.699 -0.3171 -0.0306  0.5616
11880TIP3    H157131   4.884   5.683   3.632  0.9265 -0.2634  1.6358
11880TIP3    H257132   4.756   5.729   3.700 -0.0048  0.2825 -0.4083
11881TIP3   OH257133   2.455   4.039  12.116 -0.6128 -0.7178 -0.0498
11881TIP3    H157134   2.418   3.960  12.076 -0.1468 -1.1612  0.3874
11881TIP3    H257135   2.549   4.022  12.120 -0.7342 -1.0775  2.1050
11882TIP3   OH257136   4.306   1.046  14.216 -0.1776  0.4590  0.2021
11882TIP3    H157137   4.329   0.953  14.207  1.3064  0.8335 -0.1725
11882TIP3    H257138   4.256   1.051  14.297 -0.0379 -0.6297  0.3712
11883TIP3   OH257139   4.763   2.868   4.094  0.0670  0.0481 -0.2225
11883TIP3    H157140   4.818   2.922   4.151 -1.6559  0.1903  1.3866
11883TIP3    H257141   4.675   2.876   4.130 -0.6343 -2.0515 -1.2878
11884TIP3   OH257142   5.259   5.548   0.480  0.5481  0.0170 -0.2730
11884TIP3    H157143   5.305   5.529   0.398  0.7955 -0.0026 -0.1289
11884TIP3    H257144   5.234   5.640   0.473  0.6716  0.0464 -0.3182
11885TIP3   OH257145   3.349   5.741  13.456  0.2376  0.3683  0.3143
11885TIP3    H157146   3.346   5.801  13.532 -1.3502  1.1395 -0.2989
11885TIP3    H257147   3.355   5.654  13.495  1.4850  0.8359  1.2621
11886TIP3   OH257148   4.453   2.621  13.702  0.3946  0.0790  0.0888
11886TIP3    H157149   4.478   2.616  13.794 -0.1705 -0.0870  0.2380
11886TIP3    H257150   4.385   2.688  13.699  0.9432  0.6327 -0.3346
11887TIP3   OH257151   1.398   0.673  12.201 -0.5185  0.1330  0.4648
11887TIP3    H157152   1.435   0.585  12.209 -0.9152 -0.3983 -2.4653
11887TIP3    H257153   1.469   0.731  12.228  0.6390 -1.0361  0.0433
11888TIP3   OH257154   1.843   5.116  10.950 -0.0978  0.5803 -0.2378
11888TIP3    H157155   1.894   5.191  10.920 -1.2053  1.8004  0.8261
11888TIP3    H257156   1.820   5.137  11.040 -0.6018 -0.9620  0.0236
11889TIP3   OH257157   5.509   2.089   6.032  0.5224 -0.4418 -0.5770
11889TIP3    H157158   5.488   2.145   6.107  0.1859 -1.2717 -0.0357
11889TIP3    H257159   5.589   2.126   5.996 -0.1946  0.9604 -0.8173
11890TIP3   OH257160   1.807   2.833  10.823  0.3579 -0.5004  0.6581
11890TIP3    H157161   1.785   2.836  10.730  0.0384 -0.8706  0.7166
11890TIP3    H257162   1.808   2.924  10.850 -0.3411 -0.4291  0.4692
11891TIP3   OH257163   4.133   4.796  12.841  0.0923 -0.0323 -0.4457
11891TIP3    H157164   4.110   4.881  12.878 -0.4249  1.1932 -3.3016
11891TIP3    H257165   4.225   4.804  12.817  0.5976 -1.0284  1.0709
11892TIP3   OH257166   2.449   2.981  11.696  0.9653 -0.5576 -0.1499
11892TIP3    H157167   2.375   2.922  11.681  1.4000 -1.6865  1.7802
11892TIP3    H257168   2.504   2.970  11.618 -0.3444 -0.5230 -1.1082
11893TIP3   OH257169   6.235   6.040  13.266 -0.3823  0.0133  0.3365
11893TIP3    H157170   6.206   6.000  13.348 -2.3829  0.1957 -0.2253
11893TIP3    H257171   6.302   5.981  13.233 -1.5062 -1.5836  0.7687
11894TIP3   OH257172   2.512   2.122  10.044 -0.2496  0.3782 -0.0794
11894TIP3    H157173   2.533   2.190   9.980  0.6582  0.7922  0.6336
11894TIP3    H257174   2.560   2.045  10.014  0.9839  0.8473  0.6149
11895TIP3   OH257175   2.873   1.798  11.397  0.4187 -0.5672 -0.5352
11895TIP3    H157176   2.845   1.831  11.312  0.9625  2.0647  0.2276
11895TIP3    H257177   2.792   1.793  11.449  0.4254  0.3421 -0.4290
11896TIP3   OH257178   0.347   4.517   4.453 -0.3015  0.6273  0.4052
11896TIP3    H157179   0.358   4.595   4.508 -1.8792  1.4420 -0.3672
11896TIP3    H257180   0.329   4.446   4.515 -0.6775  1.2531  1.0218
11897TIP3   OH257181   1.529   2.808  14.268 -0.0569 -1.1307  0.7746
11897TIP3    H157182   1.513   2.800  14.174 -1.8127 -4.0113  1.1980
11897TIP3    H257183   1.441   2.812  14.307  0.6240  1.6794  2.2874
11898TIP3   OH257184   5.138   1.484  15.592  0.5948  0.2775 -0.0495
11898TIP3    H157185   5.132   1.519  15.503 -2.5960  1.9688  0.6469
11898TIP3    H257186   5.101   1.396  15.586 -0.1130  0.5873 -0.3503
11899TIP3   OH257187   5.424   2.700   1.265  0.4848  1.4078  0.4436
11899TIP3    H157188   5.490   2.728   1.201  0.1366  0.2124 -0.4758
11899TIP3    H257189   5.470   2.638   1.322  0.0300  0.0388 -0.6217
11900TIP3   OH257190   2.570   2.405  13.391  0.0493  0.2400 -0.7328
11900TIP3    H157191   2.636   2.474  13.386 -0.8750  1.4252  1.7551
11900TIP3    H257192   2.509   2.424  13.320  2.2580 -0.8953 -3.1004
11901TIP3   OH257193   2.870   5.956   3.764 -0.6726 -0.1694  0.3171
11901TIP3    H157194   2.875   5.951   3.669  1.9053 -2.4572  0.4383
11901TIP3    H257195   2.934   6.022   3.789 -0.9353  0.0195  0.5007
11902TIP3   OH257196   2.782   0.147  15.210  0.3619  0.1342  0.4494
11902TIP3    H157197   2.713   0.103  15.162  2.2500  0.5647 -2.9549
11902TIP3    H257198   2.836   0.075  15.244  2.3964 -0.4784 -3.5102
11903TIP3   OH257199   6.832   5.256   4.663 -0.1091 -1.0229 -0.1861
11903TIP3    H157200   6.837   5.272   4.569  0.7350 -0.6933 -0.0858
11903TIP3    H257201   6.782   5.329   4.697 -0.5237 -1.2064 -0.3903
11904TIP3   OH257202   6.978   7.099  10.026 -0.5603 -0.1650 -0.0225
11904TIP3    H157203   7.003   7.047   9.949 -0.1106  1.6808 -1.2112
11904TIP3    H257204   7.050   7.086  10.088  0.9541  1.1217 -1.4033
11905TIP3   OH257205   4.650   4.759  15.092 -0.1917  0.3325  0.1299
11905TIP3    H157206   4.647   4.692  15.024 -0.4222  0.9380 -0.4669
11905TIP3    H257207   4.563   4.798  15.090  0.2247  1.2595 -0.1511
11906TIP3   OH257208   2.581   4.761  10.338  0.4020 -0.2575  0.2418
11906TIP3    H157209   2.534   4.830  10.291  0.4034  0.7139  1.6300
11906TIP3    H257210   2.673   4.783  10.325  0.5782 -1.9081 -2.0957
11907TIP3   OH257211   4.640   2.115   3.685  0.4691  0.2313 -0.2854
11907TIP3    H157212   4.708   2.113   3.618  0.4757  0.8058 -0.3015
11907TIP3    H257213   4.558   2.117   3.636  0.4973  2.9831 -0.3670
11908TIP3   OH257214   0.906   4.710  11.245  0.2190  0.0320  0.0456
11908TIP3    H157215   0.894   4.793  11.291 -1.5517  0.0426 -0.3682
11908TIP3    H257216   0.923   4.646  11.315  1.4005  0.6943  0.3769
11909TIP3   OH257217   4.890   3.338   1.500  0.1720  0.4257 -0.1101
11909TIP3    H157218   4.796   3.358   1.500  0.1902  1.1426 -3.5729
11909TIP3    H257219   4.901   3.277   1.427  2.3876  0.2029  0.3610
11910TIP3   OH257220   6.210   4.300   3.309  0.0706  0.2416 -0.0233
11910TIP3    H157221   6.302   4.327   3.314  0.0832  0.1028  0.7103
11910TIP3    H257222   6.204   4.225   3.368 -0.3435 -0.2695 -0.7015
11911TIP3   OH257223   6.828   4.962  13.573 -0.1239  0.0404 -0.0084
11911TIP3    H157224   6.832   4.893  13.506 -2.0096 -0.1112 -0.0219
11911TIP3    H257225   6.870   4.923  13.649 -0.3530 -0.7987 -0.2964
11912TIP3   OH257226   6.193   3.947  12.961 -0.4999  0.1032  0.2624
11912TIP3    H157227   6.261   4.012  12.943 -0.7879  0.1317 -0.7852
11912TIP3    H257228   6.211   3.917  13.050 -0.1998  1.4253  0.6644
11913TIP3   OH257229   7.080   2.077  13.957  0.0979  0.0563 -0.4021
11913TIP3    H157230   7.074   1.987  13.926 -2.0375 -0.8489  2.2657
11913TIP3    H257231   6.990   2.111  13.949  0.8094  1.8894 -1.1121
11914TIP3   OH257232   1.121   6.840  14.520  0.4105 -0.0086 -0.7112
11914TIP3    H157233   1.155   6.760  14.559  1.5664  1.4329  1.4222
11914TIP3    H257234   1.183   6.861  14.451  1.6993  0.5034  0.5705
11915TIP3   OH257235   3.217   6.585  12.516  0.0969  0.0170 -0.2485
11915TIP3    H157236   3.234   6.664  12.568 -0.5529  0.1313 -0.2048
11915TIP3    H257237   3.122   6.583  12.506  0.0056 -1.3753  0.7051
11916TIP3   OH257238   6.241   6.195   2.144 -0.4523 -0.0353 -0.1717
11916TIP3    H157239   6.166   6.187   2.203  0.3561 -0.3154  0.8519
11916TIP3    H257240   6.247   6.288   2.124 -0.3649  0.1567  0.7085
11917TIP3   OH257241   6.449   6.058  10.716 -0.1336 -0.1162  0.0048
11917TIP3    H157242   6.526   6.069  10.661  0.0890  0.9851  0.5165
11917TIP3    H257243   6.426   6.147  10.743 -0.7863 -0.5562  0.9338
11918TIP3   OH257244   0.981   2.431  11.516  0.2834  0.4614  0.0279
11918TIP3    H157245   0.978   2.383  11.598 -0.6742  0.2758 -0.1040
11918TIP3    H257246   0.901   2.407  11.470  2.1383 -1.8600 -2.3497
11919TIP3   OH257247   1.077   5.733  14.417 -0.2457  0.6505  0.2258
11919TIP3    H157248   1.045   5.753  14.505  0.4312  0.0804  0.6162
11919TIP3    H257249   1.011   5.673  14.381  0.0873 -0.0930  0.8208
11920TIP3   OH257250   3.698   2.024  14.240 -0.1111  0.1879 -0.2835
11920TIP3    H157251   3.630   2.032  14.173 -0.2791  1.1560 -0.0101
11920TIP3    H257252   3.740   2.110  14.243  0.9468 -0.3061 -0.2427
11921TIP3   OH257253   7.122   4.908   4.396 -0.2172 -0.4878  0.1241
11921TIP3    H157254   7.166   4.830   4.431 -0.7841  0.0154  2.1106
11921TIP3    H257255   7.193   4.963   4.363  0.4742 -0.6426  1.2829
11922TIP3   OH257256   4.307   6.984  11.564 -0.0532 -0.2771 -0.5697
11922TIP3    H157257   4.322   6.999  11.471  1.4920 -0.2246 -0.3399
11922TIP3    H257258   4.216   7.010  11.578 -0.2779 -0.1756 -2.0319
11923TIP3   OH257259   3.029   7.158  11.181 -0.4365  0.4373  0.2277
11923TIP3    H157260   3.106   7.101  11.188 -0.7738  0.1688  4.5146
11923TIP3    H257261   3.063   7.246  11.189 -0.3420  0.6542 -1.8826
11924TIP3   OH257262   3.823   3.009  13.057 -0.7258  0.1250  0.1356
11924TIP3    H157263   3.776   3.092  13.051  0.9378  1.0184 -1.7063
11924TIP3    H257264   3.913   3.034  13.073 -0.2156 -1.3189 -0.3408
11925TIP3   OH257265   6.112   0.659  12.912 -0.1359  0.3218 -0.0168
11925TIP3    H157266   6.176   0.615  12.856 -1.2493 -0.6566 -0.5760
11925TIP3    H257267   6.042   0.595  12.924  0.3008  0.2667  3.0443
11926TIP3   OH257268   2.056   2.496   0.989  0.6352  0.2271  0.2316
11926TIP3    H157269   2.036   2.497   1.082 -1.3300  0.4795 -0.1484
11926TIP3    H257270   2.065   2.404   0.967 -2.0234 -0.0981  0.1288
11927TIP3   OH257271   4.676   1.346   2.920  0.2015 -0.1522 -0.3190
11927TIP3    H157272   4.763   1.364   2.957 -0.2225  0.5500  0.3622
11927TIP3    H257273   4.654   1.425   2.872  0.0587 -0.4503 -0.7530
11928TIP3   OH257274   1.808   5.712   0.278 -0.4834 -0.1524 -0.0526
11928TIP3    H157275   1.737   5.714   0.214 -2.0941  0.7305  1.6675
11928TIP3    H257276   1.819   5.803   0.306 -1.9416 -0.8218  3.0613
11929TIP3   OH257277   0.114   0.894  13.269 -0.4202 -0.5248  0.6423
11929TIP3    H157278   0.182   0.961  13.272 -0.9130 -0.0080  0.3367
11929TIP3    H257279   0.047   0.926  13.329  0.0546 -1.5435  1.7644
11930TIP3   OH257280   4.317   2.097   2.209  0.0034 -0.2740  0.6476
11930TIP3    H157281   4.368   2.040   2.268 -0.3634  0.9391  2.1948
11930TIP3    H257282   4.313   2.181   2.254 -1.5555  0.2854 -0.4481
11931TIP3   OH257283   2.231   5.392  10.645  0.5368 -0.1121 -0.0212
11931TIP3    H157284   2.198   5.334  10.713  0.0966  0.3554  0.1780
11931TIP3    H257285   2.188   5.476  10.662  2.6176  0.8439  0.8861
11932TIP3   OH257286   2.988   2.059  15.593 -0.0365 -0.6367  0.0532
11932TIP3    H157287   3.051   2.022  15.532  1.9368  2.1640  0.1813
11932TIP3    H257288   2.996   2.004  15.672  1.8453 -0.7394 -0.1553
11933TIP3   OH257289   4.086   4.263  13.139  0.3525 -0.5105 -0.0789
11933TIP3    H157290   4.038   4.198  13.087 -0.8455  0.2080  0.0813
11933TIP3    H257291   4.095   4.338  13.080 -0.5436  0.1083  0.5399
11934TIP3   OH257292   3.622   5.022  13.157 -0.2820  0.3939  0.6246
11934TIP3    H157293   3.578   4.945  13.123 -0.3117  0.4187  0.6074
11934TIP3    H257294   3.607   5.090  13.091  1.5811 -0.1657 -0.4524
11935TIP3   OH257295   0.193   1.155   3.331 -0.0708  0.0113 -0.5408
11935TIP3    H157296   0.100   1.175   3.316 -0.1381 -0.0063 -0.1588
11935TIP3    H257297   0.239   1.232   3.297 -0.2514  0.2182 -0.3203
11936TIP3   OH257298   1.272   4.770   4.876 -0.0805  0.0740 -0.4986
11936TIP3    H157299   1.360   4.770   4.913 -0.3025  0.9418  0.0604
11936TIP3    H257300   1.219   4.817   4.941 -0.9743 -0.5157 -0.7812
11937TIP3   OH257301   4.965   3.006  15.239 -0.3323  0.3003  0.3408
11937TIP3    H157302   4.895   2.997  15.174 -1.8907  0.8845  1.8507
11937TIP3    H257303   5.022   2.932  15.223 -0.9760  0.0971 -1.3033
11938TIP3   OH257304   6.155   5.629   0.447 -0.0723  0.4204 -0.7198
11938TIP3    H157305   6.232   5.662   0.401  0.7697  0.8495  0.9128
11938TIP3    H257306   6.100   5.707   0.460  1.6773  1.3174  2.6720
11939TIP3   OH257307   5.154   0.281  14.430 -0.4372  0.0674 -0.3317
11939TIP3    H157308   5.211   0.276  14.507  0.1560 -1.8524 -0.8343
11939TIP3    H257309   5.177   0.364  14.388  1.1450 -0.1084  0.1296
11940TIP3   OH257310   3.123   1.809  12.270  0.6817  0.4144 -0.3043
11940TIP3    H157311   3.188   1.766  12.215 -0.2524 -0.5619 -0.6911
11940TIP3    H257312   3.167   1.821  12.354  1.6559  0.6320 -0.8318
11941TIP3   OH257313   6.974   4.402   0.680 -0.1865  0.2427 -0.2037
11941TIP3    H157314   6.892   4.354   0.672 -0.1827 -0.0774  1.2774
11941TIP3    H257315   6.948   4.491   0.706 -0.1414  0.7814 -1.8851
11942TIP3   OH257316   1.161   5.368  14.018 -0.1052 -0.0440 -0.1379
11942TIP3    H157317   1.069   5.370  13.993 -0.2132 -0.3643  0.2226
11942TIP3    H257318   1.189   5.459  14.015 -0.0701 -0.0699 -1.5569
11943TIP3   OH257319   7.009   6.204   1.855 -0.0500 -0.3725  0.7005
11943TIP3    H157320   7.024   6.168   1.942 -1.1919 -0.8322  0.7248
11943TIP3    H257321   7.093   6.195   1.811  0.5557 -0.1053  1.7579
11944TIP3   OH257322   3.500   2.814   4.829 -0.1049 -0.0441  0.2075
11944TIP3    H157323   3.525   2.789   4.741 -1.6562  1.8366 -0.8517
11944TIP3    H257324   3.545   2.897   4.844 -0.6353  0.1525  0.7673
11945TIP3   OH257325   2.836   0.276   2.787 -0.3185  0.5743  0.1728
11945TIP3    H157326   2.859   0.246   2.700  2.3478  0.5138  0.8206
11945TIP3    H257327   2.856   0.369   2.787 -1.3364  0.8113  0.4383
11946TIP3   OH257328   2.952   4.627  11.784 -0.5757 -0.3378 -0.4698
11946TIP3    H157329   3.040   4.664  11.783 -0.2288 -1.1424  0.1893
11946TIP3    H257330   2.958   4.550  11.839 -1.7655 -0.2401 -0.1738
11947TIP3   OH257331   6.787   5.542   2.443 -0.6335  0.1994 -0.4683
11947TIP3    H157332   6.813   5.620   2.492 -2.8572  0.9916 -0.4292
11947TIP3    H257333   6.741   5.488   2.507  1.1204 -1.3515 -0.4264
11948TIP3   OH257334   3.004   4.094  13.416 -0.5455  0.2716 -0.7587
11948TIP3    H157335   3.092   4.098  13.381 -0.4531  0.0930 -0.5490
11948TIP3    H257336   2.948   4.077  13.340 -0.3187 -0.4053 -0.7793
11949TIP3   OH257337   5.611   5.606  12.791  0.9752 -0.1172 -0.3224
11949TIP3    H157338   5.568   5.687  12.761 -0.1693  0.3240  2.2501
11949TIP3    H257339   5.635   5.624  12.882 -0.1935 -2.9680  0.6528
11950TIP3   OH257340   5.472   2.036   3.772  0.3047  0.2344  0.3347
11950TIP3    H157341   5.545   2.045   3.833 -0.1708  0.9726  0.8059
11950TIP3    H257342   5.409   2.102   3.800 -0.6668 -0.5726  0.1080
11951TIP3   OH257343   7.073   4.922  14.730  0.1832 -0.0368  0.2818
11951TIP3    H157344   7.097   4.838  14.689  1.1197 -0.4279  1.5676
11951TIP3    H257345   6.978   4.926  14.721  0.2778 -0.4681 -1.2083
11952TIP3   OH257346   4.175   3.130  13.059 -0.3159 -0.5323 -0.3221
11952TIP3    H157347   4.187   3.079  13.139  0.8900 -1.7441 -1.2367
11952TIP3    H257348   4.232   3.206  13.071  1.8376 -1.9450 -1.0068
11953TIP3   OH257349   0.788   4.412  12.660  0.2858 -0.1596 -0.0030
11953TIP3    H157350   0.785   4.506  12.641  1.9952  0.0354  0.5181
11953TIP3    H257351   0.760   4.371  12.578  3.2325  0.7525 -1.6308
11954TIP3   OH257352   3.761   6.913   0.043 -0.5821  0.0467  0.5052
11954TIP3    H157353   3.828   6.980   0.026 -0.4176  0.1184  1.3739
11954TIP3    H257354   3.684   6.945  -0.004  0.4924 -1.0300 -2.1688
11955TIP3   OH257355   2.249   4.368  12.294 -0.6511  0.3527 -0.5101
11955TIP3    H157356   2.276   4.278  12.310  0.5503  0.5722 -1.1390
11955TIP3    H257357   2.216   4.368  12.204 -0.6084  0.5456 -0.5274
11956TIP3   OH257358   6.852   0.963   5.404 -0.2249  0.1511 -0.0915
11956TIP3    H157359   6.869   1.028   5.473  0.1983 -0.3754  0.3092
11956TIP3    H257360   6.920   0.980   5.339 -1.3270  1.4189 -0.9657
11957TIP3   OH257361   1.488   0.809  11.605 -0.4667 -0.3770  0.7382
11957TIP3    H157362   1.453   0.762  11.530  0.2363  0.3679 -0.0754
11957TIP3    H257363   1.546   0.747  11.648  1.4239  0.0728 -1.0365
11958TIP3   OH257364   0.511   5.856   5.236 -0.2334  0.4295 -0.4757
11958TIP3    H157365   0.504   5.764   5.258  0.9879  0.3790 -0.2581
11958TIP3    H257366   0.480   5.861   5.146 -2.7833  0.2420  0.2955
11959TIP3   OH257367   6.079   1.872  10.698  0.1445 -0.3682  0.1596
11959TIP3    H157368   6.120   1.956  10.717  1.0170 -0.7222 -0.1069
11959TIP3    H257369   6.112   1.814  10.766 -1.3697 -0.2351  1.0450
11960TIP3   OH257370   5.534   5.934   2.860  0.2569  0.3529 -0.0065
11960TIP3    H157371   5.458   5.957   2.914 -1.0881  0.6752 -1.9399
11960TIP3    H257372   5.607   5.931   2.922 -0.3241  4.8772  1.2663
11961TIP3   OH257373   4.236   5.047  14.426 -0.9198 -0.2522 -1.0067
11961TIP3    H157374   4.276   5.134  14.429 -3.8164  1.2097 -0.1820
11961TIP3    H257375   4.262   5.005  14.508  0.0788  0.0416 -1.1640
11962TIP3   OH257376   7.002   5.855  12.922  0.0084 -0.2912 -0.3321
11962TIP3    H157377   7.027   5.771  12.883 -1.6278 -1.4532  0.9562
11962TIP3    H257378   6.943   5.831  12.994  0.6120  1.9057  0.9780
11963TIP3   OH257379   6.554   3.622  14.117  0.2997 -0.0955 -0.0104
11963TIP3    H157380   6.597   3.557  14.061  1.2666  1.6320 -1.3681
11963TIP3    H257381   6.626   3.676  14.150 -0.5121  0.4967  0.8282
11964TIP3   OH257382   6.046   3.753   4.725  0.6422  0.4649  0.1201
11964TIP3    H157383   6.082   3.762   4.637 -0.0073  0.5920 -0.1360
11964TIP3    H257384   5.952   3.763   4.714  0.4296 -0.7663  0.6617
11965TIP3   OH257385   2.963   6.635   5.489 -0.2114  0.2333  0.0533
11965TIP3    H157386   2.890   6.605   5.543 -0.4333 -1.2161 -1.0032
11965TIP3    H257387   2.975   6.726   5.514 -2.2174  0.4382  0.4348
11966TIP3   OH257388   3.139   3.296  12.478 -0.4442  0.0212  0.2837
11966TIP3    H157389   3.071   3.233  12.454 -0.1833  0.9681 -3.5100
11966TIP3    H257390   3.132   3.365  12.412  2.9020  1.1553  0.9348
11967TIP3   OH257391   5.298   0.984   5.954  0.1456 -0.0488 -0.6140
11967TIP3    H157392   5.332   1.041   6.023 -1.3728 -0.2965  0.3971
11967TIP3    H257393   5.348   1.008   5.876  2.7337 -0.5735  0.7852
11968TIP3   OH257394   4.195   1.518  11.423  0.1006 -0.2485  0.0805
11968TIP3    H157395   4.267   1.455  11.412 -0.1502 -0.4770 -0.2503
11968TIP3    H257396   4.117   1.470  11.396  0.1020  0.7064 -1.7592
11969TIP3   OH257397   3.101   1.907  10.753 -0.1378  0.1340 -0.0038
11969TIP3    H157398   3.171   1.878  10.695 -0.2752 -0.0084 -0.0994
11969TIP3    H257399   3.039   1.834  10.754 -0.7498  0.6300 -0.6698
11970TIP3   OH257400   3.176   0.077   4.536  0.2874  0.4112 -0.4222
11970TIP3    H157401   3.262   0.039   4.516  0.4796  0.3693  0.4289
11970TIP3    H257402   3.186   0.169   4.511  0.5577  0.3941 -0.3870
11971TIP3   OH257403   5.845   5.116   4.225 -1.0642  0.2084  0.5496
11971TIP3    H157404   5.885   5.129   4.311  0.2027  0.9461 -0.1245
11971TIP3    H257405   5.819   5.204   4.197 -0.9592  0.0501 -0.0627
11972TIP3   OH257406   2.119   1.256   0.034 -0.5801  0.2276 -0.3306
11972TIP3    H157407   2.142   1.172  -0.005 -0.0346  0.1367  0.1701
11972TIP3    H257408   2.199   1.307   0.030 -0.5683  0.2901  0.4681
11973TIP3   OH257409   2.833   6.710   3.079 -0.1929 -0.1743  0.2385
11973TIP3    H157410   2.878   6.673   3.004  2.3117 -2.2158  2.5348
11973TIP3    H257411   2.886   6.786   3.104 -1.8657  1.4394 -0.8164
11974TIP3   OH257412   5.443   2.446  14.320 -0.2822 -1.1040  0.5603
11974TIP3    H157413   5.362   2.464  14.272 -1.1036 -1.3993  1.8020
11974TIP3    H257414   5.434   2.494  14.402  1.8706  0.8522 -0.2314
11975TIP3   OH257415   5.668   0.051   1.298 -0.0682 -0.0188  1.0247
11975TIP3    H157416   5.707   0.002   1.225  0.2594  0.2383  1.0268
11975TIP3    H257417   5.575   0.027   1.295  0.1206 -0.7836  1.1425
11976TIP3   OH257418   6.081   6.303   5.165 -0.8961  0.0393 -0.2920
11976TIP3    H157419   6.117   6.356   5.094 -1.1697  0.8767  0.1706
11976TIP3    H257420   5.987   6.324   5.164 -0.9908 -0.3673 -0.0360
11977TIP3   OH257421   0.623   0.635   2.011 -0.2613  0.6688 -0.6040
11977TIP3    H157422   0.635   0.674   1.924  0.4571  0.9520 -0.3858
11977TIP3    H257423   0.702   0.584   2.025 -1.3843 -1.2926 -1.0696
11978TIP3   OH257424   2.778   1.115   3.943 -0.0177 -0.0862  0.6704
11978TIP3    H157425   2.702   1.060   3.957 -0.5502  0.1106 -1.2334
11978TIP3    H257426   2.772   1.183   4.011 -0.7899 -0.8207  1.3531
11979TIP3   OH257427   5.588   4.250   2.126 -0.6260  0.3100 -0.7266
11979TIP3    H157428   5.541   4.333   2.138 -0.5038  0.3218 -0.2819
11979TIP3    H257429   5.673   4.276   2.092 -0.8656  0.3035 -1.3464
11980TIP3   OH257430   5.491   6.994  15.428 -0.2570  0.1336  0.2856
11980TIP3    H157431   5.481   7.069  15.369 -2.8625 -0.2908  0.0474
11980TIP3    H257432   5.499   7.033  15.515  1.0812  0.7109 -0.0747
11981TIP3   OH257433   6.614   5.937  15.624  0.0161  0.0368  0.1293
11981TIP3    H157434   6.589   5.847  15.599  0.7435  0.1924 -1.2839
11981TIP3    H257435   6.675   5.925  15.697  0.2353 -0.6409 -0.1511
11982TIP3   OH257436   3.604   4.469  11.670 -0.2968 -0.1909 -0.0865
11982TIP3    H157437   3.698   4.480  11.689 -0.6522  1.3871  1.0007
11982TIP3    H257438   3.596   4.494  11.578  0.2530  0.3921  0.0133
11983TIP3   OH257439   3.264   2.800   4.946  0.0726 -0.3494  0.3242
11983TIP3    H157440   3.347   2.828   4.906 -1.2125  1.3537 -1.3376
11983TIP3    H257441   3.257   2.707   4.924  1.8651 -0.7455  1.1823
11984TIP3   OH257442   3.862   5.997  12.298 -0.4918 -0.4123 -0.0195
11984TIP3    H157443   3.833   5.968  12.211  1.2079 -1.9604 -0.1165
11984TIP3    H257444   3.821   5.935  12.359  1.2420 -1.6583 -0.0464
11985TIP3   OH257445   4.312   4.330   2.637 -0.2293  0.4936  0.2213
11985TIP3    H157446   4.376   4.283   2.692  1.4435  1.5470 -0.7244
11985TIP3    H257447   4.365   4.396   2.591 -1.3797 -0.7911 -3.2210
11986TIP3   OH257448   6.980   0.991  10.684 -0.4380 -0.5372 -0.1022
11986TIP3    H157449   6.904   0.940  10.655 -0.8989 -0.2835  0.6176
11986TIP3    H257450   6.977   0.987  10.780  0.6730 -0.8213 -0.0689
11987TIP3   OH257451   6.654   6.416  15.100 -0.5098 -0.6992 -0.1534
11987TIP3    H157452   6.672   6.506  15.073 -1.5467 -0.8071 -1.2829
11987TIP3    H257453   6.558   6.411  15.104 -0.5077 -2.0135 -1.1104
11988TIP3   OH257454   1.853   0.604   4.484 -0.0627  0.2816  0.2739
11988TIP3    H157455   1.893   0.553   4.413  0.5380  0.1481  0.7052
11988TIP3    H257456   1.915   0.674   4.501 -1.2853  1.7287 -0.9281
11989TIP3   OH257457   1.053   6.678   3.403  0.3211  0.2220 -0.0281
11989TIP3    H157458   1.021   6.589   3.388  1.7486 -0.1886 -0.8121
11989TIP3    H257459   0.976   6.733   3.392  0.0156 -0.6188 -2.8309
11990TIP3   OH257460   6.535   4.823   0.103 -0.1899 -0.2030 -0.0581
11990TIP3    H157461   6.455   4.875   0.099  0.2623  0.5304  0.3416
11990TIP3    H257462   6.513   4.748   0.158 -0.6528 -0.1061 -0.1101
11991TIP3   OH257463   3.510   3.894   3.307  0.0492 -0.1814  0.5856
11991TIP3    H157464   3.538   3.867   3.220 -0.3567 -0.8317  0.6561
11991TIP3    H257465   3.500   3.813   3.356 -1.1432  0.0845  0.8061
11992TIP3   OH257466   2.622   0.305   0.222  0.0748 -0.3429  0.8975
11992TIP3    H157467   2.677   0.366   0.271  0.9848 -0.1367 -0.3099
11992TIP3    H257468   2.555   0.278   0.284  1.5746 -0.6669  2.4720
11993TIP3   OH257469   4.145   6.509  12.667 -0.1272 -0.1024  0.0655
11993TIP3    H157470   4.049   6.498  12.669 -0.1825  0.4382  0.6534
11993TIP3    H257471   4.168   6.492  12.576 -1.1179  2.3630 -0.7112
11994TIP3   OH257472   5.853   1.337  14.607  0.0552  0.0497  0.2735
11994TIP3    H157473   5.940   1.310  14.636 -0.0991 -1.7389 -0.7962
11994TIP3    H257474   5.810   1.369  14.687  1.1097 -0.6244  1.1375
11995TIP3   OH257475   5.625   1.545  10.764 -0.0524  0.5470 -0.1259
11995TIP3    H157476   5.694   1.502  10.712  1.5178  0.5383  1.8393
11995TIP3    H257477   5.665   1.627  10.793 -0.3459 -0.0422  2.1189
11996TIP3   OH257478   3.033   5.017   3.745 -0.0028 -0.0872  0.2871
11996TIP3    H157479   3.108   4.978   3.791  0.9644 -1.3182 -2.1420
11996TIP3    H257480   3.070   5.093   3.700 -1.0980  1.5642  1.9953
11997TIP3   OH257481   6.274   2.144   3.024 -0.2936  0.0364  0.3078
11997TIP3    H157482   6.356   2.136   3.073 -0.3668  0.0420  0.4312
11997TIP3    H257483   6.296   2.117   2.935  0.2416  1.5808 -0.0675
11998TIP3   OH257484   2.124   2.619   3.698  0.0993 -0.5968  0.2567
11998TIP3    H157485   2.198   2.567   3.729  0.3604 -1.0901 -1.0975
11998TIP3    H257486   2.163   2.698   3.662  0.0740 -1.2062 -1.1764
11999TIP3   OH257487   1.465   0.770  11.940  0.6902  0.0806 -0.4034
11999TIP3    H157488   1.471   0.729  12.026  1.8797 -0.6130 -0.7915
11999TIP3    H257489   1.377   0.748  11.909  0.4407 -0.0973  0.4117
12000TIP3   OH257490   1.324   2.079  12.354  0.0248 -0.2654 -0.5794
12000TIP3    H157491   1.347   2.172  12.356 -0.9405 -0.0049 -1.0720
12000TIP3    H257492   1.235   2.077  12.319 -0.7700 -1.2245  1.3487
12001TIP3   OH257493   2.188   0.250  14.026  0.1852  0.2170 -0.2876
12001TIP3    H157494   2.117   0.255  14.090  0.8068  0.1498  0.4240
12001TIP3    H257495   2.229   0.165  14.042  0.0568 -0.0001 -1.0930
12002TIP3   OH257496   1.656   3.344   0.647 -0.4155 -0.1365 -0.5708
12002TIP3    H157497   1.675   3.437   0.635 -0.6425  0.0254  0.2165
12002TIP3    H257498   1.740   3.306   0.674 -0.7746  0.2617  1.2434
12003TIP3   OH257499   6.169   3.439  15.397  0.1601  0.2902 -0.5980
12003TIP3    H157500   6.094   3.485  15.360 -0.3368 -0.9758 -1.2150
12003TIP3    H257501   6.131   3.362  15.440  0.9277  0.6613  0.7915
12004TIP3   OH257502   6.174   0.941   4.748 -0.4187 -0.3386 -0.0089
12004TIP3    H157503   6.183   0.997   4.671 -0.4923 -1.1660 -0.6277
12004TIP3    H257504   6.156   1.002   4.820 -1.8070  0.3441 -0.8926
12005TIP3   OH257505   3.033   5.674   0.562  0.4370  0.2041  0.2826
12005TIP3    H157506   2.984   5.591   0.563  1.4631 -0.4445 -0.7162
12005TIP3    H257507   3.052   5.690   0.470  0.1661  1.6342  0.4509
12006TIP3   OH257508   4.610   6.318   6.026 -0.0292 -0.5239  0.1640
12006TIP3    H157509   4.601   6.397   6.079 -1.6516  0.3104 -1.2660
12006TIP3    H257510   4.553   6.254   6.069  1.2008 -0.9366  1.2595
12007TIP3   OH257511   4.401   5.859  14.286 -0.4926 -0.1281  0.0153
12007TIP3    H157512   4.380   5.883  14.195  0.6909 -0.0636 -0.2617
12007TIP3    H257513   4.497   5.858  14.288 -0.4728  1.3450  1.6538
12008TIP3   OH257514   4.537   0.022   1.110  0.3456  0.4250 -0.2650
12008TIP3    H157515   4.458   0.000   1.061 -0.1799  1.6349  0.0017
12008TIP3    H257516   4.556   0.113   1.086 -0.3724  1.3407  2.3067
12009TIP3   OH257517   6.863   2.944  12.377  0.7782  0.5514 -0.7708
12009TIP3    H157518   6.844   2.926  12.285  0.4500  0.4650 -0.6862
12009TIP3    H257519   6.782   2.982  12.411  1.6160  2.8256 -1.0973
12010TIP3   OH257520   4.103   5.572  10.885  0.7911  0.4021 -0.0824
12010TIP3    H157521   4.145   5.655  10.864  1.0865  0.6869  1.5387
12010TIP3    H257522   4.110   5.565  10.980  1.8146 -2.0212 -0.2700
12011TIP3   OH257523   5.136   7.130   2.454 -0.4232  0.2360  0.7681
12011TIP3    H157524   5.049   7.169   2.455 -0.2691  0.5918  1.7964
12011TIP3    H257525   5.190   7.190   2.403 -0.6986  0.1919  0.4241
12012TIP3   OH257526   4.526   6.483  14.391  1.0981  0.4703 -0.3455
12012TIP3    H157527   4.606   6.526  14.361  1.5624 -0.2961 -0.2389
12012TIP3    H257528   4.553   6.432  14.467 -0.1802  2.9196  1.9263
12013TIP3   OH257529   5.210   0.378   1.713  0.4570  0.3477 -0.0662
12013TIP3    H157530   5.304   0.367   1.705  0.6002  0.0273  1.7663
12013TIP3    H257531   5.184   0.424   1.633  1.7039 -2.1047 -1.9880
12014TIP3   OH257532   3.274   1.617   5.241 -0.3794  0.2996  0.2036
12014TIP3    H157533   3.212   1.646   5.308 -0.8604 -0.2162 -0.0107
12014TIP3    H257534   3.349   1.583   5.291 -1.2844 -1.3217  0.5298
12015TIP3   OH257535   2.766   3.514  14.676  0.4870  0.0190 -0.1945
12015TIP3    H157536   2.805   3.459  14.608 -1.3669 -0.6198 -0.8039
12015TIP3    H257537   2.673   3.520  14.651  0.1184  1.2189  1.3366
12016TIP3   OH257538   1.805   0.269   0.116  0.0519 -0.3916 -0.0085
12016TIP3    H157539   1.721   0.227   0.097 -0.8588  1.2823  0.1544
12016TIP3    H257540   1.788   0.362   0.105  0.9797  0.2858  3.2022
12017TIP3   OH257541   4.182   5.365   3.334 -0.2124  0.6557 -0.2399
12017TIP3    H157542   4.202   5.399   3.421  1.9038 -1.5221  0.2245
12017TIP3    H257543   4.115   5.298   3.348  1.8506 -1.4665  0.2114
12018TIP3   OH257544   5.892   0.122  13.594 -0.0091 -0.1324  0.1720
12018TIP3    H157545   5.868   0.176  13.670  0.0548 -2.0636  1.6572
12018TIP3    H257546   5.976   0.158  13.565  0.0555  0.5471  1.1384
12019TIP3   OH257547   3.448   5.229   2.242  0.1877  0.1820 -0.1524
12019TIP3    H157548   3.410   5.248   2.157 -0.6363 -2.3277 -0.4383
12019TIP3    H257549   3.502   5.151   2.228  2.0081  1.1220  1.1604
12020TIP3   OH257550   5.995   6.476  13.456  0.1665  0.3647 -0.4577
12020TIP3    H157551   6.019   6.553  13.403  2.6363  0.5530  0.8224
12020TIP3    H257552   5.974   6.409  13.391  0.0598  1.4784 -1.6321
12021TIP3   OH257553   6.898   2.372  13.188 -0.2594 -0.3103  0.3588
12021TIP3    H157554   6.832   2.311  13.154 -0.8472  0.4986  0.0162
12021TIP3    H257555   6.945   2.322  13.255 -0.8983 -1.0526  0.2655
12022TIP3   OH257556   0.013   1.812  15.541 -0.0404  0.1352  0.2966
12022TIP3    H157557  -0.061   1.767  15.499  1.1943  0.4675 -2.4651
12022TIP3    H257558   0.090   1.785  15.491  1.3218  2.0633  1.1858
12023TIP3   OH257559   5.739   1.447  14.374  0.1433  0.1432  0.6066
12023TIP3    H157560   5.689   1.520  14.410  0.4873  0.2065  0.9516
12023TIP3    H257561   5.785   1.409  14.448  1.0446  0.4266  0.2005
12024TIP3   OH257562   0.219   6.728   4.591 -0.2450  0.0716 -0.1234
12024TIP3    H157563   0.173   6.691   4.666 -1.1416  0.4098 -0.4887
12024TIP3    H257564   0.187   6.818   4.584  0.5230  0.3349 -0.3549
12025TIP3   OH257565   3.924   5.428   0.769  0.1345  0.0398  0.1366
12025TIP3    H157566   4.001   5.416   0.712 -0.8554 -0.7053 -1.1101
12025TIP3    H257567   3.936   5.363   0.838  1.0634  0.5420  0.4602
12026TIP3   OH257568   4.740   3.618   4.852  0.1833  0.4564 -0.0022
12026TIP3    H157569   4.731   3.603   4.946  1.4186  1.2991  0.2682
12026TIP3    H257570   4.807   3.555   4.824  0.4576  0.8041 -0.1430
12027TIP3   OH257571   1.806   1.968   5.475  0.3232  0.4366  0.4219
12027TIP3    H157572   1.726   1.972   5.527  0.3580  0.1573  0.4956
12027TIP3    H257573   1.816   1.876   5.451 -1.2345  0.8824 -2.4838
12028TIP3   OH257574   4.045   0.975   1.300  0.2824 -0.7856  0.1017
12028TIP3    H157575   4.088   1.000   1.218 -0.9783 -0.2049 -0.4182
12028TIP3    H257576   4.107   1.000   1.368  1.7249 -2.0527 -0.6801
12029TIP3   OH257577   3.980   4.610   3.789  0.4290 -0.0653  0.0416
12029TIP3    H157578   4.003   4.524   3.756 -2.3768 -0.7737 -0.3574
12029TIP3    H257579   3.884   4.613   3.783  0.3719  2.7574  0.8520
12030TIP3   OH257580   4.353   0.526  12.599 -0.4198 -0.2866 -0.4367
12030TIP3    H157581   4.410   0.450  12.589 -0.9757 -0.7081 -0.4578
12030TIP3    H257582   4.383   0.568  12.680  1.6186  0.9941 -1.7777
12031TIP3   OH257583   6.769   6.182   3.516 -0.1876 -0.3313  0.2786
12031TIP3    H157584   6.716   6.138   3.582 -0.1815  0.3310  0.7288
12031TIP3    H257585   6.717   6.258   3.490  0.9562  0.9030  1.4610
12032TIP3   OH257586   0.212   5.439  15.354 -0.1928  0.0042  1.1236
12032TIP3    H157587   0.227   5.410  15.444 -0.2164  0.0126  1.1304
12032TIP3    H257588   0.208   5.534  15.360  2.7346  0.2412  0.6948
12033TIP3   OH257589   0.237   6.579  12.138  0.2036  0.4030 -0.2566
12033TIP3    H157590   0.238   6.675  12.128  3.3132  0.3662 -1.2730
12033TIP3    H257591   0.313   6.560  12.194 -1.5026 -1.4100  1.6233
12034TIP3   OH257592   4.408   2.537  12.528 -0.4474 -0.4566 -0.1731
12034TIP3    H157593   4.400   2.582  12.612 -0.4164 -0.5324 -0.1288
12034TIP3    H257594   4.483   2.577  12.485 -1.2256  0.4616 -0.7173
12035TIP3   OH257595   4.326   0.433   0.848 -0.3639  0.3362 -1.2131
12035TIP3    H157596   4.409   0.481   0.853  0.0404 -0.2996 -1.6121
12035TIP3    H257597   4.337   0.359   0.908 -0.7590  0.4130 -1.0415
12036TIP3   OH257598   1.352   1.041  14.186 -0.5189  0.1346  0.3546
12036TIP3    H157599   1.375   0.980  14.116 -1.8851  0.2827 -0.2578
12036TIP3    H257600   1.432   1.092  14.200  0.1212 -0.6561 -0.3029
12037TIP3   OH257601   4.695   4.080   4.798 -0.3050  0.2556  0.5811
12037TIP3    H157602   4.743   4.162   4.787  0.2818 -0.3880 -2.8143
12037TIP3    H257603   4.606   4.106   4.821  0.3238  1.7041  1.5239
12038TIP3   OH257604   0.794   0.843   1.096  0.2191 -0.4053  0.5340
12038TIP3    H157605   0.777   0.865   1.004 -3.1359 -1.1644  0.8431
12038TIP3    H257606   0.798   0.927   1.141  2.1581 -0.0129 -0.2797
12039TIP3   OH257607   6.921   4.115   0.983  0.0254  0.5272 -0.3149
12039TIP3    H157608   7.014   4.102   1.003 -0.2233  0.8650  1.2068
12039TIP3    H257609   6.876   4.048   1.034 -0.6567  1.4593  0.3433
12040TIP3   OH257610   2.078   2.886   5.810  0.1017 -0.2414  0.2473
12040TIP3    H157611   2.035   2.807   5.844  1.3251 -0.5556  1.0999
12040TIP3    H257612   2.011   2.927   5.755 -1.0417 -1.1026  0.9481
12041TIP3   OH257613   3.276   5.928  12.447  0.3409  0.3893  0.1531
12041TIP3    H157614   3.213   5.859  12.426  1.2237 -0.2536 -0.4286
12041TIP3    H257615   3.221   6.005  12.465 -0.7122 -0.7106  1.9411
12042TIP3   OH257616   2.100   5.739  14.281  0.4009 -0.2331  0.1490
12042TIP3    H157617   2.055   5.680  14.221  1.9729  0.4895 -1.8674
12042TIP3    H257618   2.041   5.815  14.290  0.1176 -0.3873 -0.4110
12043TIP3   OH257619   4.607   0.430  15.609 -0.1641 -0.0424 -0.0471
12043TIP3    H157620   4.610   0.460  15.518  0.4007  0.2185  0.0491
12043TIP3    H257621   4.699   0.426  15.635 -0.3551  0.7660  0.7902
12044TIP3   OH257622   3.473   6.700   1.808 -0.2679  1.4084 -0.0292
12044TIP3    H157623   3.468   6.628   1.745 -1.2877 -0.1285  1.7187
12044TIP3    H257624   3.388   6.744   1.802 -0.7689  0.6094  0.9705
12045TIP3   OH257625   5.435   1.031   4.282 -0.6561  0.8586 -0.0029
12045TIP3    H157626   5.363   1.078   4.325 -0.4832  0.4772  0.7248
12045TIP3    H257627   5.392   0.970   4.223 -1.0014 -0.2596  1.3492
12046TIP3   OH257628   5.873   7.158   4.210  0.0405  0.4186 -0.1625
12046TIP3    H157629   5.892   7.108   4.131  0.6797  1.5539 -0.7548
12046TIP3    H257630   5.958   7.174   4.250 -0.2606  0.0313  0.6558
12047TIP3   OH257631   3.807   3.400  12.569  0.1156  0.1073 -0.6296
12047TIP3    H157632   3.870   3.471  12.563 -0.3327  0.5011 -0.7121
12047TIP3    H257633   3.809   3.374  12.662 -1.1160  1.5272 -0.1660
12048TIP3   OH257634   2.781   4.386   2.679  0.1518  0.6174 -0.2922
12048TIP3    H157635   2.774   4.294   2.656 -0.0808  0.4183  0.5405
12048TIP3    H257636   2.874   4.400   2.697 -0.0129  0.1620  1.0475
12049TIP3   OH257637   0.845   5.174  13.076  0.0536 -0.2419 -0.1151
12049TIP3    H157638   0.906   5.105  13.101  1.0754  0.9270  0.8143
12049TIP3    H257639   0.774   5.169  13.140 -0.0922 -0.6955 -0.3128
12050TIP3   OH257640   4.872   5.658  12.729  0.4214  0.0940  0.5861
12050TIP3    H157641   4.912   5.690  12.648 -2.1611  0.2747 -0.7007
12050TIP3    H257642   4.827   5.734  12.765 -0.6485 -0.6026  0.7691
12051TIP3   OH257643   6.921   0.790  11.596  0.7118  1.0795 -0.2282
12051TIP3    H157644   6.986   0.811  11.664  0.5343  1.7524 -0.2636
12051TIP3    H257645   6.973   0.773  11.518  1.0361 -1.2196  0.4078
12052TIP3   OH257646   1.475   5.943   3.042  0.1138 -0.2195  0.0822
12052TIP3    H157647   1.410   6.000   3.001 -0.4577 -0.7756  0.1963
12052TIP3    H257648   1.484   5.869   2.982 -0.0680 -0.6057  0.5273
12053TIP3   OH257649   4.296   0.990  10.771 -0.2904  0.0892 -0.1264
12053TIP3    H157650   4.221   0.968  10.716  2.2210 -3.5090 -2.5809
12053TIP3    H257651   4.341   1.061  10.725 -0.2761 -0.2474 -0.6374
12054TIP3   OH257652   3.828   0.712  12.383  0.5453  0.0071 -0.1722
12054TIP3    H157653   3.749   0.765  12.388  0.8068  0.4092 -0.2767
12054TIP3    H257654   3.797   0.621  12.392 -0.0230  0.0925 -1.2106
12055TIP3   OH257655   6.159   4.683   5.644 -0.6035  0.7398 -0.4433
12055TIP3    H157656   6.181   4.701   5.735 -0.3827  0.4999 -0.4494
12055TIP3    H257657   6.205   4.602   5.623 -0.1630  1.1148 -0.9517
12056TIP3   OH257658   6.070   6.500  12.498 -0.3445 -0.0971  0.0216
12056TIP3    H157659   5.982   6.475  12.469 -0.1655  1.5472 -2.1825
12056TIP3    H257660   6.129   6.450  12.442  0.0998  0.3613  0.0758
12057TIP3   OH257661   5.767   0.963   5.451  0.0075 -0.6306  0.0689
12057TIP3    H157662   5.679   0.999   5.461 -0.5867 -1.4627 -1.6828
12057TIP3    H257663   5.809   1.020   5.385  1.5310  0.9424  2.2548
12058TIP3   OH257664   1.974   3.820   2.331  0.6565 -0.0246  0.5282
12058TIP3    H157665   1.904   3.838   2.394  1.8522  0.6990  1.6992
12058TIP3    H257666   1.929   3.808   2.248 -0.8205  0.9136  1.1554
12059TIP3   OH257667   6.074   6.647   5.300 -0.0478  0.2952 -0.1565
12059TIP3    H157668   6.144   6.694   5.256 -1.0321 -0.1862 -2.3978
12059TIP3    H257669   6.115   6.606   5.376  2.3345 -0.8653 -1.9798
12060TIP3   OH257670   0.793   1.227  15.449 -0.4036 -0.0048 -1.0587
12060TIP3    H157671   0.842   1.222  15.367  1.4912 -0.8627  0.0498
12060TIP3    H257672   0.820   1.310  15.488  0.7558 -0.7627 -0.1543
12061TIP3   OH257673   6.068   4.995   1.691  0.1977  0.1241 -0.0812
12061TIP3    H157674   6.009   5.059   1.651 -0.6790 -0.9170 -0.4932
12061TIP3    H257675   6.131   4.975   1.622 -0.0506 -0.0986 -0.2464
12062TIP3   OH257676   2.405   3.421  11.394  0.1494  0.2385  0.4730
12062TIP3    H157677   2.419   3.464  11.309 -0.2081  0.5156  0.5550
12062TIP3    H257678   2.318   3.383  11.387  0.8683 -1.4273 -0.0051
12063TIP3   OH257679   4.332   3.869   1.428 -0.1999  0.5402  0.5543
12063TIP3    H157680   4.327   3.779   1.461  1.9812 -0.0405 -0.4950
12063TIP3    H257681   4.375   3.918   1.498  0.4532  0.2971  0.3273
12064TIP3   OH257682   2.884   3.512   3.483 -0.2258 -0.7109  0.5565
12064TIP3    H157683   2.800   3.554   3.467  0.4897  0.8285  0.6175
12064TIP3    H257684   2.942   3.550   3.417  0.2773 -2.2313  0.0954
12065TIP3   OH257685   2.193   5.777   1.235 -0.1252 -0.1211  0.2144
12065TIP3    H157686   2.218   5.684   1.238 -0.7630 -0.3068  0.0630
12065TIP3    H257687   2.148   5.786   1.151  1.8454  0.8379 -0.7784
12066TIP3   OH257688   6.246   5.236  15.294  0.4701 -0.5202 -0.2839
12066TIP3    H157689   6.206   5.269  15.214  1.4307 -2.5086 -1.6579
12066TIP3    H257690   6.322   5.293  15.308 -0.9388  1.2858  0.5938
12067TIP3   OH257691   5.628   0.737   2.606  0.1325 -0.8708  0.0996
12067TIP3    H157692   5.561   0.724   2.540 -0.2533  0.3852  0.2069
12067TIP3    H257693   5.708   0.757   2.556 -0.1156 -0.1087 -0.0108
12068TIP3   OH257694   3.858   1.051  12.268  0.2100  0.1410  0.0087
12068TIP3    H157695   3.920   1.023  12.201 -1.3101  1.4239 -2.0827
12068TIP3    H257696   3.793   0.981  12.271 -0.8050  0.9704 -1.4168
12069TIP3   OH257697   1.297   3.933   3.647  0.3924  0.3853 -0.7471
12069TIP3    H157698   1.354   3.856   3.652  0.4908  0.5252  0.5322
12069TIP3    H257699   1.240   3.915   3.572  1.1629 -0.4097 -1.1624
12070TIP3   OH257700   1.850   2.981   0.709  0.4306 -0.9143 -0.3695
12070TIP3    H157701   1.820   2.936   0.788  0.7302 -0.0012  0.2834
12070TIP3    H257702   1.791   2.951   0.641 -0.4232 -1.0305  0.3916
12071TIP3   OH257703   1.860   0.126   2.518  0.1944 -0.0743 -0.0284
12071TIP3    H157704   1.798   0.104   2.587 -0.3395  1.3971 -0.0058
12071TIP3    H257705   1.810   0.121   2.437  0.2185  0.4376 -0.0788
12072TIP3   OH257706   2.375   2.329   5.267 -0.3140 -0.2407 -0.2374
12072TIP3    H157707   2.390   2.252   5.213  0.2567  0.6300 -1.3492
12072TIP3    H257708   2.395   2.300   5.356  1.0327 -1.0671 -0.7794
12073TIP3   OH257709   5.392   0.747  10.681  0.4714 -0.1606  0.1441
12073TIP3    H157710   5.319   0.704  10.636 -0.2387  0.2233  0.9071
12073TIP3    H257711   5.398   0.704  10.766  1.6562 -0.7180 -0.1942
12074TIP3   OH257712   5.601   2.973   0.973 -0.4366 -0.2077  0.7101
12074TIP3    H157713   5.601   2.911   1.046  0.5392 -0.5058  0.4766
12074TIP3    H257714   5.668   3.037   0.996 -1.2948  0.6524  0.8497
12075TIP3   OH257715   5.187   6.265   1.115  0.0531  0.0296  0.1228
12075TIP3    H157716   5.278   6.255   1.087  0.4612 -0.3250  1.5286
12075TIP3    H257717   5.137   6.219   1.048  0.9827 -0.6320 -0.1346
12076TIP3   OH257718   1.405   2.859  13.983 -0.0152 -0.2032 -0.4396
12076TIP3    H157719   1.452   2.854  13.900 -0.2127 -0.4529 -0.5402
12076TIP3    H257720   1.319   2.894  13.960  0.2570  0.6645 -0.1949
12077TIP3   OH257721   1.483   4.227   3.188 -0.1404 -0.0149  0.0177
12077TIP3    H157722   1.564   4.244   3.236 -1.2251 -0.4447  2.1386
12077TIP3    H257723   1.487   4.133   3.167  0.4529  0.2261 -1.0492
12078TIP3   OH257724   2.073   4.632  12.927  0.1022  0.0173  0.3369
12078TIP3    H157725   2.117   4.615  12.844  1.1653  1.0945  0.6618
12078TIP3    H257726   2.117   4.709  12.963  0.4220 -1.0499  2.4094
12079TIP3   OH257727   4.644   5.823   2.625  0.0669 -0.7240 -0.0155
12079TIP3    H157728   4.707   5.766   2.582  1.3027  3.1168 -4.1563
12079TIP3    H257729   4.696   5.896   2.658 -1.8091  1.1186 -0.8558
12080TIP3   OH257730   5.187   2.868   9.953  0.0342  0.1264 -0.1392
12080TIP3    H157731   5.136   2.886   9.874 -2.6634 -1.2536  1.1624
12080TIP3    H257732   5.217   2.778   9.943 -0.1803  0.0015  0.3385
12081TIP3   OH257733   6.391   2.324   9.994 -0.5113  0.3641 -0.1315
12081TIP3    H157734   6.414   2.408  10.033  1.5811 -0.0668 -0.3272
12081TIP3    H257735   6.437   2.322   9.910 -1.3272 -0.5871 -0.5968
12082TIP3   OH257736   6.554   2.774   4.301 -0.4273  0.8356 -0.1906
12082TIP3    H157737   6.467   2.774   4.260  0.0115 -0.7748 -1.1748
12082TIP3    H257738   6.615   2.781   4.228  0.3094  2.4003  0.5190
12083TIP3   OH257739   1.183   2.774   4.871 -0.2449  0.4721  0.2670
12083TIP3    H157740   1.102   2.794   4.918  0.2982  0.8906  1.0576
12083TIP3    H257741   1.228   2.859   4.863 -0.5939  0.5384 -1.5805
12084TIP3   OH257742   2.605   5.184   1.302  0.4005  0.1858 -0.3731
12084TIP3    H157743   2.553   5.248   1.350  0.2278 -1.8688  2.4407
12084TIP3    H257744   2.685   5.175   1.353  1.2914 -0.4330 -1.8069
12085TIP3   OH257745   1.460   2.817  15.473 -0.3003 -0.4982  0.4025
12085TIP3    H157746   1.443   2.765  15.552  1.8274 -0.2331  1.1103
12085TIP3    H257747   1.502   2.896  15.506  1.0936 -0.6008 -1.0048
12086TIP3   OH257748   0.596   1.065   3.540 -0.4148 -0.2544 -0.0974
12086TIP3    H157749   0.546   1.129   3.591 -2.1878 -0.7420 -1.1466
12086TIP3    H257750   0.643   1.117   3.475 -0.4372  0.1195  0.1793
12087TIP3   OH257751   2.500   2.736   1.165 -0.5307  0.2074 -0.1096
12087TIP3    H157752   2.460   2.762   1.083 -0.1872 -1.4381 -0.8278
12087TIP3    H257753   2.576   2.794   1.174 -1.3258  1.2965 -0.2526
12088TIP3   OH257754   5.052   3.240  14.268  0.4821 -0.1336  0.9151
12088TIP3    H157755   4.994   3.260  14.195  0.2550 -0.4848  1.0003
12088TIP3    H257756   5.030   3.151  14.293  1.3273 -0.4076  0.7014
12089TIP3   OH257757   5.353   6.330   1.789  0.7415 -0.4538 -0.6103
12089TIP3    H157758   5.267   6.299   1.818  0.0733  0.0140 -1.9718
12089TIP3    H257759   5.355   6.422   1.814  0.7588 -0.4107 -0.7702
12090TIP3   OH257760   5.493   4.018   5.139  0.0455  0.5126  0.1310
12090TIP3    H157761   5.504   4.109   5.112  0.0222  0.7995  1.0352
12090TIP3    H257762   5.404   3.995   5.110 -0.5182  1.2660  1.1812
12091TIP3   OH257763   6.709   4.350   0.663 -0.6077 -0.0858 -0.6143
12091TIP3    H157764   6.715   4.254   0.666  0.3182 -0.0528 -0.9302
12091TIP3    H257765   6.670   4.374   0.747  1.6064 -0.6100  0.6639
12092TIP3   OH257766   3.571   3.956  11.912  0.2354 -0.0300  0.1570
12092TIP3    H157767   3.516   4.017  11.862  2.8490  0.8009 -1.9588
12092TIP3    H257768   3.577   3.995  11.999 -1.2574  0.6540 -0.0147
12093TIP3   OH257769   1.639   2.189   5.963 -0.3262 -0.2367 -0.0287
12093TIP3    H157770   1.594   2.115   6.001  1.5230 -1.9116 -0.9130
12093TIP3    H257771   1.717   2.152   5.922  1.1230  2.2893  0.1777
12094TIP3   OH257772   2.108   3.018   2.962 -1.0355  0.3821  0.1003
12094TIP3    H157773   2.014   3.029   2.953 -0.8796  0.1548 -2.3934
12094TIP3    H257774   2.142   3.106   2.977 -1.6017  0.5039  0.6966
12095TIP3   OH257775   5.479   5.125  12.592 -0.6701 -0.9840 -0.2742
12095TIP3    H157776   5.526   5.052  12.633  1.7493  0.7597  0.3127
12095TIP3    H257777   5.476   5.193  12.660  1.1408  1.0431 -2.0661
12096TIP3   OH257778   1.353   3.264   2.697 -0.2411 -0.3722 -0.3041
12096TIP3    H157779   1.433   3.313   2.715 -0.5991 -0.3826  1.5544
12096TIP3    H257780   1.290   3.330   2.668 -0.4309  0.1758  1.2335
12097TIP3   OH257781   6.355   3.399   0.776 -0.1505  0.5186  0.1362
12097TIP3    H157782   6.313   3.464   0.833 -0.2395 -0.7305  1.5672
12097TIP3    H257783   6.400   3.450   0.709 -2.1870  1.9769 -0.2038
12098TIP3   OH257784   2.171   3.995  15.533 -0.3226  0.5163 -0.5496
12098TIP3    H157785   2.116   3.993  15.611  0.4624  0.2981  0.0080
12098TIP3    H257786   2.184   4.088  15.515  0.9820  0.6071  0.6708
12099TIP3   OH257787   6.774   1.174   2.888 -0.1704 -0.3148 -0.1267
12099TIP3    H157788   6.849   1.141   2.839  0.2118 -0.3300  0.4545
12099TIP3    H257789   6.795   1.266   2.905 -1.3967  0.3837 -2.0619
12100TIP3   OH257790   0.980   6.848  10.438  0.4251 -0.2558  0.0870
12100TIP3    H157791   0.932   6.833  10.356  0.0364 -1.8475  0.5748
12100TIP3    H257792   0.929   6.915  10.483 -1.3838 -1.8563  0.5668
12101TIP3   OH257793   6.918   4.164   2.836 -0.0868 -0.5130  0.7470
12101TIP3    H157794   6.976   4.124   2.772  0.0979 -0.2792  0.7670
12101TIP3    H257795   6.917   4.257   2.813 -1.2380 -0.6643  0.1318
12102TIP3   OH257796   0.249   6.160   5.264  0.3572 -0.1036 -0.1001
12102TIP3    H157797   0.304   6.145   5.340 -1.1340  1.1351  1.3138
12102TIP3    H257798   0.290   6.234   5.218  0.9531 -0.4860 -0.1834
12103TIP3   OH257799   1.779   1.989   1.945  0.1612  0.3386 -0.0816
12103TIP3    H157800   1.730   2.017   1.867 -2.1774 -1.2916  0.6756
12103TIP3    H257801   1.778   2.065   2.003 -1.9587  0.2597  0.0726
12104TIP3   OH257802   5.333   4.731  14.516 -0.0006 -0.4325  0.4595
12104TIP3    H157803   5.402   4.719  14.452 -0.5222 -0.3235 -0.1302
12104TIP3    H257804   5.366   4.690  14.596  2.1857  2.4918  1.2006
12105TIP3   OH257805   4.300   2.106   1.896 -0.0329 -0.2927  0.2047
12105TIP3    H157806   4.275   2.018   1.924  0.5886 -0.5184  0.0800
12105TIP3    H257807   4.229   2.134   1.840 -0.5256 -0.4739  0.7291
12106TIP3   OH257808   4.104   2.197  15.357  0.0352 -0.5500  0.2383
12106TIP3    H157809   4.016   2.190  15.395 -0.7702 -1.4612 -1.6397
12106TIP3    H257810   4.106   2.285  15.317 -0.4917 -0.9529 -0.7167
12107TIP3   OH257811   2.846   5.145   4.268 -0.3678  0.6232 -0.3589
12107TIP3    H157812   2.752   5.130   4.262 -0.4018  0.4033  0.5775
12107TIP3    H257813   2.853   5.235   4.301 -0.2821  0.2551  0.6691
12108TIP3   OH257814   1.696   5.842   5.806 -0.0337 -0.0069  1.0159
12108TIP3    H157815   1.612   5.822   5.846  0.2077 -1.6326  0.7998
12108TIP3    H257816   1.714   5.933   5.831 -0.3703 -0.6114  3.7271
12109TIP3   OH257817   3.425   3.559   5.725  0.3230 -0.0901  0.6061
12109TIP3    H157818   3.418   3.537   5.818  0.2294 -2.6759  0.0423
12109TIP3    H257819   3.515   3.590   5.715  0.1348  0.8696  1.6500
12110TIP3   OH257820   5.842   1.748   1.683 -0.5901  0.3529  0.3235
12110TIP3    H157821   5.764   1.793   1.714 -0.4279  0.8310  0.0517
12110TIP3    H257822   5.832   1.658   1.714 -0.8406  0.6110  1.0256
12111TIP3   OH257823   3.175   5.128   1.031  0.0039 -0.3222 -0.1645
12111TIP3    H157824   3.175   5.052   0.973 -1.6880 -0.4818  0.0018
12111TIP3    H257825   3.082   5.150   1.043  0.4387  1.8165 -0.2575
12112TIP3   OH257826   5.873   5.527  11.389  0.4690  0.2435  0.3437
12112TIP3    H157827   5.799   5.473  11.360  0.3530 -1.2186  3.0048
12112TIP3    H257828   5.834   5.612  11.409 -0.0161  0.2396 -0.5184
12113TIP3   OH257829   0.558   6.381  11.611  0.6954  0.2521 -0.0042
12113TIP3    H157830   0.527   6.434  11.537  1.7882 -0.1284 -0.7733
12113TIP3    H257831   0.481   6.369  11.666 -0.0409  0.9535 -0.8405
12114TIP3   OH257832   6.307   3.668   0.168  0.0292  0.2250 -0.1507
12114TIP3    H157833   6.359   3.617   0.230  0.4420  0.7194 -0.0848
12114TIP3    H257834   6.237   3.706   0.222  0.6824  1.0780  0.1402
12115TIP3   OH257835   6.549   0.380   0.569 -0.0406 -0.9446 -0.4864
12115TIP3    H157836   6.454   0.392   0.581  0.1330  1.4614 -1.0248
12115TIP3    H257837   6.559   0.367   0.475  0.1275 -1.9134 -0.3427
12116TIP3   OH257838   6.051   3.478  13.183  0.6759 -0.2278 -0.0803
12116TIP3    H157839   6.015   3.555  13.139 -0.8255  0.4622  2.1716
12116TIP3    H257840   6.052   3.410  13.116  1.1561  1.4784 -1.8833
12117TIP3   OH257841   4.146   3.769   0.899 -0.0478  0.3594  0.4755
12117TIP3    H157842   4.138   3.839   0.964 -0.0016  0.2269  0.6245
12117TIP3    H257843   4.239   3.747   0.899 -0.0875  0.1921  0.5413
12118TIP3   OH257844   2.070   2.374  12.857  0.1759  0.7302  0.6513
12118TIP3    H157845   1.990   2.324  12.840  0.0959  0.4020  1.8878
12118TIP3    H257846   2.062   2.452  12.803 -0.7433  0.4501  0.3688
12119TIP3   OH257847   3.132   5.980   0.861  0.4011 -0.7052 -0.2804
12119TIP3    H157848   3.185   6.054   0.831 -0.2802 -1.0154 -2.4447
12119TIP3    H257849   3.187   5.904   0.844  0.7062 -0.7831  1.0002
12120TIP3   OH257850   0.967   2.834   4.012 -0.1466 -0.3799 -0.0116
12120TIP3    H157851   1.044   2.846   4.067 -0.4549  0.5091  0.2472
12120TIP3    H257852   0.992   2.870   3.927 -0.0360 -0.7684 -0.1478
12121TIP3   OH257853   1.251   1.494   1.618  0.0059  0.6881  0.5766
12121TIP3    H157854   1.213   1.561   1.674  1.4761  1.2284  0.9913
12121TIP3    H257855   1.208   1.506   1.533 -1.3977  0.6252  1.2518
12122TIP3   OH257856   4.633   7.081   3.101  0.3075  0.1340  0.2517
12122TIP3    H157857   4.619   7.162   3.051 -0.1150 -1.3295 -2.1606
12122TIP3    H257858   4.547   7.040   3.104  1.1187 -1.9436 -1.8544
12123TIP3   OH257859   6.013   3.314   3.319  0.8863 -0.2657 -0.2239
12123TIP3    H157860   5.956   3.312   3.396  1.9445 -0.4853  0.5669
12123TIP3    H257861   5.979   3.245   3.262  0.0402 -0.0420 -0.0063
12124TIP3   OH257862   2.675   1.562  14.343 -0.2074 -0.2871  0.1744
12124TIP3    H157863   2.709   1.583  14.256 -0.3204 -1.8210 -0.2737
12124TIP3    H257864   2.581   1.550  14.330  0.1261 -3.3417 -0.1513
12125TIP3   OH257865   5.216   2.572   0.422 -0.0815 -0.1644 -0.6155
12125TIP3    H157866   5.208   2.480   0.399  0.9767 -0.2714 -0.5829
12125TIP3    H257867   5.309   2.593   0.409 -0.1326  0.6665  0.2095
12126TIP3   OH257868   3.029   5.268   1.285 -0.6172 -0.4461 -0.3121
12126TIP3    H157869   3.105   5.302   1.332 -0.0875 -1.4183 -0.4298
12126TIP3    H257870   2.975   5.228   1.354  0.4775 -2.4590 -0.5384
12127TIP3   OH257871   3.711   4.455  13.444  0.0478 -0.0751  0.1446
12127TIP3    H157872   3.793   4.418  13.410 -0.1733 -0.9740  0.5541
12127TIP3    H257873   3.712   4.547  13.416  0.9395 -0.2170 -0.3121
12128TIP3   OH257874   1.214   2.064   0.177  0.2271  0.4357  0.0700
12128TIP3    H157875   1.268   2.117   0.120  0.8038 -0.4628 -0.2343
12128TIP3    H257876   1.259   2.065   0.262  0.5867 -0.0921 -0.1111
12129TIP3   OH257877   7.087   2.741   4.442 -0.1813  0.0851 -0.3930
12129TIP3    H157878   7.075   2.735   4.537  0.1993 -0.2790 -0.3660
12129TIP3    H257879   7.067   2.832   4.421  0.4156  0.3457  0.1347
12130TIP3   OH257880   6.715   6.603   2.959 -0.4482  0.1830 -0.3544
12130TIP3    H157881   6.717   6.697   2.980 -2.0621  0.2310 -0.3397
12130TIP3    H257882   6.729   6.599   2.865  1.5713  0.2828 -0.1115
12131TIP3   OH257883   3.567   1.578   2.833 -0.1481  0.0696  0.0319
12131TIP3    H157884   3.627   1.651   2.825 -0.3502  0.1936 -0.3508
12131TIP3    H257885   3.593   1.517   2.764  0.3255 -0.4446  0.6453
12132TIP3   OH257886   0.836   1.570   4.060 -0.2137 -0.5572  0.3444
12132TIP3    H157887   0.817   1.638   3.996 -1.2418 -2.5165 -1.5744
12132TIP3    H257888   0.932   1.562   4.059 -0.1440  0.2621 -0.0448
12133TIP3   OH257889   4.027   6.004   3.919 -0.4265 -0.0826  0.3370
12133TIP3    H157890   3.988   5.927   3.877  0.1502 -0.6282  0.7780
12133TIP3    H257891   3.967   6.025   3.991 -0.5163 -0.2065  0.2990
12134TIP3   OH257892   1.131   2.068  12.779  0.3325 -0.5993  0.4036
12134TIP3    H157893   1.066   2.102  12.717  0.5106  1.7186  1.4232
12134TIP3    H257894   1.081   2.010  12.836 -0.3974 -0.5378 -0.1567
12135TIP3   OH257895   0.549   0.877   9.265 -0.5090 -0.3081  0.1118
12135TIP3    H157896   0.474   0.903   9.319 -0.7772 -0.7729 -0.0303
12135TIP3    H257897   0.559   0.949   9.202 -0.2392  0.2009  0.7301
12136TIP3   OH257898   0.663   6.879  11.736 -0.3474  0.0898 -0.5772
12136TIP3    H157899   0.718   6.957  11.730  0.3131 -0.3608 -0.5779
12136TIP3    H257900   0.606   6.895  11.811  0.6511  0.0549  0.2189
12137TIP3   OH257901   5.797   3.717   4.606 -0.1336  0.3302 -0.0776
12137TIP3    H157902   5.748   3.640   4.633  1.2368 -0.3542  0.5752
12137TIP3    H257903   5.753   3.748   4.527 -2.4383  0.5954  1.2307
12138TIP3   OH257904   0.928   0.913   1.707 -0.3225 -0.1893 -0.1927
12138TIP3    H157905   1.000   0.932   1.767  1.0687  0.7766 -2.0933
12138TIP3    H257906   0.881   0.996   1.698 -1.6850 -0.7762  0.9324
12139TIP3   OH257907   1.412   0.704  13.369  0.2432 -0.1653  0.2250
12139TIP3    H157908   1.339   0.747  13.324  1.6152  1.2163 -0.7455
12139TIP3    H257909   1.380   0.691  13.458 -1.2297  0.3094 -0.1980
12140TIP3   OH257910   1.885   1.656   4.234 -0.0427  0.0230  0.0367
12140TIP3    H157911   1.842   1.740   4.249 -0.4455 -0.3462  1.0756
12140TIP3    H257912   1.965   1.677   4.186  0.7183  1.2118  1.7140
12141TIP3   OH257913   2.716   1.854  13.493  0.0897 -0.0567 -0.0742
12141TIP3    H157914   2.782   1.921  13.507 -0.8593  0.6001  1.5907
12141TIP3    H257915   2.632   1.900  13.503 -0.6155 -1.6986  2.9870
12142TIP3   OH257916   0.982   5.562   4.365  0.4896  0.2084  0.2649
12142TIP3    H157917   0.934   5.570   4.283 -1.2709  0.6814  1.2743
12142TIP3    H257918   1.071   5.591   4.345 -0.4184  2.3120 -1.0176
12143TIP3   OH257919   1.708   3.860   3.991 -0.1453 -0.0967 -0.1576
12143TIP3    H157920   1.667   3.776   4.012  2.9904 -1.4304  1.2189
12143TIP3    H257921   1.644   3.925   4.020 -2.0897 -1.9461  0.0358
12144TIP3   OH257922   6.205   1.490  12.929 -0.2229 -0.0775  0.0014
12144TIP3    H157923   6.213   1.517  12.838 -0.2457  0.3290  0.1182
12144TIP3    H257924   6.130   1.430  12.931 -0.1202 -0.2159 -0.2724
12145TIP3   OH257925   1.783   6.505   4.115  0.1501 -0.2146 -0.0211
12145TIP3    H157926   1.772   6.481   4.023 -0.9089 -0.9798  0.2876
12145TIP3    H257927   1.811   6.424   4.158  2.1877  0.4959  0.1051
12146TIP3   OH257928   6.483   6.402  13.354  0.1180  0.0293  0.0009
12146TIP3    H157929   6.447   6.420  13.441  0.2931 -0.2983  0.1433
12146TIP3    H257930   6.409   6.367  13.304 -0.2018  1.0356 -0.2491
12147TIP3   OH257931   1.190   5.385  15.627 -0.4394 -0.5449  0.5549
12147TIP3    H157932   1.201   5.301  15.580 -0.0375 -1.8194  2.7905
12147TIP3    H257933   1.222   5.367  15.715  1.0671  2.4258  0.7319
12148TIP3   OH257934   5.880   4.186  14.307 -0.2110 -0.2025  0.0775
12148TIP3    H157935   5.973   4.200  14.292 -0.2620  2.6438  1.5587
12148TIP3    H257936   5.874   4.163  14.400 -0.8658 -3.1460 -0.6039
12149TIP3   OH257937   7.136   3.927  11.640  0.0901 -0.3097  0.2182
12149TIP3    H157938   7.090   3.861  11.587 -0.2901  0.3642 -0.3096
12149TIP3    H257939   7.228   3.916  11.617 -0.1242  0.3563 -1.0581
12150TIP3   OH257940   6.090   6.348   0.669  0.3112 -0.0321  0.0483
12150TIP3    H157941   6.129   6.264   0.693  0.4482  0.5234  1.9469
12150TIP3    H257942   6.160   6.395   0.624 -0.0785 -1.2696 -1.9856
12151TIP3   OH257943   2.466   2.829  10.176  0.7342 -0.0344 -0.3716
12151TIP3    H157944   2.394   2.814  10.116 -1.5956 -0.1927  2.2428
12151TIP3    H257945   2.501   2.742  10.195  0.2878 -0.1771 -0.1845
12152TIP3   OH257946   1.354   0.374   5.178  0.6185  0.5239 -0.3482
12152TIP3    H157947   1.316   0.446   5.229  0.4427  0.3826 -0.2804
12152TIP3    H257948   1.446   0.373   5.205  0.2539 -0.3893  0.9582
12153TIP3   OH257949   6.029   1.524   1.670 -0.2921 -0.2447  0.7233
12153TIP3    H157950   6.041   1.592   1.604  1.3329  0.2062  1.4360
12153TIP3    H257951   5.942   1.487   1.651  0.2067 -0.2869 -1.7717
12154TIP3   OH257952   4.790   5.291  12.480  0.2608 -0.1221 -0.3356
12154TIP3    H157953   4.797   5.376  12.437 -1.0037 -0.9996 -2.4634
12154TIP3    H257954   4.739   5.307  12.559  1.4521  1.3374  0.1705
12155TIP3   OH257955   6.784   0.846  12.587  0.1463 -0.2335 -0.0259
12155TIP3    H157956   6.741   0.774  12.634  0.2774  0.2871  0.9128
12155TIP3    H257957   6.755   0.925  12.632  0.3912  0.2726 -0.7437
12156TIP3   OH257958   6.324   6.763  14.353 -0.0187 -0.3338 -0.0665
12156TIP3    H157959   6.231   6.775  14.338 -0.1449 -1.1441  0.0242
12156TIP3    H257960   6.347   6.688  14.298  0.1720 -1.3726  1.3779
12157TIP3   OH257961   0.636   1.159   5.624 -0.0473  0.4292  0.4142
12157TIP3    H157962   0.617   1.198   5.709  1.1614 -0.1530  0.9671
12157TIP3    H257963   0.569   1.195   5.566 -0.1895  1.7279  1.3465
12158TIP3   OH257964   7.008   4.160   1.916  0.0780  0.5685  0.0330
12158TIP3    H157965   7.012   4.224   1.987  1.7924  1.6395 -0.9643
12158TIP3    H257966   6.922   4.175   1.876  0.3680  2.1507 -0.0587
12159TIP3   OH257967   1.232   1.885   2.965 -0.2627  0.5895 -0.7700
12159TIP3    H157968   1.286   1.938   3.023 -1.5697  0.9663  0.1418
12159TIP3    H257969   1.231   1.932   2.882  1.4241  0.1700 -1.0764
12160TIP3   OH257970   6.844   6.594  12.863 -0.5678  0.6346  0.0318
12160TIP3    H157971   6.840   6.633  12.951 -0.9103 -0.1060  0.3512
12160TIP3    H257972   6.784   6.520  12.867 -1.7783  1.4894 -1.2990
12161TIP3   OH257973   0.208   5.271  12.744 -0.1622  0.3489 -0.7555
12161TIP3    H157974   0.147   5.215  12.792  1.5896 -2.2774 -1.3224
12161TIP3    H257975   0.220   5.348  12.800 -1.2622 -0.7046  1.0403
12162TIP3   OH257976   5.199   5.263  12.345 -0.8156  0.1940 -0.2173
12162TIP3    H157977   5.191   5.310  12.428  0.4261  1.8175 -0.9663
12162TIP3    H257978   5.193   5.330  12.278  0.5678 -0.7558 -1.3542
12163TIP3   OH257979   3.876   1.154   5.605 -0.1363 -0.0194 -0.2544
12163TIP3    H157980   3.953   1.118   5.561 -0.1234  0.5601 -0.7334
12163TIP3    H257981   3.911   1.229   5.655 -0.2883 -0.1541  0.0539
12164TIP3   OH257982   1.703   0.513   0.074 -0.4839  0.0341  0.6296
12164TIP3    H157983   1.732   0.557  -0.005 -1.3192 -0.8530 -0.2006
12164TIP3    H257984   1.636   0.570   0.111 -0.6231  0.0978  0.2806
12165TIP3   OH257985   2.006   0.001   5.939 -0.7626  0.1102 -0.1530
12165TIP3    H157986   1.975   0.076   5.888 -0.1037  0.4054 -0.1248
12165TIP3    H257987   1.928  -0.052   5.952 -1.4359  1.2278  0.5830
12166TIP3   OH257988   3.949   4.863   1.790  0.5519  0.4512 -0.6401
12166TIP3    H157989   4.042   4.882   1.779  0.2679  2.0078 -0.5776
12166TIP3    H257990   3.925   4.816   1.710  1.4233 -0.1237 -0.5769
12167TIP3   OH257991   6.111   4.540   0.541  0.4779  0.7225  0.0771
12167TIP3    H157992   6.205   4.554   0.534  0.3137  1.3942 -1.1747
12167TIP3    H257993   6.073   4.627   0.529 -0.3004  0.4674  0.6279
12168TIP3   OH257994   4.284   6.348   0.126  0.0172  0.0815 -0.2896
12168TIP3    H157995   4.324   6.330   0.041  3.1387  2.0177  0.5886
12168TIP3    H257996   4.268   6.443   0.125 -0.3700  0.0505  1.0861
12169TIP3   OH257997   4.791   0.023  11.643 -0.3152 -0.1074  0.1619
12169TIP3    H157998   4.753   0.093  11.696 -0.6079  1.4197 -1.9120
12169TIP3    H257999   4.885   0.042  11.644 -0.2554 -0.4139  0.5710
12170TIP3   OH258000   6.146   0.938   5.807  1.1341 -0.0981  0.6986
12170TIP3    H158001   6.193   0.890   5.739  0.4660  0.1605  0.0437
12170TIP3    H258002   6.054   0.934   5.780  0.9604  0.7350  1.1446
12171TIP3   OH258003   2.030   5.513   0.233 -0.3141 -0.2732  0.3851
12171TIP3    H158004   2.010   5.431   0.279 -3.0380 -0.3213 -0.7025
12171TIP3    H258005   1.970   5.577   0.271  0.5052  0.7904 -0.0573
12172TIP3   OH258006   5.648   5.013   4.846  0.3126  0.7445  0.4278
12172TIP3    H158007   5.645   5.013   4.750  0.4658 -2.6095  0.3058
12172TIP3    H258008   5.561   4.985   4.873  1.0938 -1.1715  1.0971
12173TIP3   OH258009   5.448   4.565   1.601 -0.0119  0.2546 -0.4872
12173TIP3    H158010   5.362   4.557   1.643  0.2460  1.3592  0.2845
12173TIP3    H258011   5.510   4.569   1.673  0.5809  0.6789 -1.0112
12174TIP3   OH258012   3.617   6.104  15.200  0.1565  0.9181 -0.1400
12174TIP3    H158013   3.609   6.131  15.108 -1.6513 -0.1026 -0.3302
12174TIP3    H258014   3.559   6.029  15.207 -1.1677  2.0759  2.2824
12175TIP3   OH258015   2.496   6.165  13.104  0.2490  0.1317 -0.0490
12175TIP3    H158016   2.582   6.204  13.113 -0.0859  0.7682  0.4390
12175TIP3    H258017   2.497   6.124  13.017  1.6983 -1.5219  0.6904
12176TIP3   OH258018   6.952   0.220   4.359 -0.2775 -0.0445 -0.3557
12176TIP3    H158019   6.898   0.192   4.285 -2.8409  0.6342  1.1297
12176TIP3    H258020   6.997   0.141   4.388  0.2486 -0.4532 -2.1655
12177TIP3   OH258021   2.039   6.862   5.500 -0.1609  0.2739 -0.4720
12177TIP3    H158022   2.121   6.816   5.520 -1.3232 -2.8339 -2.1884
12177TIP3    H258023   2.064   6.926   5.433  0.6760 -1.9400 -2.4192
12178TIP3   OH258024   1.763   6.467  12.127 -0.1342 -0.5774  0.0229
12178TIP3    H158025   1.727   6.501  12.208 -1.2207  1.2610 -1.1522
12178TIP3    H258026   1.716   6.385  12.112 -1.4998  0.1393  0.2007
12179TIP3   OH258027   0.734   4.098   2.478 -0.0575  0.1649  0.0709
12179TIP3    H158028   0.667   4.161   2.453  0.2821  0.6068  0.2552
12179TIP3    H258029   0.734   4.033   2.407  1.1162  1.5740 -1.3124
12180TIP3   OH258030   7.130   5.665   2.658  0.2670  0.1756 -0.5037
12180TIP3    H158031   7.045   5.701   2.631  0.5517  1.1824 -0.0983
12180TIP3    H258032   7.111   5.621   2.741  0.4134  1.7594  0.4061
12181TIP3   OH258033   5.279   6.644  10.754 -0.2540  0.9193 -0.3851
12181TIP3    H158034   5.225   6.567  10.770  1.1004  0.2320  1.0790
12181TIP3    H258035   5.357   6.631  10.808  1.5887  1.6776 -2.6716
12182TIP3   OH258036   2.383   1.066  12.083 -0.2122 -0.1767  0.0380
12182TIP3    H158037   2.451   1.105  12.138 -0.0983 -2.0151  1.2805
12182TIP3    H258038   2.427   1.050  11.999  0.3332  0.3577  0.2075
12183TIP3   OH258039   5.708   5.919  12.109 -0.9227 -0.3317 -0.2419
12183TIP3    H158040   5.633   5.965  12.072 -2.6216 -2.5775  0.1772
12183TIP3    H258041   5.689   5.915  12.203 -0.2713 -0.8757 -0.1273
12184TIP3   OH258042   4.008   5.955   2.508  0.1253 -0.0713 -0.2607
12184TIP3    H158043   3.936   5.918   2.457  0.3631  0.1010 -0.7203
12184TIP3    H258044   4.007   6.049   2.488  0.0798  0.0367  0.2237
12185TIP3   OH258045   2.703   3.724  12.293 -0.3031 -0.2338 -0.0574
12185TIP3    H158046   2.743   3.637  12.295  0.6866  0.2180  0.1867
12185TIP3    H258047   2.777   3.784  12.282 -0.6717  0.7751  2.3811
12186TIP3   OH258048   4.557   6.099   2.754 -0.9690 -0.2372  0.2420
12186TIP3    H158049   4.550   6.148   2.672 -0.3320 -0.0092  0.3144
12186TIP3    H258050   4.529   6.010   2.731  1.5746 -0.8612 -0.8933
12187TIP3   OH258051   1.240   5.073  14.177 -0.1171 -0.4139  0.3253
12187TIP3    H158052   1.268   5.134  14.108  2.0183 -3.9803 -2.2828
12187TIP3    H258053   1.318   5.063  14.232 -0.7563 -0.1177  1.2992
12188TIP3   OH258054   2.834   4.168   0.819 -0.4364  0.0465 -0.9459
12188TIP3    H158055   2.804   4.198   0.733 -2.3086 -2.4370 -1.2834
12188TIP3    H258056   2.855   4.075   0.806 -2.3297 -0.8517  1.5322
12189TIP3   OH258057   2.621   6.266  10.090  0.3659  0.4926 -0.1709
12189TIP3    H158058   2.573   6.183  10.089  1.1377  0.0414 -0.4054
12189TIP3    H258059   2.652   6.276  10.000  0.6068  0.8410 -0.0505
12190TIP3   OH258060   1.827   0.175   1.698  0.1319 -0.3254 -0.3311
12190TIP3    H158061   1.860   0.100   1.649 -0.2829  0.6323 -2.1744
12190TIP3    H258062   1.757   0.139   1.753 -0.1359 -1.2779 -1.2597
12191TIP3   OH258063   0.185   0.056  12.948 -0.0944 -0.0961  0.3530
12191TIP3    H158064   0.223   0.075  12.862  0.6732 -0.4241  0.6143
12191TIP3    H258065   0.255   0.014  12.997 -0.7613 -0.6163  0.8887
12192TIP3   OH258066   5.188   1.072   2.189  0.4397  0.1334 -0.2855
12192TIP3    H158067   5.112   1.109   2.146 -0.4755 -0.8367  0.4379
12192TIP3    H258068   5.154   0.998   2.240  2.1538 -1.7819 -1.7025
12193TIP3   OH258069   6.523   3.046  13.025 -0.3517 -0.4705  0.2732
12193TIP3    H158070   6.561   3.078  12.944  0.7119  1.3234  1.4307
12193TIP3    H258071   6.519   2.951  13.013  0.1915 -0.2967 -1.6772
12194TIP3   OH258072   2.564   3.624   9.985 -0.0987  0.1225  1.0251
12194TIP3    H158073   2.551   3.717   9.967  0.7569  0.2219  0.8764
12194TIP3    H258074   2.478   3.592  10.012 -0.3377  1.0084  1.3232
12195TIP3   OH258075   4.481   0.759   3.601  0.7572 -0.4848 -0.6028
12195TIP3    H158076   4.387   0.775   3.595  0.7762 -0.3642 -0.5798
12195TIP3    H258077   4.488   0.665   3.617  0.6585 -0.5823 -1.1142
12196TIP3   OH258078   7.019   3.498  10.857  0.0256  0.0861 -0.0326
12196TIP3    H158079   7.016   3.554  10.935 -0.2585  0.3957 -0.2601
12196TIP3    H258080   7.017   3.409  10.892 -2.8534  0.1757  0.2803
12197TIP3   OH258081   4.206   4.952   1.764 -0.7141 -0.3397  0.1036
12197TIP3    H158082   4.234   4.959   1.672  1.1962 -1.3087  0.5526
12197TIP3    H258083   4.284   4.919   1.810 -1.8599 -0.5979  1.9517
12198TIP3   OH258084   3.277   4.950  15.240 -0.1564  0.1394  0.3167
12198TIP3    H158085   3.207   4.946  15.305  0.1672  0.2598  0.6778
12198TIP3    H258086   3.237   4.993  15.164 -1.1269 -1.8364 -0.3512
12199TIP3   OH258087   0.023   6.803   4.178 -0.1763  0.4881 -0.0736
12199TIP3    H158088   0.036   6.898   4.169  0.2063  0.3375 -1.2709
12199TIP3    H258089   0.102   6.773   4.223 -0.4096  0.7610  0.5337
12200TIP3   OH258090   6.734   5.455   4.850 -0.3769 -0.7950  0.9447
12200TIP3    H158091   6.828   5.453   4.866 -0.0021 -0.4596 -1.0001
12200TIP3    H258092   6.715   5.546   4.831 -0.8613 -1.0666  0.0918
12201TIP3   OH258093   3.534   1.188  15.744 -0.4736 -0.5712 -0.2208
12201TIP3    H158094   3.568   1.100  15.758  0.8773 -0.1380 -0.6140
12201TIP3    H258095   3.507   1.218  15.831 -0.0728 -1.0277  0.0607
12202TIP3   OH258096   2.805   4.805   2.472 -0.2363 -0.2459  0.3213
12202TIP3    H158097   2.751   4.726   2.472  0.3111 -0.6286  1.0335
12202TIP3    H258098   2.885   4.779   2.428 -0.4500  0.1999 -0.3415
12203TIP3   OH258099   2.972   0.889  14.803 -0.4146  0.3604  0.3348
12203TIP3    H158100   3.055   0.931  14.780 -0.3809  0.4120  0.5524
12203TIP3    H258101   2.954   0.917  14.892 -0.9272  0.7680  0.1104
12204TIP3   OH258102   4.974   1.456   3.899  0.7117  0.0914 -0.7498
12204TIP3    H158103   4.909   1.386   3.902 -0.6605  1.2504 -1.6499
12204TIP3    H258104   5.041   1.424   3.838  0.4183 -0.6679 -0.6818
12205TIP3   OH258105   3.736   6.950   0.558 -0.7288 -0.0107 -0.2183
12205TIP3    H158106   3.710   7.002   0.634 -0.7546  0.9380 -0.8632
12205TIP3    H258107   3.831   6.958   0.555 -0.4913 -1.8161  0.9483
12206TIP3   OH258108   4.914   6.440  11.841 -0.0446 -0.0697  0.1745
12206TIP3    H158109   4.913   6.512  11.904  0.1172  0.6905 -0.6563
12206TIP3    H258110   4.824   6.408  11.839 -0.3513  0.7650 -0.1468
12207TIP3   OH258111   5.680   2.069  10.984  0.0685  0.4364 -0.2510
12207TIP3    H158112   5.710   2.158  10.969  1.8452 -0.2518 -1.1075
12207TIP3    H258113   5.754   2.025  11.025  0.7018 -1.5922 -3.2739
12208TIP3   OH258114   2.643   4.491   1.552 -0.0266 -0.0422  0.8126
12208TIP3    H158115   2.698   4.497   1.630  0.5721  1.5016  0.3105
12208TIP3    H258116   2.585   4.568   1.557  0.3191  0.3287 -0.4612
12209TIP3   OH258117   3.273   4.826   3.403  0.1436  0.3388 -0.1360
12209TIP3    H158118   3.306   4.911   3.372 -0.3803  0.2419 -1.0021
12209TIP3    H258119   3.257   4.776   3.323 -0.7613 -0.1130  0.3078
12210TIP3   OH258120   4.972   1.564  13.254 -0.5491  0.5533  0.6052
12210TIP3    H158121   4.914   1.631  13.291 -0.5553  0.6286  0.4578
12210TIP3    H258122   5.060   1.602  13.263 -0.5178  0.4318  0.8439
12211TIP3   OH258123   0.226   1.997  12.125  0.4299  0.8469  0.8096
12211TIP3    H158124   0.286   1.949  12.181 -0.5230 -0.1748  0.9876
12211TIP3    H258125   0.181   2.057  12.185  0.9065  1.2674  0.7574
12212TIP3   OH258126   1.497   1.606   4.895  0.0998 -0.2759  0.4992
12212TIP3    H158127   1.452   1.558   4.965  0.5291 -0.3073  0.7564
12212TIP3    H258128   1.427   1.630   4.834 -0.3395  0.1404  1.1580
12213TIP3   OH258129   4.731   2.800   5.865 -0.8499  0.4212  0.5258
12213TIP3    H158130   4.694   2.718   5.898  0.2098  0.3183  1.5286
12213TIP3    H258131   4.751   2.851   5.944  0.4420  0.7704  0.0005
12214TIP3   OH258132   1.676   5.940   5.479 -0.3649  0.1388 -0.1633
12214TIP3    H158133   1.702   5.965   5.567 -0.1524  0.2395 -0.2526
12214TIP3    H258134   1.649   6.022   5.437 -0.9072  0.0227 -0.0465
12215TIP3   OH258135   4.822   2.783  13.770 -0.1148 -0.4522  0.3195
12215TIP3    H158136   4.789   2.818  13.854  0.3522  0.3031  0.1941
12215TIP3    H258137   4.907   2.746  13.792  0.4633  0.6547 -0.0062
12216TIP3   OH258138   6.677   5.756   4.300  0.0126  0.6740  0.2135
12216TIP3    H158139   6.650   5.689   4.236 -0.5616 -0.1332  1.2548
12216TIP3    H258140   6.642   5.838   4.265 -1.8945 -0.0146  0.3489
12217TIP3   OH258141   7.028   1.006   1.340 -0.2180 -0.0627  0.0862
12217TIP3    H158142   7.001   0.922   1.304 -2.1972  0.6648 -0.2444
12217TIP3    H258143   7.123   1.008   1.328 -0.4505 -1.1096 -2.3532
12218TIP3   OH258144   6.589   1.328  14.660  0.5520  0.2811  0.2698
12218TIP3    H158145   6.670   1.317  14.609  1.5772  0.8857  1.7224
12218TIP3    H258146   6.558   1.238  14.675  1.9536 -0.0694  1.2379
12219TIP3   OH258147   2.447   0.510  13.415 -0.0009 -0.2438 -0.0236
12219TIP3    H158148   2.368   0.456  13.405 -0.3416  0.3522 -0.6865
12219TIP3    H258149   2.501   0.487  13.340  1.3796 -2.0820  1.4366
12220TIP3   OH258150   4.379   4.722  10.472  0.2406 -0.5277 -0.4544
12220TIP3    H158151   4.403   4.647  10.418  2.3550 -0.0247 -0.2808
12220TIP3    H258152   4.429   4.711  10.552  0.6916  1.1132 -0.4774
12221TIP3   OH258153   1.421   6.823   1.472 -0.6323  0.4568  0.2935
12221TIP3    H158154   1.397   6.833   1.379  2.1203 -1.1379 -0.7019
12221TIP3    H258155   1.497   6.880   1.483 -1.4282  1.2650  1.8473
12222TIP3   OH258156   3.057   6.933   2.152 -0.3959  0.2584  0.1608
12222TIP3    H158157   3.111   6.907   2.227  1.7671 -1.9666 -1.9768
12222TIP3    H258158   3.000   7.002   2.186  1.5070  0.4148  3.4379
12223TIP3   OH258159   1.864   6.820  15.413  0.4775 -0.5139 -0.3221
12223TIP3    H158160   1.915   6.829  15.494  0.2299  1.7587 -0.3457
12223TIP3    H258161   1.776   6.796  15.441  1.2613 -3.6803 -0.2313
12224TIP3   OH258162   0.006   6.429   3.637 -0.3068 -0.3930  0.0142
12224TIP3    H158163   0.045   6.516   3.645 -1.3124  0.0744 -0.0361
12224TIP3    H258164   0.081   6.371   3.626  0.4704  0.2958  1.3689
12225TIP3   OH258165   0.603   3.976   3.772 -0.1346 -0.0690  0.7760
12225TIP3    H158166   0.512   3.976   3.801 -0.6162 -0.7051 -0.6448
12225TIP3    H258167   0.640   4.057   3.808 -1.1232 -0.0518  1.7752
12226TIP3   OH258168   3.295   6.955  14.779 -0.3153  0.5564  0.0518
12226TIP3    H158169   3.307   6.914  14.864  1.3366 -0.3041 -0.5427
12226TIP3    H258170   3.375   7.006  14.765 -0.8044  1.1250 -0.7401
12227TIP3   OH258171   3.944   2.656   2.132  0.1701  0.5786  0.2912
12227TIP3    H158172   3.858   2.631   2.166  0.0404 -0.0875 -0.4817
12227TIP3    H258173   3.924   2.718   2.061  0.1018 -1.5889 -1.7294
12228TIP3   OH258174   1.179   1.320  11.632  0.0061  0.1617 -0.6461
12228TIP3    H158175   1.220   1.378  11.568  0.5467 -1.3798 -1.7822
12228TIP3    H258176   1.086   1.341  11.628  0.4052  2.5798  0.7571
12229TIP3   OH258177   3.165   1.482  12.952  0.0286  0.2288  0.5329
12229TIP3    H158178   3.160   1.476  12.856  1.5800 -1.7125  0.5074
12229TIP3    H258179   3.093   1.540  12.976  0.7296  2.3597 -1.9452
12230TIP3   OH258180   0.126   2.632   2.162  0.4213 -0.2995 -0.1374
12230TIP3    H158181   0.137   2.645   2.068  1.2721 -1.2858 -0.2049
12230TIP3    H258182   0.041   2.670   2.183  0.1468 -0.2205 -1.3374
12231TIP3   OH258183   2.342   1.876   0.138  0.0030 -0.1348  0.2850
12231TIP3    H158184   2.317   1.784   0.144  1.4811 -0.5293  0.9037
12231TIP3    H258185   2.425   1.882   0.186 -0.1987  1.5799  0.4907
12232TIP3   OH258186   1.217   4.381   4.537  0.4495 -0.4154 -0.2448
12232TIP3    H158187   1.188   4.408   4.450  1.0018 -1.1849 -0.6819
12232TIP3    H258188   1.164   4.432   4.597 -0.5585 -0.5136 -1.0285
12233TIP3   OH258189   6.363   6.465   5.211  0.4870 -0.4367  0.0403
12233TIP3    H158190   6.411   6.519   5.148  0.7544 -0.1086  0.5209
12233TIP3    H258191   6.382   6.505   5.296 -0.2451 -0.5954  0.2847
12234TIP3   OH258192   0.556   2.293   6.119 -0.2544 -0.0122 -0.1258
12234TIP3    H158193   0.550   2.238   6.042 -0.4854  0.5716 -0.5383
12234TIP3    H258194   0.498   2.367   6.099 -1.4206 -0.5237  1.1674
12235TIP3   OH258195   1.736   3.400   5.186 -0.1307 -0.1040 -0.2653
12235TIP3    H158196   1.800   3.372   5.251 -0.4616  1.5767  0.8601
12235TIP3    H258197   1.789   3.427   5.111  0.7329  2.7830  1.2186
12236TIP3   OH258198   4.923   5.972  15.316 -0.5027 -0.0102 -0.0329
12236TIP3    H158199   4.909   5.905  15.383  0.8677  2.0926  2.5537
12236TIP3    H258200   4.994   6.026  15.351 -2.3183  3.5233 -1.3170
12237TIP3   OH258201   0.047   1.379  12.784 -0.3198 -0.0578 -0.2354
12237TIP3    H158202   0.067   1.469  12.808  0.3051 -0.4019  0.5877
12237TIP3    H258203   0.039   1.333  12.868 -1.9551 -0.5022 -0.5881
12238TIP3   OH258204   0.042   3.085  13.638  0.2602  0.3803 -0.0016
12238TIP3    H158205   0.077   3.028  13.570  0.5881  0.4813  0.0812
12238TIP3    H258206   0.017   3.026  13.709  0.8545  0.3620  0.1947
12239TIP3   OH258207   3.747   6.218  12.008 -0.1614 -0.2434  0.3801
12239TIP3    H158208   3.765   6.126  12.030  0.6669 -0.1534  0.0881
12239TIP3    H258209   3.822   6.246  11.957 -0.5938  0.4934  0.1334
12240TIP3   OH258210   6.468   3.346   4.155  0.5017 -0.6795 -0.2654
12240TIP3    H158211   6.393   3.293   4.181 -0.4556  0.9573  0.4644
12240TIP3    H258212   6.502   3.303   4.077 -2.3401 -0.4533 -1.7324
12241TIP3   OH258213   4.998   2.574  14.766  0.3436 -0.2798  0.1296
12241TIP3    H158214   4.980   2.643  14.831  4.3113  1.1379 -0.0152
12241TIP3    H258215   5.075   2.528  14.800 -0.2662 -2.6102 -1.3801
12242TIP3   OH258216   0.461   6.713  10.481 -0.0510 -0.2988  0.4815
12242TIP3    H158217   0.397   6.704  10.552  0.9212  1.0247  1.5707
12242TIP3    H258218   0.545   6.699  10.523  0.5361  0.3558 -0.4403
12243TIP3   OH258219   4.147   2.206   4.390  0.1688  0.4769 -0.1522
12243TIP3    H158220   4.112   2.233   4.475  2.6456  0.7098  0.8936
12243TIP3    H258221   4.242   2.220   4.398  0.4715  0.6530 -3.0291
12244TIP3   OH258222   1.887   6.249  13.976 -0.4029  0.9473  0.6193
12244TIP3    H158223   1.924   6.337  13.986  0.6410  0.5089  0.7721
12244TIP3    H258224   1.961   6.190  13.992 -0.6621  0.0657 -1.1911
12245TIP3   OH258225   1.798   0.258   1.439  0.5449 -0.1734  0.9120
12245TIP3    H158226   1.800   0.236   1.532 -1.9023  0.8294  1.2717
12245TIP3    H258227   1.850   0.338   1.433 -1.0864  1.0065  1.8487
12246TIP3   OH258228   0.762   7.142  11.725  1.0673 -0.6526  0.2596
12246TIP3    H158229   0.798   7.220  11.681 -0.9228  1.1575  1.6465
12246TIP3    H258230   0.675   7.131  11.688  0.6264 -1.1000  1.3733
12247TIP3   OH258231   1.723   6.756   9.746 -0.1825  0.1759 -0.0582
12247TIP3    H158232   1.767   6.679   9.709 -0.3150  0.4494 -0.8071
12247TIP3    H258233   1.631   6.730   9.753 -0.0472 -0.1181  0.7572
12248TIP3   OH258234   4.842   6.859   0.264 -0.2131  0.2598  0.1844
12248TIP3    H158235   4.882   6.934   0.307 -0.9684 -0.1072  1.5960
12248TIP3    H258236   4.789   6.897   0.193  2.2208  0.7670 -1.4727
12249TIP3   OH258237   4.930   5.791   0.925 -0.0523 -0.4424 -0.7228
12249TIP3    H158238   4.889   5.704   0.922  0.4463 -0.6640 -1.1913
12249TIP3    H258239   4.999   5.782   0.991 -0.7008 -0.0854  0.0241
12250TIP3   OH258240   0.904   6.135  15.109 -0.4936 -0.6858  0.4986
12250TIP3    H158241   0.915   6.093  15.024  1.2528  0.6202  0.0152
12250TIP3    H258242   0.963   6.211  15.106 -0.3033 -0.6694  2.9198
12251TIP3   OH258243   3.078   3.723   5.804 -0.8478  0.5273 -0.0316
12251TIP3    H158244   3.056   3.816   5.798  0.4263  0.8373 -0.1794
12251TIP3    H258245   3.028   3.683   5.733 -1.1839  1.1426 -0.1549
12252TIP3   OH258246   4.885   5.520   3.988 -0.2075  0.0720  0.7803
12252TIP3    H158247   4.904   5.549   3.899 -2.2306  1.0186  0.5992
12252TIP3    H258248   4.795   5.488   3.984 -0.2172 -0.1917  2.4322
12253TIP3   OH258249   5.060   3.112  13.258  0.5419 -0.3424  0.1756
12253TIP3    H158250   5.093   3.127  13.347  1.6915  0.5077 -0.3618
12253TIP3    H258251   4.999   3.183  13.243 -1.2251 -1.6211  0.9799
12254TIP3   OH258252   1.478   0.636  10.650 -0.0489  0.6582 -0.1049
12254TIP3    H158253   1.508   0.659  10.738  0.8950 -0.9718  0.0434
12254TIP3    H258254   1.385   0.657  10.651  0.1197  1.4872  0.9875
12255TIP3   OH258255   3.303   0.486  11.907  0.0665  0.4204  0.3459
12255TIP3    H158256   3.247   0.422  11.952  1.3870 -1.5626 -0.6768
12255TIP3    H258257   3.356   0.433  11.847  0.5280  2.6083 -1.3097
12256TIP3   OH258258   5.838   4.270  10.407  0.5588  0.3294 -0.4765
12256TIP3    H158259   5.759   4.319  10.382 -0.3951 -0.0738  1.5639
12256TIP3    H258260   5.813   4.178  10.397  0.2620  0.1623  1.4464
12257TIP3   OH258261   6.134   2.248  13.114 -0.3055  0.1010 -0.1496
12257TIP3    H158262   6.205   2.230  13.175  0.2290 -1.5360 -1.1934
12257TIP3    H258263   6.055   2.226  13.162  0.0343 -0.1085  0.3205
12258TIP3   OH258264   2.554   3.658  10.840  0.3702 -0.2083  0.2747
12258TIP3    H158265   2.476   3.710  10.859 -1.1063 -2.1596 -0.1331
12258TIP3    H258266   2.530   3.568  10.863  3.3797 -0.5861  2.6199
12259TIP3   OH258267   3.738   5.523  13.001  0.1394 -0.6226  0.2474
12259TIP3    H158268   3.727   5.618  13.008 -1.5775 -0.8780  2.1566
12259TIP3    H258269   3.786   5.498  13.080  1.3027 -1.2849 -0.6354
12260TIP3   OH258270   3.923   6.635   5.317 -0.3240 -0.1101  0.2808
12260TIP3    H158271   3.935   6.571   5.387 -0.0054 -0.5921 -0.2105
12260TIP3    H258272   3.833   6.621   5.288  0.0224 -0.9455 -0.4177
12261TIP3   OH258273   2.273   1.939   6.272  0.0573  0.4397 -0.0822
12261TIP3    H158274   2.363   1.909   6.262  0.3937  0.2752  2.6621
12261TIP3    H258275   2.220   1.859   6.270 -0.4410  0.6523 -3.9138
12262TIP3   OH258276   1.039   2.257  10.359 -0.2341  0.2552  0.1568
12262TIP3    H158277   1.089   2.257  10.441 -1.9202 -0.3651  1.2248
12262TIP3    H258278   1.105   2.242  10.291  0.9662 -1.1618  1.5623
12263TIP3   OH258279   2.265   0.327  15.175  0.3953 -0.1168  0.3007
12263TIP3    H158280   2.196   0.391  15.190  0.5145  0.0677  0.0653
12263TIP3    H258281   2.252   0.261  15.243 -0.1970 -0.2379  0.0679
12264TIP3   OH258282   6.996   2.890  10.939 -0.0439 -0.1187  0.1245
12264TIP3    H158283   6.929   2.933  10.992  0.3546 -0.6415  1.0718
12264TIP3    H258284   6.951   2.864  10.859 -0.5926  0.9174  0.0746
12265TIP3   OH258285   4.788   1.548   4.858 -0.0803  0.2040  0.1185
12265TIP3    H158286   4.708   1.506   4.889  0.1369  0.7405  1.4408
12265TIP3    H258287   4.793   1.631   4.906  0.4114  0.9561 -1.1673
12266TIP3   OH258288   3.188   3.804   3.082 -0.1320  0.3867 -0.4105
12266TIP3    H158289   3.268   3.836   3.041  0.5511 -0.6082  0.0921
12266TIP3    H258290   3.147   3.748   3.016 -0.5151  1.0259 -0.7265
12267TIP3   OH258291   3.079   0.218  10.823 -0.6232  0.1037 -0.0105
12267TIP3    H158292   3.033   0.277  10.763  0.4805  0.4101 -0.5783
12267TIP3    H258293   3.147   0.178  10.770  0.2031  0.1675  0.9698
12268TIP3   OH258294   4.421   2.170  11.610 -0.5179  0.3443 -0.2350
12268TIP3    H158295   4.471   2.090  11.602  1.7525  1.6301  0.1942
12268TIP3    H258296   4.379   2.163  11.696  0.1828 -0.1221  0.0828
12269TIP3   OH258297   4.615   0.196   3.684 -0.2232 -0.4321 -0.0947
12269TIP3    H158298   4.548   0.129   3.694 -1.1794  0.5838  0.4705
12269TIP3    H258299   4.574   0.264   3.630  0.9669 -0.6013 -1.2639
12270TIP3   OH258300   1.737   6.594   4.691 -0.1810  0.6796  0.5768
12270TIP3    H158301   1.712   6.591   4.599 -1.5075  2.1438  0.8392
12270TIP3    H258302   1.815   6.650   4.693  0.4718 -0.1890  0.2617
12271TIP3   OH258303   5.322   4.838   5.519 -0.4564 -0.5622 -0.1631
12271TIP3    H158304   5.364   4.764   5.563  2.5566  1.8249  1.3633
12271TIP3    H258305   5.266   4.877   5.586  0.5917  0.4348  0.1589
12272TIP3   OH258306   0.810   0.507   3.363  0.0342 -0.2791  0.3946
12272TIP3    H158307   0.756   0.508   3.284  0.5966 -0.2495  0.0070
12272TIP3    H258308   0.797   0.420   3.399 -0.0322 -0.3790  0.1340
12273TIP3   OH258309   0.697   4.837  13.711  0.0816 -0.7480  0.3826
12273TIP3    H158310   0.727   4.809  13.625 -0.7800 -2.0200  0.4545
12273TIP3    H258311   0.609   4.871  13.696  0.7614  1.1267  0.4527
12274TIP3   OH258312   1.476   2.016  14.265 -0.3156 -0.1107  0.6871
12274TIP3    H158313   1.500   2.019  14.172  0.3688 -3.1084  0.6556
12274TIP3    H258314   1.558   2.034  14.311 -0.5812  1.0358  0.7300
12275TIP3   OH258315   2.478   1.248  14.519 -0.4466  0.0777 -0.2794
12275TIP3    H158316   2.444   1.218  14.604 -3.1019  0.4517 -1.1008
12275TIP3    H258317   2.570   1.267  14.535 -0.9068  0.3521  2.5773
12276TIP3   OH258318   3.652   1.934   1.384 -0.0088  0.5881 -0.0314
12276TIP3    H158319   3.632   1.938   1.477  3.4275  0.9054  0.8625
12276TIP3    H258320   3.656   1.841   1.363  2.1272  0.3886  0.9995
12277TIP3   OH258321   1.094   2.667  12.605 -0.2067 -0.2089  0.0299
12277TIP3    H158322   1.161   2.653  12.672 -1.4717 -2.9098  0.8734
12277TIP3    H258323   1.011   2.669  12.654 -1.0315 -0.7689 -1.2864
12278TIP3   OH258324   2.767   6.290  13.072 -0.5958  0.2440 -0.4132
12278TIP3    H158325   2.848   6.283  13.123 -0.8191  1.2476  0.1051
12278TIP3    H258326   2.762   6.382  13.046 -0.7480 -0.1350 -1.8434
12279TIP3   OH258327   4.545   3.513   5.306 -0.6131 -0.1554  0.0172
12279TIP3    H158328   4.481   3.567   5.352 -0.9650 -0.5044 -0.0543
12279TIP3    H258329   4.532   3.536   5.213 -0.4390 -0.0223  0.0249
12280TIP3   OH258330   6.598   0.068   1.998 -0.0823  0.5150  0.6190
12280TIP3    H158331   6.585   0.014   1.920  0.3879  1.0002  0.1945
12280TIP3    H258332   6.544   0.027   2.065 -1.5197  0.8450 -0.3055
12281TIP3   OH258333   4.135   0.208   0.038 -0.0205 -0.2862  0.0878
12281TIP3    H158334   4.189   0.178  -0.035 -0.1484  0.2954 -0.2531
12281TIP3    H258335   4.191   0.267   0.087  0.2377 -1.0821  0.7716
12282TIP3   OH258336   2.839   1.997   3.950  0.2171 -0.1042 -0.0528
12282TIP3    H158337   2.932   2.017   3.957  0.7889 -2.4605 -0.1291
12282TIP3    H258338   2.835   1.922   3.891 -1.4970 -1.4264  1.6119
12283TIP3   OH258339   1.700   4.344  13.362 -0.2858 -0.2561  0.1083
12283TIP3    H158340   1.675   4.435  13.348  1.6051  0.3909  0.6701
12283TIP3    H258341   1.646   4.315  13.436 -1.4179  0.1477 -0.5292
12284TIP3   OH258342   2.312   5.344  12.455  0.1904  0.1619 -0.0595
12284TIP3    H158343   2.321   5.256  12.421  0.5347  0.0967  0.1897
12284TIP3    H258344   2.255   5.389  12.393  1.6741  0.3663 -1.3329
12285TIP3   OH258345   2.381   5.501  15.526  0.1187 -0.1016 -0.4177
12285TIP3    H158346   2.473   5.501  15.555  0.2754  0.2667 -0.9089
12285TIP3    H258347   2.332   5.519  15.606  0.5042  0.1544 -0.2330
12286TIP3   OH258348   5.994   4.479  15.377  0.1656 -0.3344 -1.3254
12286TIP3    H158349   5.947   4.408  15.333 -1.6054 -0.5879  0.7867
12286TIP3    H258350   5.927   4.544  15.397  1.2406  0.6184 -0.6613
12287TIP3   OH258351   1.029   1.638  14.398 -0.1575  0.0509  0.7202
12287TIP3    H158352   1.070   1.562  14.357 -0.6142 -0.0010  0.3480
12287TIP3    H258353   1.100   1.681  14.446  0.7929  0.9990 -1.3857
12288TIP3   OH258354   3.673   4.697  12.553 -0.3745 -0.5895 -0.5785
12288TIP3    H158355   3.732   4.773  12.554 -0.5041 -0.4872 -0.7411
12288TIP3    H258356   3.617   4.711  12.477 -1.7995  0.2078  0.5581
12289TIP3   OH258357   3.894   2.391  13.012  0.7779  0.5258  0.5405
12289TIP3    H158358   3.914   2.315  12.959  2.5683  1.6233 -0.4423
12289TIP3    H258359   3.798   2.399  13.009  0.7807  0.1616 -1.9812
12290TIP3   OH258360   5.240   5.464  14.134  0.0915 -0.0703 -0.3765
12290TIP3    H158361   5.224   5.453  14.040 -0.8324  1.6759 -0.4724
12290TIP3    H258362   5.185   5.398  14.175  0.5054 -0.8544 -1.0536
12291TIP3   OH258363   6.553   6.846  11.015 -0.7010  0.5553  0.1175
12291TIP3    H158364   6.541   6.768  10.962 -1.5738 -0.1155  1.2554
12291TIP3    H258365   6.605   6.817  11.090 -0.6858  1.1655  0.3509
12292TIP3   OH258366   6.466   2.297   0.814  0.7204 -0.5948 -0.7547
12292TIP3    H158367   6.519   2.250   0.750 -0.0803 -3.7336  0.7175
12292TIP3    H258368   6.376   2.270   0.795  0.2860 -0.1255  0.5694
12293TIP3   OH258369   5.536   4.214   2.617 -0.1556  0.0206 -0.2066
12293TIP3    H158370   5.628   4.239   2.629  0.2840 -1.3392 -0.5334
12293TIP3    H258371   5.535   4.165   2.535 -0.4660 -3.0840  1.5088
12294TIP3   OH258372   1.243   5.681   4.346  0.0649 -0.1039  0.1647
12294TIP3    H158373   1.331   5.649   4.365  0.6031  0.3082 -1.4926
12294TIP3    H258374   1.227   5.749   4.411  1.3603  0.4670 -0.0926
12295TIP3   OH258375   4.568   5.383  15.299 -0.0441  0.6488 -0.3810
12295TIP3    H158376   4.532   5.395  15.387  1.9856 -0.3591  0.6631
12295TIP3    H258377   4.600   5.470  15.274 -2.4373  1.4258 -1.0793
12296TIP3   OH258378   1.446   4.620  12.459 -0.0528  0.7740 -0.3108
12296TIP3    H158379   1.424   4.653  12.372 -1.7188  2.9421  0.8553
12296TIP3    H258380   1.378   4.556  12.478  0.5173  0.0301 -0.7008
12297TIP3   OH258381   4.304   1.368   4.276  0.5425  0.6794  0.6744
12297TIP3    H158382   4.245   1.431   4.235 -1.2625 -2.3271 -1.7754
12297TIP3    H258383   4.264   1.348   4.361 -1.9428 -0.9717 -0.7601
12298TIP3   OH258384   5.327   2.351  13.088 -0.0941  0.4271  0.3539
12298TIP3    H158385   5.287   2.395  13.163 -0.5150  1.0954 -0.2537
12298TIP3    H258386   5.273   2.377  13.013 -0.2002 -0.9161 -0.0652
12299TIP3   OH258387   3.475   1.738   4.309 -0.6230  0.4201  0.0307
12299TIP3    H158388   3.398   1.768   4.357 -1.4085 -0.8873 -0.3665
12299TIP3    H258389   3.531   1.700   4.376 -0.2745  1.4177  0.3283
12300TIP3   OH258390   0.673   0.671  14.054 -0.1103 -0.5411  0.6143
12300TIP3    H158391   0.736   0.604  14.027  0.5952  0.7852 -1.2679
12300TIP3    H258392   0.710   0.708  14.134  2.1096  0.8649 -0.9455
12301TIP3   OH258393   2.349   6.763  11.217 -0.3433  0.2279 -0.1192
12301TIP3    H158394   2.396   6.841  11.190 -0.7248  0.8822  1.0362
12301TIP3    H258395   2.304   6.788  11.298 -0.3224 -1.2286  0.3899
12302TIP3   OH258396   3.805   0.132   4.611  0.2199  0.1633 -0.2550
12302TIP3    H158397   3.763   0.084   4.540 -0.7413 -0.2307  0.5534
12302TIP3    H258398   3.841   0.210   4.569 -1.4441  0.5860 -0.9599
12303TIP3   OH258399   2.375   3.253  15.089 -0.6064  0.1906 -0.1037
12303TIP3    H158400   2.358   3.182  15.027 -0.0324  0.7854 -0.9661
12303TIP3    H258401   2.295   3.258  15.142 -0.2848 -1.7313  0.6482
12304TIP3   OH258402   5.838   1.684   3.632 -0.3391  0.1966  0.2049
12304TIP3    H158403   5.879   1.705   3.716 -2.0400  2.8441  0.4973
12304TIP3    H258404   5.828   1.589   3.633  3.6341 -0.3965  1.0123
12305TIP3   OH258405   0.294   1.007  14.595  0.0053 -0.0853  0.0294
12305TIP3    H158406   0.298   0.950  14.672 -0.4921  1.4851  1.2843
12305TIP3    H258407   0.377   0.993  14.550 -0.2490 -2.0296  0.0839
12306TIP3   OH258408   1.549   5.964  11.710 -0.7101  0.0652 -0.2849
12306TIP3    H158409   1.610   5.952  11.637  1.8516  0.5062  1.6073
12306TIP3    H258410   1.527   6.057  11.707 -2.3373 -0.3194 -1.6680
12307TIP3   OH258411   5.058   6.713   1.936  0.6570 -0.5129 -0.4364
12307TIP3    H158412   5.013   6.629   1.923  1.1879 -1.1270  1.4017
12307TIP3    H258413   5.016   6.772   1.874 -3.7625 -0.6417  2.0180
12308TIP3   OH258414   6.696   4.109  14.924  0.0768 -0.3291  0.3676
12308TIP3    H158415   6.721   4.201  14.935  0.6311 -0.3691 -0.4031
12308TIP3    H258416   6.768   4.072  14.872 -0.3586 -1.0869  0.3008
12309TIP3   OH258417   2.676   0.590  11.933  0.0820 -0.0429  0.0959
12309TIP3    H158418   2.707   0.506  11.901 -1.2248 -0.8527  0.8655
12309TIP3    H258419   2.639   0.633  11.857 -1.9877 -1.4715  0.2265
12310TIP3   OH258420   2.945   5.614  10.343  0.1546  0.3072  0.1301
12310TIP3    H158421   2.965   5.660  10.261 -0.5023  0.1248 -0.1393
12310TIP3    H258422   2.912   5.529  10.315 -1.9463  0.9424  0.4871
12311TIP3   OH258423   5.637   5.057  13.182  0.0926  0.0506 -0.3059
12311TIP3    H158424   5.620   5.089  13.093 -1.1402  1.1724  0.2939
12311TIP3    H258425   5.552   5.026  13.213  0.2928  0.5600  0.8182
12312TIP3   OH258426   0.419   4.180   3.613  0.1448  0.1559 -0.1441
12312TIP3    H158427   0.464   4.226   3.684  1.5529  0.4394 -1.1781
12312TIP3    H258428   0.366   4.114   3.657  0.3994  0.8215  1.2081
12313TIP3   OH258429   0.264   2.410  12.206 -0.4069  0.2018  0.2397
12313TIP3    H158430   0.346   2.441  12.244  1.9044 -1.2392 -3.0674
12313TIP3    H258431   0.267   2.315  12.216 -1.2093  0.0548 -0.7565
12314TIP3   OH258432   5.834   6.632   5.576  0.2421 -0.4610  0.2695
12314TIP3    H158433   5.915   6.675   5.604  0.0161 -0.4344  0.8881
12314TIP3    H258434   5.794   6.600   5.657  0.4878 -1.9969 -0.1881
12315TIP3   OH258435   6.583   3.615  10.186 -0.3515 -0.3883  0.3994
12315TIP3    H158436   6.510   3.664  10.224  0.7335  0.8586  0.9348
12315TIP3    H258437   6.562   3.523  10.204 -2.8335 -0.2442 -1.3385
12316TIP3   OH258438   2.209   3.478   0.344  0.6055 -0.2625  0.3220
12316TIP3    H158439   2.198   3.476   0.439  2.7634  2.3353  0.7430
12316TIP3    H258440   2.175   3.394   0.314 -3.2586  0.1144  2.9575
12317TIP3   OH258441   1.426   6.342  15.023  0.1749  0.4786 -0.1355
12317TIP3    H158442   1.485   6.282  14.978  0.6538  1.7584 -1.2971
12317TIP3    H258443   1.476   6.423  15.031 -0.4934  0.7831  1.2733
12318TIP3   OH258444   0.417   2.728   3.736 -0.5768  0.0076 -0.1106
12318TIP3    H158445   0.400   2.731   3.830  0.7283 -2.0755  0.2478
12318TIP3    H258446   0.386   2.641   3.709 -2.4160  1.1352 -1.9675
12319TIP3   OH258447   1.684   3.347   3.726 -0.2855 -0.0117 -0.0527
12319TIP3    H158448   1.637   3.316   3.649 -0.2719 -3.2124  1.0696
12319TIP3    H258449   1.773   3.315   3.714  0.1349  0.8753  0.5645
12320TIP3   OH258450   6.699   1.724   4.605  0.5284  0.2522  0.2231
12320TIP3    H158451   6.736   1.671   4.676  1.6751  1.2084  0.3755
12320TIP3    H258452   6.727   1.679   4.525 -0.4326 -0.6094  0.3548
12321TIP3   OH258453   1.150   1.864  15.739  0.1449 -0.4438 -0.4911
12321TIP3    H158454   1.188   1.918  15.808 -1.7224  0.4479 -0.0849
12321TIP3    H258455   1.223   1.843  15.681  1.8109 -1.3338  1.7783
12322TIP3   OH258456   6.582   2.795   3.499  0.5432  0.4698  0.2565
12322TIP3    H158457   6.578   2.775   3.592 -0.7415  1.2679  0.4003
12322TIP3    H258458   6.517   2.865   3.487 -0.5552 -0.7769 -1.5239
12323TIP3   OH258459   2.546   1.489   0.309  0.1646 -0.8041  0.4111
12323TIP3    H158460   2.468   1.434   0.306 -0.9650  0.7463 -2.4323
12323TIP3    H258461   2.598   1.461   0.233 -0.2914  1.6761 -0.9100
12324TIP3   OH258462   4.026   6.842   2.619 -0.2394 -0.8771 -0.2749
12324TIP3    H158463   3.961   6.776   2.595  0.6683 -2.1689  0.6655
12324TIP3    H258464   3.994   6.878   2.702 -1.5490  1.0587 -1.5409
12325TIP3   OH258465   3.164   4.409  12.546 -0.0289  0.0295  0.6109
12325TIP3    H158466   3.221   4.335  12.526 -1.6106 -0.6718 -1.7074
12325TIP3    H258467   3.081   4.370  12.573  0.0243  1.0122  2.3512
12326TIP3   OH258468   5.044   3.169   6.163 -1.1604  0.2033 -0.2618
12326TIP3    H158469   5.109   3.109   6.201 -1.6557 -0.9097 -1.1056
12326TIP3    H258470   5.084   3.200   6.082  0.0162  2.8026  1.2239
12327TIP3   OH258471   1.945   5.728   1.751 -0.0746 -0.0560 -0.0229
12327TIP3    H158472   1.917   5.793   1.816  0.6117  0.0662  0.1592
12327TIP3    H258473   1.998   5.779   1.689 -1.3470 -0.0210 -1.1092
12328TIP3   OH258474   4.021   3.536   2.229  0.2736  0.1181  0.2704
12328TIP3    H158475   3.947   3.477   2.210 -0.2183 -0.2383  2.8820
12328TIP3    H258476   3.983   3.624   2.227  0.0977  0.0424  0.2381
12329TIP3   OH258477   3.497   4.598  11.164  0.7936  0.3470  0.0757
12329TIP3    H158478   3.488   4.693  11.165 -0.1661  0.3111 -1.4172
12329TIP3    H258479   3.418   4.567  11.208  0.6213  0.2366 -0.3071
12330TIP3   OH258480   2.977   6.842  11.005  0.8221  0.0266 -0.2387
12330TIP3    H158481   2.908   6.791  10.964  1.8176  0.1762 -2.2176
12330TIP3    H258482   2.947   6.932  10.999 -0.2282 -0.1241  1.8537
12331TIP3   OH258483   4.609   2.832  14.688  0.5219 -0.3209 -0.1094
12331TIP3    H158484   4.621   2.876  14.772  1.8245 -0.8013 -0.0286
12331TIP3    H258485   4.519   2.854  14.662 -0.0172 -0.4163  1.5465
12332TIP3   OH258486   5.813   1.200  13.192  0.0744  0.1191 -0.4792
12332TIP3    H158487   5.719   1.209  13.210 -0.2382 -1.0332 -1.3924
12332TIP3    H258488   5.839   1.125  13.246  0.5378  0.6106 -0.0166
12333TIP3   OH258489   2.723   4.288  10.946  0.0976  0.4687  0.3273
12333TIP3    H158490   2.642   4.330  10.917  0.7608  1.2212 -0.5127
12333TIP3    H258491   2.749   4.234  10.871  0.2512  0.0452  0.6833
12334TIP3   OH258492   4.083   4.338   5.294  0.1902 -0.1552 -0.1629
12334TIP3    H158493   4.175   4.360   5.308  0.6843 -0.3682 -2.6250
12334TIP3    H258494   4.050   4.408   5.238 -0.9520 -0.5201  0.0225
12335TIP3   OH258495   0.290   4.234   4.351  0.0963  0.2260 -0.3306
12335TIP3    H158496   0.370   4.233   4.405 -0.0412  0.6379 -0.1141
12335TIP3    H258497   0.317   4.277   4.270 -0.1253  1.1773  0.0955
12336TIP3   OH258498   2.311   2.137  12.060 -0.5454  0.2674 -0.0426
12336TIP3    H158499   2.229   2.138  12.110 -0.5025 -0.0124  0.0313
12336TIP3    H258500   2.288   2.180  11.978 -0.4674  1.2799  0.4461
12337TIP3   OH258501   3.034   4.597  13.400  0.2299  0.0307  0.0287
12337TIP3    H158502   2.977   4.546  13.457 -0.2541  0.7193  0.1595
12337TIP3    H258503   3.085   4.652  13.459  0.2689  0.1897 -0.1514
12338TIP3   OH258504   5.893   5.974  13.867 -0.4309 -0.0469 -0.0688
12338TIP3    H158505   5.848   5.897  13.900 -1.4354  0.2457 -0.7169
12338TIP3    H258506   5.851   5.993  13.783 -1.0465  1.9151  0.6320
12339TIP3   OH258507   5.095   0.833   3.155  0.3430 -0.0720 -0.2232
12339TIP3    H158508   5.142   0.813   3.074  0.9372 -0.2691  0.1691
12339TIP3    H258509   5.159   0.821   3.224 -0.3351 -0.5362  0.3390
12340TIP3   OH258510   2.105   0.686  10.135  0.0985 -0.1512 -0.0608
12340TIP3    H158511   2.170   0.753  10.115 -1.0619  0.6627 -1.2538
12340TIP3    H258512   2.024   0.734  10.147 -0.5788 -1.2680 -0.0347
12341TIP3   OH258513   1.454   0.626   4.654 -0.0656  0.6983 -0.3372
12341TIP3    H158514   1.383   0.572   4.616 -0.2416  0.0454  0.8780
12341TIP3    H258515   1.513   0.641   4.581  0.0180 -1.2161 -0.7243
12342TIP3   OH258516   4.175   3.933   3.767 -0.0980 -0.5709  0.0315
12342TIP3    H158517   4.130   3.983   3.836 -1.6766 -0.7025 -0.8425
12342TIP3    H258518   4.268   3.946   3.784 -0.4616  0.2232  1.5807
12343TIP3   OH258519   5.611   6.420  13.478 -0.0485  0.3124 -0.5220
12343TIP3    H158520   5.630   6.510  13.453  0.4651 -0.0115 -1.3901
12343TIP3    H258521   5.582   6.425  13.569 -1.0398  1.4607 -0.8753
12344TIP3   OH258522   2.638   6.235  10.816  0.0054  0.2161  0.0716
12344TIP3    H158523   2.576   6.239  10.888  0.4615 -0.2764  0.5016
12344TIP3    H258524   2.651   6.141  10.800  1.3504  0.2731  0.6338
12345TIP3   OH258525   2.331   5.742  13.474  0.1162  1.0595  0.6043
12345TIP3    H158526   2.292   5.770  13.557  2.4106  0.2623  2.0397
12345TIP3    H258527   2.259   5.700  13.427 -1.6513  2.9708  1.4169
12346TIP3   OH258528   1.541   2.769   5.260  0.0979  0.0426  0.4980
12346TIP3    H158529   1.544   2.864   5.244  0.8039 -0.2513 -1.2803
12346TIP3    H258530   1.629   2.738   5.240 -0.5584 -1.2154 -0.6174
12347TIP3   OH258531   4.338   2.335   0.370 -0.4066  0.4466 -0.0167
12347TIP3    H158532   4.248   2.333   0.402 -0.2934  1.3648  0.3967
12347TIP3    H258533   4.388   2.375   0.442 -0.1188  2.4741 -1.2623
12348TIP3   OH258534   2.123   1.037  13.525 -0.0758  0.2098  0.1950
12348TIP3    H158535   2.095   1.044  13.433  1.6102 -0.8016 -0.4347
12348TIP3    H258536   2.054   1.081  13.574 -1.6599 -0.3188 -1.4486
12349TIP3   OH258537   1.681   5.641  13.730  0.5596  0.7047 -0.4559
12349TIP3    H158538   1.708   5.585  13.658  1.2094  0.2998  0.0860
12349TIP3    H258539   1.598   5.679  13.701  1.2110  1.1970 -1.7516
12350TIP3   OH258540   7.071   6.553   1.811 -0.1038  0.2629  0.5419
12350TIP3    H158541   7.113   6.510   1.736  0.7512  0.9550  0.6031
12350TIP3    H258542   7.112   6.513   1.888  0.5885  1.0578  0.6007
12351TIP3   OH258543   1.655   6.108  14.491 -0.0193  0.3094  0.8255
12351TIP3    H158544   1.644   6.025  14.444  0.0027  0.0994  1.1842
12351TIP3    H258545   1.691   6.168  14.426  0.6620 -0.1716  0.7492
12352TIP3   OH258546   2.190   2.835   0.022 -0.1230  0.1254 -0.0064
12352TIP3    H158547   2.097   2.852   0.005  0.1151  1.0555 -0.5114
12352TIP3    H258548   2.210   2.759  -0.031 -1.0119 -1.2484  1.5364
12353TIP3   OH258549   2.436   3.598   2.811  0.7048 -0.3388 -0.5331
12353TIP3    H158550   2.481   3.518   2.842  0.9268 -0.2245 -0.5573
12353TIP3    H258551   2.498   3.668   2.831 -0.7206  0.2608  2.3684
12354TIP3   OH258552   5.877   4.772  11.597 -0.2462  0.0706  0.3292
12354TIP3    H158553   5.942   4.758  11.529 -1.0972 -0.6309 -0.3670
12354TIP3    H258554   5.928   4.785  11.677  0.7465 -0.5995 -0.1755
12355TIP3   OH258555   3.636   2.800   3.526  0.0019  0.3199 -0.2512
12355TIP3    H158556   3.599   2.769   3.443 -0.9972  0.3947  0.1571
12355TIP3    H258557   3.705   2.736   3.546  0.9238  0.8440 -1.6161
12356TIP3   OH258558   3.472   5.224  12.323  0.2861 -0.5752  0.1415
12356TIP3    H158559   3.378   5.234  12.308  0.3504 -0.3575 -0.1308
12356TIP3    H258560   3.480   5.201  12.416  0.1078  1.7242  0.7814
12357TIP3   OH258561   1.637   3.301   3.125  0.2866  0.7333  0.2507
12357TIP3    H158562   1.612   3.208   3.121 -0.0812  0.8842 -2.2558
12357TIP3    H258563   1.733   3.300   3.127  0.2812  0.3202  1.3960
12358TIP3   OH258564   4.884   2.758  12.890  0.1103  0.6017 -0.0146
12358TIP3    H158565   4.932   2.832  12.852 -2.0585  1.3970 -1.3984
12358TIP3    H258566   4.853   2.708  12.814 -0.3734 -0.4601  0.8524
12359TIP3   OH258567   3.024   4.103  15.712  0.1294 -0.4457  0.1771
12359TIP3    H158568   3.098   4.087  15.771  1.0625  0.0561 -0.8000
12359TIP3    H258569   3.056   4.173  15.654 -0.8164 -0.7944 -0.7839
12360TIP3   OH258570   4.748   6.249   2.896 -0.1955  0.5034 -0.2570
12360TIP3    H158571   4.682   6.180   2.896  0.9585 -0.6625 -1.1689
12360TIP3    H258572   4.773   6.259   2.987  0.8669 -1.5904 -0.2560
12361TIP3   OH258573   4.154   0.010  13.528  0.1663  0.5185 -0.6133
12361TIP3    H158574   4.185  -0.018  13.442 -1.4917 -0.4165 -0.9479
12361TIP3    H258575   4.177   0.103  13.533  1.2017  0.3371 -1.6210
12362TIP3   OH258576   2.141   5.909  14.895  0.4769  0.2538  0.4072
12362TIP3    H158577   2.185   5.967  14.833 -0.4677 -0.0509 -0.5678
12362TIP3    H258578   2.123   5.830  14.846 -0.7696  0.2025  0.9037
12363TIP3   OH258579   5.004   5.760  14.113 -0.3225 -0.0357 -0.2223
12363TIP3    H158580   4.922   5.790  14.154  0.4962 -1.0223  2.3372
12363TIP3    H258581   4.986   5.670  14.088 -1.0751  0.7877 -2.9906
12364TIP3   OH258582   5.059   7.050  12.955 -0.2543  0.2465 -0.5712
12364TIP3    H158583   5.026   6.961  12.945 -2.1920  0.9480 -0.8894
12364TIP3    H258584   5.008   7.086  13.027  0.9344  0.9160 -0.0539
12365TIP3   OH258585   6.963   7.117   2.124  0.2249 -0.1590 -0.0015
12365TIP3    H158586   6.973   7.033   2.080 -1.8500  0.0304 -0.9310
12365TIP3    H258587   7.034   7.119   2.188  1.2779 -1.9131 -1.0331
12366TIP3   OH258588   4.556   4.170  14.030  0.1927  0.0537  0.0533
12366TIP3    H158589   4.465   4.192  14.011  0.2206  0.2417  0.1435
12366TIP3    H258590   4.550   4.104  14.100  0.1554  0.6837  0.6497
12367TIP3   OH258591   1.365   4.044   2.339  0.1849  0.5923  0.3136
12367TIP3    H158592   1.273   4.037   2.365 -0.1717  2.8235 -0.0813
12367TIP3    H258593   1.364   4.104   2.264  1.7170 -1.4783 -1.4883
12368TIP3   OH258594   4.080   0.069   3.072  0.6950  0.9078  0.0565
12368TIP3    H158595   4.139   0.144   3.074 -0.1712  1.6993 -1.6714
12368TIP3    H258596   4.025   0.080   3.150  1.3641  1.4027  0.4659
12369TIP3   OH258597   6.894   0.166   4.836  0.2216 -0.9322 -0.8298
12369TIP3    H158598   6.808   0.133   4.862 -0.1692  0.6986  0.0333
12369TIP3    H258599   6.953   0.138   4.906  0.2795 -1.4415 -1.0733
12370TIP3   OH258600   1.805   4.542  12.758  0.4337  0.2792  0.0051
12370TIP3    H158601   1.857   4.597  12.701 -0.3158  0.3109 -0.6640
12370TIP3    H258602   1.735   4.599  12.790 -1.3124 -0.6046 -1.9650
12371TIP3   OH258603   0.806   3.594   1.954  0.9079  0.5587 -0.0126
12371TIP3    H158604   0.795   3.499   1.964  0.1425  0.4656 -1.4744
12371TIP3    H258605   0.719   3.625   1.928  1.8250  1.2176 -2.5330
12372TIP3   OH258606   6.978   4.877   1.701 -0.3591 -0.1723 -0.0622
12372TIP3    H158607   6.905   4.826   1.736  0.4380  0.5435  2.9094
12372TIP3    H258608   6.941   4.965   1.687 -0.0473  0.3093  1.8650
12373TIP3   OH258609   3.129   5.012  15.584 -0.4784  0.1401 -0.1964
12373TIP3    H158610   3.170   4.957  15.651 -1.7615  0.9970  1.3362
12373TIP3    H258611   3.201   5.034  15.524  0.4768 -1.4857  0.2935
12374TIP3   OH258612   4.716   4.716   3.857 -0.4773 -0.0068 -0.8512
12374TIP3    H158613   4.706   4.747   3.767 -1.4713  1.9760 -0.1046
12374TIP3    H258614   4.652   4.766   3.907 -0.2759 -1.4134  0.9036
12375TIP3   OH258615   0.998   4.387  14.842  0.1830 -0.6188 -0.4793
12375TIP3    H158616   0.935   4.384  14.770 -1.3198 -0.9626  0.7776
12375TIP3    H258617   1.051   4.309  14.831 -2.1373 -2.4800  0.5013
12376TIP3   OH258618   3.331   1.772   0.117 -0.0717 -0.3483 -0.2247
12376TIP3    H158619   3.408   1.777   0.175  0.4330 -0.5268 -0.8678
12376TIP3    H258620   3.363   1.803   0.033 -1.1924  1.3987 -0.0435
12377TIP3   OH258621   3.243   3.605  11.512  1.1143 -0.7776  0.1275
12377TIP3    H158622   3.177   3.636  11.575  1.9920 -0.2473  0.8036
12377TIP3    H258623   3.194   3.547  11.453 -0.2828  0.8202 -0.3548
12378TIP3   OH258624   0.155   3.088  12.905 -0.2947  0.4432 -0.9464
12378TIP3    H158625   0.123   3.163  12.955 -1.1118 -1.2502  1.2210
12378TIP3    H258626   0.248   3.081  12.928 -0.4137  0.3109 -0.5009
12379TIP3   OH258627   6.519   2.629   3.712  0.0588  0.6645 -0.0225
12379TIP3    H158628   6.453   2.685   3.753  1.4903  0.5898  2.5583
12379TIP3    H258629   6.472   2.548   3.692 -0.6082  0.5252  1.9682
12380TIP3   OH258630   4.235   3.758  10.097 -0.1087 -0.6815  0.3439
12380TIP3    H158631   4.168   3.696  10.069  0.7963 -1.3541 -0.4044
12380TIP3    H258632   4.305   3.704  10.134  0.1886 -0.0297  0.7526
12381TIP3   OH258633   6.463   2.647  10.730  0.2296  0.3621  0.4490
12381TIP3    H158634   6.368   2.651  10.739 -0.1785 -1.6336 -1.7949
12381TIP3    H258635   6.487   2.563  10.771  1.0532  0.8794  1.0489
12382TIP3   OH258636   6.763   5.195  13.408  0.4091 -0.5071  0.6490
12382TIP3    H158637   6.670   5.209  13.422  0.8915  1.2497  2.4955
12382TIP3    H258638   6.781   5.111  13.450 -0.1801 -0.4691  0.9829
12383TIP3   OH258639   6.455   0.295  14.711  0.0340 -0.2447 -0.4326
12383TIP3    H158640   6.469   0.389  14.722 -2.4929  0.0625  1.0535
12383TIP3    H258641   6.527   0.254  14.758  0.1388  1.0089  0.5611
12384TIP3   OH258642   1.579   6.513  13.173 -0.7046 -0.1583 -0.2617
12384TIP3    H158643   1.655   6.544  13.123 -0.8870  0.6260 -0.0654
12384TIP3    H258644   1.564   6.424  13.141 -0.9512  0.3987 -1.7741
12385TIP3   OH258645   7.085   2.904  13.848  0.6053  0.1801 -0.2825
12385TIP3    H158646   7.137   2.967  13.898  2.8707 -1.6376 -0.2264
12385TIP3    H258647   7.024   2.867  13.913 -0.2916  1.7595 -0.1713
12386TIP3   OH258648   3.585   0.624   0.488  0.6989 -0.1393 -0.3205
12386TIP3    H158649   3.633   0.542   0.478  0.6532 -0.2126  0.0269
12386TIP3    H258650   3.553   0.622   0.578 -4.1332 -2.3180 -1.7617
12387TIP3   OH258651   5.994   1.187   0.316 -0.2583  0.1640  0.4060
12387TIP3    H158652   6.039   1.258   0.363  1.7396 -0.4672 -0.4319
12387TIP3    H258653   5.911   1.226   0.287  0.7364  2.1577  0.0422
12388TIP3   OH258654   5.101   5.312  12.619 -0.5782  0.0915 -0.6645
12388TIP3    H158655   5.081   5.352  12.704  0.2551 -0.3779 -0.2356
12388TIP3    H258656   5.131   5.224  12.640  0.4876  0.2699 -1.3726
12389TIP3   OH258657   3.580   2.221   1.810  0.7857 -0.4660 -0.0435
12389TIP3    H158658   3.616   2.308   1.829 -3.6429  1.4472  0.6471
12389TIP3    H258659   3.621   2.164   1.875  2.0303  1.5822  1.0890
12390TIP3   OH258660   6.148   6.457  13.973  0.2029  0.3417 -0.6047
12390TIP3    H158661   6.211   6.513  14.019  1.4896  0.2934 -2.1951
12390TIP3    H258662   6.194   6.432  13.893 -1.3719 -0.8123 -1.1783
12391TIP3   OH258663   4.122   5.896  12.026  0.2272  0.0425  0.4850
12391TIP3    H158664   4.178   5.851  11.964 -1.1279  0.9454 -1.4748
12391TIP3    H258665   4.157   5.985  12.031  1.1189 -0.3445  2.0984
12392TIP3   OH258666   1.765   2.956  12.831  0.2872 -0.1011 -0.6758
12392TIP3    H158667   1.776   2.872  12.876  0.4045  0.8491  1.1701
12392TIP3    H258668   1.853   2.992  12.824  0.5763 -1.0650 -3.5596
12393TIP3   OH258669   5.535   6.095   4.801  0.2044 -0.0933 -0.5750
12393TIP3    H158670   5.560   6.003   4.807 -0.8206 -0.2867  2.8638
12393TIP3    H258671   5.447   6.094   4.764 -0.1684 -0.5948  0.3044
12394TIP3   OH258672   1.522   6.433   3.350 -0.2983 -0.5427  0.6263
12394TIP3    H158673   1.606   6.467   3.321 -0.6687  0.0339  0.2169
12394TIP3    H258674   1.491   6.379   3.277 -0.7994  0.1547  0.3161
12395TIP3   OH258675   0.207   0.260  15.004 -0.0275  0.3395  0.0947
12395TIP3    H158676   0.111   0.255  15.005 -0.0481  0.4809 -0.6842
12395TIP3    H258677   0.233   0.197  14.937  0.5394 -1.2546  1.7201
12396TIP3   OH258678   3.995   0.226   2.805 -0.2976 -0.1802 -0.1363
12396TIP3    H158679   3.935   0.152   2.791 -0.7472  0.2085 -0.2983
12396TIP3    H258680   3.978   0.284   2.731  0.0035  0.1191  0.0290
12397TIP3   OH258681   5.187   0.306   0.153  0.3624  0.2422  0.1972
12397TIP3    H158682   5.133   0.386   0.158  0.7698  0.5635 -0.4366
12397TIP3    H258683   5.138   0.247   0.096  0.8274  0.6694 -0.6725
12398TIP3   OH258684   3.760   4.721  13.373 -0.4400  0.3971 -0.3395
12398TIP3    H158685   3.834   4.760  13.420 -1.2395 -0.5393  1.8483
12398TIP3    H258686   3.690   4.786  13.383 -0.1505  0.9684 -1.8038
12399TIP3   OH258687   0.135   5.728   4.898 -0.2166  0.3100  0.2078
12399TIP3    H158688   0.102   5.806   4.854  1.5896  0.6771 -0.6145
12399TIP3    H258689   0.168   5.673   4.827  5.2453  2.0551  0.8714
12400TIP3   OH258690   5.118   0.974  15.042 -0.1015 -0.0266 -0.6308
12400TIP3    H158691   5.138   0.907  14.977 -0.8495 -0.3384 -0.5609
12400TIP3    H258692   5.023   0.988  15.033 -0.1233  0.3027  0.0319
12401TIP3   OH258693   3.362   6.281  11.296  0.1639 -0.1971  0.2721
12401TIP3    H158694   3.428   6.348  11.312  0.8980 -0.8973  0.2768
12401TIP3    H258695   3.283   6.315  11.336  0.8460  0.0839  1.4334
12402TIP3   OH258696   3.256   5.408   0.323 -1.0674  0.0115 -0.3457
12402TIP3    H158697   3.169   5.385   0.357 -0.6091 -2.0874 -0.4403
12402TIP3    H258698   3.252   5.384   0.230  0.4649 -3.1463  0.2444
12403TIP3   OH258699   2.572   1.251  12.206 -0.1715 -0.1922 -0.1863
12403TIP3    H158700   2.626   1.329  12.215  0.3980 -0.7669  2.4812
12403TIP3    H258701   2.623   1.192  12.151  0.9910  0.0515  0.6107
12404TIP3   OH258702   5.526   6.361  13.225 -0.2816  0.5717 -0.6795
12404TIP3    H158703   5.551   6.350  13.317 -0.8538 -0.9800 -0.6829
12404TIP3    H258704   5.431   6.375  13.227 -0.9800 -3.1013 -1.1590
12405TIP3   OH258705   6.377   3.947   1.606 -0.7419  0.1610  0.1720
12405TIP3    H158706   6.441   3.922   1.673  0.7043  1.6375 -0.5919
12405TIP3    H258707   6.429   3.964   1.528 -1.8324  2.8487 -0.0878
12406TIP3   OH258708   4.849   4.817  15.448 -0.5882 -0.7301  0.4728
12406TIP3    H158709   4.928   4.794  15.497 -0.8535 -2.0930  0.3239
12406TIP3    H258710   4.803   4.879  15.504  0.6848  0.2635  0.4589
12407TIP3   OH258711   6.252   2.930  12.755 -0.6921  0.1184 -0.2361
12407TIP3    H158712   6.189   2.864  12.784  0.7692 -1.1365  0.1523
12407TIP3    H258713   6.236   3.005  12.813 -1.2040 -0.5211  0.4675
12408TIP3   OH258714   4.725   1.754  11.469 -0.3596 -0.2077 -0.0134
12408TIP3    H158715   4.642   1.732  11.512 -1.3609  0.2878 -1.6297
12408TIP3    H258716   4.792   1.720  11.529 -1.6117  1.7653  2.7243
12409TIP3   OH258717   1.749   5.034   3.329  0.0291  0.1809  0.1001
12409TIP3    H158718   1.664   5.031   3.285  0.4293  1.5231 -0.8560
12409TIP3    H258719   1.733   4.999   3.416 -1.2727 -0.5484 -0.4053
12410TIP3   OH258720   5.026   0.285  11.458 -0.6061  0.0017  0.3955
12410TIP3    H158721   5.018   0.206  11.511 -1.7168 -0.9153 -1.0871
12410TIP3    H258722   4.992   0.261  11.372  1.4775  1.3338 -0.8977
12411TIP3   OH258723   3.526   1.301   1.714 -0.2644  0.3815 -0.4708
12411TIP3    H158724   3.453   1.344   1.670  0.3704  1.4445 -0.5203
12411TIP3    H258725   3.486   1.226   1.759 -1.5713  1.5002  0.3357
12412TIP3   OH258726   5.963   3.683   4.249  0.0229  0.4424 -0.5343
12412TIP3    H158727   5.989   3.770   4.281 -0.3641  0.6684 -0.8361
12412TIP3    H258728   6.021   3.623   4.296  0.2907  0.8612 -0.3188
12413TIP3   OH258729   5.595   6.783   1.147  0.1931 -0.2236  0.4971
12413TIP3    H158730   5.651   6.759   1.073 -0.4378 -1.9660  0.5434
12413TIP3    H258731   5.558   6.867   1.122  0.2799 -0.6016 -1.0211
12414TIP3   OH258732   1.784   6.723   5.588  0.4010 -0.2130 -0.3379
12414TIP3    H158733   1.800   6.761   5.502 -1.6152 -0.1473 -0.7326
12414TIP3    H258734   1.769   6.630   5.572 -3.4481  0.2677 -0.6919
12415TIP3   OH258735   2.125   3.807   0.490  0.0910 -0.0740  0.4732
12415TIP3    H158736   2.114   3.725   0.538 -0.6456  0.8321  1.9429
12415TIP3    H258737   2.114   3.875   0.557 -0.5557  1.2438 -0.9156
12416TIP3   OH258738   1.326   6.122  12.073  0.3394  0.2852  0.1358
12416TIP3    H158739   1.302   6.208  12.106  0.4907  0.3489  0.0783
12416TIP3    H258740   1.244   6.072  12.075  0.3463  0.2866  0.6125
12417TIP3   OH258741   0.015   4.194   4.002 -0.2656 -0.0009  0.3508
12417TIP3    H158742  -0.021   4.125   4.059  0.1950 -1.4471 -1.0323
12417TIP3    H258743   0.031   4.267   4.061 -2.8859 -0.2392  1.5045
12418TIP3   OH258744   6.355   3.299   4.429  0.3961 -0.1384 -0.5708
12418TIP3    H158745   6.402   3.378   4.455  0.0016  0.6798 -2.2185
12418TIP3    H258746   6.423   3.236   4.407  0.7163  0.1531 -0.4177
12419TIP3   OH258747   2.411   4.470   5.247 -0.7685 -0.1162  0.3646
12419TIP3    H158748   2.497   4.460   5.287 -1.0559  0.8398  1.2764
12419TIP3    H258749   2.417   4.552   5.198 -1.0313 -0.2698  0.0726
12420TIP3   OH258750   1.232   4.048  15.603 -0.3318 -0.2013  0.4483
12420TIP3    H158751   1.311   4.058  15.656  0.6090  0.1881 -0.9856
12420TIP3    H258752   1.205   4.137  15.583  1.4299 -0.2215 -2.6895
12421TIP3   OH258753   1.873   0.006   2.859 -0.6293  0.4774  0.3089
12421TIP3    H158754   1.934   0.031   2.929  0.4816 -2.5019  0.5466
12421TIP3    H258755   1.811   0.079   2.854  0.2052  1.5320  3.2853
12422TIP3   OH258756   4.266   6.378  15.134  0.5322 -0.0232  0.3785
12422TIP3    H158757   4.253   6.452  15.194  0.4155 -0.3160  0.7138
12422TIP3    H258758   4.358   6.387  15.107  0.1123  1.1111 -0.7527
12423TIP3   OH258759   4.650   6.659   2.155  0.1253 -0.1136 -0.3215
12423TIP3    H158760   4.573   6.603   2.161  0.4849 -0.8599 -2.0319
12423TIP3    H258761   4.707   6.615   2.091  1.9768  0.4230  0.8862
12424TIP3   OH258762   6.362   6.211   1.005 -0.1769  0.7001 -0.3602
12424TIP3    H158763   6.284   6.198   1.058 -0.7896  0.7990 -1.2238
12424TIP3    H258764   6.344   6.290   0.954  1.1312  1.6378  0.5689
12425TIP3   OH258765   4.704   0.331  10.442  0.3068 -0.2058 -0.6152
12425TIP3    H158766   4.699   0.259  10.504  0.8945 -0.1024 -0.4426
12425TIP3    H258767   4.616   0.338  10.405  0.5970 -1.9942 -1.7617
12426TIP3   OH258768   1.560   4.063   4.128 -0.3732  0.2155  0.1937
12426TIP3    H158769   1.603   4.138   4.170  0.0950 -1.4392  2.9328
12426TIP3    H258770   1.508   4.023   4.197 -2.0900 -0.9640 -1.6731
12427TIP3   OH258771   0.243   4.007  11.973 -0.1237  0.6091 -0.0744
12427TIP3    H158772   0.163   3.991  11.923 -0.4197 -1.2470  0.8973
12427TIP3    H258773   0.267   4.097  11.953 -1.0532  0.4110 -2.3460
12428TIP3   OH258774   2.921   2.270   2.027  0.0907 -0.3710 -0.5205
12428TIP3    H158775   2.977   2.348   2.028  1.6104 -1.4079 -1.2967
12428TIP3    H258776   2.865   2.282   1.950 -0.1833  0.2864 -0.2226
12429TIP3   OH258777   7.018   4.768   4.081  0.9693 -0.1915 -0.0242
12429TIP3    H158778   7.063   4.778   4.165  1.2315 -0.7354 -0.0943
12429TIP3    H258779   6.943   4.828   4.086  0.9520 -0.2628  0.6167
12430TIP3   OH258780   2.478   5.315  13.418 -0.0498  0.7598 -0.1102
12430TIP3    H158781   2.436   5.340  13.500 -0.9817  0.4209 -0.4716
12430TIP3    H258782   2.494   5.399  13.373  0.0625  0.9175  0.2189
12431TIP3   OH258783   3.162   3.131   1.810 -0.2084 -0.6748 -0.7209
12431TIP3    H158784   3.107   3.199   1.851  1.1048  0.7629 -1.2250
12431TIP3    H258785   3.104   3.056   1.800 -1.1163 -0.4247  1.9520
12432TIP3   OH258786   6.810   5.875   3.190 -0.2718  0.0238 -0.1692
12432TIP3    H158787   6.872   5.813   3.229  0.5611  1.0945  0.2525
12432TIP3    H258788   6.724   5.837   3.208  0.1469 -0.1887  1.5455
12433TIP3   OH258789   0.133   6.076  12.426  0.2996 -0.0450  0.1577
12433TIP3    H158790   0.113   6.170  12.428  0.5884  0.0518 -0.8641
12433TIP3    H258791   0.080   6.039  12.497  1.9848  1.2089  2.1939
12434TIP3   OH258792   4.346   1.253   5.200  0.0433  0.1950  0.1320
12434TIP3    H158793   4.308   1.165   5.197  0.8773 -0.2318  1.2008
12434TIP3    H258794   4.316   1.288   5.284  0.5959  0.5043  0.2064
12435TIP3   OH258795   6.544   4.563   2.694  0.2865  0.2959  0.0679
12435TIP3    H158796   6.525   4.642   2.644  1.3623  0.0175 -0.8391
12435TIP3    H258797   6.463   4.543   2.741 -0.5013  1.0278 -0.9497
12436TIP3   OH258798   6.653   6.003  15.359  0.9078  0.2031  0.0055
12436TIP3    H158799   6.741   6.042  15.350  1.3251 -0.5158  0.7971
12436TIP3    H258800   6.628   6.023  15.449  0.1912  0.5172 -0.2592
12437TIP3   OH258801   7.000   6.343  14.588 -0.7329  0.0613  0.2993
12437TIP3    H158802   7.081   6.308  14.550 -0.7273 -0.5435  0.8502
12437TIP3    H258803   6.942   6.355  14.513 -0.5669 -0.7037  0.0340
12438TIP3   OH258804   2.450   2.351   3.159  0.5820 -0.0660  0.4577
12438TIP3    H158805   2.424   2.432   3.114 -1.9778 -0.3533  1.2841
12438TIP3    H258806   2.492   2.299   3.091 -1.3079  0.3547 -1.1343
12439TIP3   OH258807   3.847   6.589   4.945 -0.1002 -0.1783 -0.4814
12439TIP3    H158808   3.797   6.639   4.882  0.7335  0.5011 -0.6210
12439TIP3    H258809   3.788   6.519   4.973 -0.7840  0.0408 -1.3404
12440TIP3   OH258810   3.446   4.366  15.268  0.0412 -0.1639 -0.0643
12440TIP3    H158811   3.390   4.443  15.259 -1.4569 -1.1819  0.0513
12440TIP3    H258812   3.391   4.293  15.238  0.7496 -1.4264  1.5158
12441TIP3   OH258813   6.111   4.779   5.244 -0.1968  0.2934  0.0207
12441TIP3    H158814   6.067   4.864   5.240  3.3751  2.3991  0.4262
12441TIP3    H258815   6.103   4.744   5.156  0.2087  2.2404 -0.8536
12442TIP3   OH258816   1.582   4.669   1.962 -0.8223 -0.0964  0.0360
12442TIP3    H158817   1.552   4.578   1.956 -1.6351  0.1247  0.5407
12442TIP3    H258818   1.651   4.676   1.896 -1.6088 -0.7494 -0.8847
12443TIP3   OH258819   1.109   4.663  15.455 -0.4111  0.4240 -0.3803
12443TIP3    H158820   1.204   4.673  15.446 -0.4123  0.7900 -0.0286
12443TIP3    H258821   1.082   4.738  15.507 -1.2649  1.8562 -2.6909
12444TIP3   OH258822   1.597   4.573  15.434  0.3265  0.2267  0.1681
12444TIP3    H158823   1.614   4.641  15.368  0.7324 -0.1427 -0.1135
12444TIP3    H258824   1.673   4.516  15.430  0.4017  0.2586  1.0415
12445TIP3   OH258825   3.215   4.899   0.878  0.1618  0.3819  0.1890
12445TIP3    H158826   3.295   4.912   0.828  0.3785 -1.5950 -0.0545
12445TIP3    H258827   3.144   4.916   0.815  0.3508  2.0206  0.3782
12446TIP3   OH258828   4.192   5.818  10.788  0.0260 -0.1739 -0.7477
12446TIP3    H158829   4.147   5.891  10.831  0.5110  0.2789 -1.0071
12446TIP3    H258830   4.269   5.857  10.748  0.1883 -0.7975 -1.0550
12447TIP3   OH258831   4.510   3.852   5.002  0.0929  0.3167 -0.3216
12447TIP3    H158832   4.473   3.765   5.018 -0.4082  0.4284 -0.8301
12447TIP3    H258833   4.444   3.897   4.950  1.0365  0.4475 -1.4562
12448TIP3   OH258834   5.660   6.644  12.358  0.2257 -0.4048  0.6397
12448TIP3    H158835   5.727   6.694  12.313 -0.2303  0.0276  0.4415
12448TIP3    H258836   5.601   6.710  12.394 -1.0200 -0.8088 -0.6027
12449TIP3   OH258837   5.131   2.784  12.495 -0.3136 -0.3706 -0.6659
12449TIP3    H158838   5.092   2.778  12.408  0.1251 -2.5168 -0.7677
12449TIP3    H258839   5.094   2.710  12.543 -0.7226  0.8930  1.0789
12450TIP3   OH258840   5.892   6.461  15.291 -0.0312 -0.0521  0.1847
12450TIP3    H158841   5.946   6.524  15.244 -0.7386 -0.7678 -1.6907
12450TIP3    H258842   5.947   6.383  15.298 -0.1419 -0.1581 -0.0722
12451TIP3   OH258843   0.292   2.586  12.862  0.6101 -0.1719 -0.4737
12451TIP3    H158844   0.242   2.649  12.811  1.8383  1.7871  0.6021
12451TIP3    H258845   0.351   2.545  12.799 -0.4480 -0.5270 -1.2501
12452TIP3   OH258846   2.792   3.758  14.313  0.0066 -0.2649 -0.7300
12452TIP3    H158847   2.737   3.781  14.238  1.1048 -0.7423 -1.7111
12452TIP3    H258848   2.881   3.782  14.286  0.2096  1.6338  1.2819
12453TIP3   OH258849   5.842   5.480  10.385 -0.2422 -0.3105 -0.0697
12453TIP3    H158850   5.889   5.556  10.421 -1.2536 -0.0146  0.6809
12453TIP3    H258851   5.801   5.513  10.305  1.9091 -0.9374 -1.5175
12454TIP3   OH258852   3.186   0.626   3.887  0.0538 -0.0784  0.1533
12454TIP3    H158853   3.207   0.609   3.795  0.4820  0.6960  0.0935
12454TIP3    H258854   3.110   0.684   3.884 -0.0757 -0.2420  0.2915
12455TIP3   OH258855   3.373   4.532   2.872  0.2894 -0.2774 -0.5340
12455TIP3    H158856   3.380   4.466   2.803  0.7502 -1.1772  0.3404
12455TIP3    H258857   3.464   4.546   2.900  0.1289  0.2654 -0.2741
12456TIP3   OH258858   6.806   4.340  14.320 -0.2066  0.1885 -0.4983
12456TIP3    H158859   6.788   4.399  14.393  0.8806  0.6172 -0.5547
12456TIP3    H258860   6.883   4.377  14.278  1.2718 -1.9198  0.1984
12457TIP3   OH258861   3.632   0.354   2.200 -0.1740 -0.0695  0.3632
12457TIP3    H158862   3.693   0.283   2.221  1.2873  0.6485 -1.2261
12457TIP3    H258863   3.550   0.309   2.177  1.0362 -1.3946 -1.7178
12458TIP3   OH258864   5.173   4.631   2.903  0.2130 -0.4255 -0.1217
12458TIP3    H158865   5.134   4.644   2.990  0.4344  0.4613 -0.1511
12458TIP3    H258866   5.139   4.545   2.875 -1.6976  0.2800 -0.1280
12459TIP3   OH258867   3.928   2.750  13.858 -0.1881  0.2406  0.4296
12459TIP3    H158868   3.895   2.671  13.816  1.8812 -0.9575  0.9320
12459TIP3    H258869   3.852   2.809  13.861 -1.3727 -1.0567 -1.4725
12460TIP3   OH258870   5.468   1.033   2.702 -0.5608  1.1112  0.2355
12460TIP3    H158871   5.537   1.088   2.665 -1.3264  2.6925  1.0833
12460TIP3    H258872   5.514   0.973   2.761  0.0831  2.2966  0.9649
12461TIP3   OH258873   2.594   2.391   1.978  0.9289  0.5882  0.1372
12461TIP3    H158874   2.662   2.356   1.920  0.5424  1.8811 -1.1597
12461TIP3    H258875   2.516   2.397   1.923  0.1916  0.6288  1.1650
12462TIP3   OH258876   5.714   4.321   1.456  0.3850 -0.4661 -0.2450
12462TIP3    H158877   5.670   4.236   1.455 -0.8746  0.1278  0.8007
12462TIP3    H258878   5.648   4.382   1.422  0.5527  0.3793  0.8749
12463TIP3   OH258879   5.431   0.799  11.919  0.3797 -0.3370 -0.3729
12463TIP3    H158880   5.362   0.865  11.918  0.1262 -0.5929 -1.7416
12463TIP3    H258881   5.397   0.729  11.974  0.9919  0.9672  1.8134
12464TIP3   OH258882   3.975   5.285   3.703 -0.5832  0.2585 -0.0259
12464TIP3    H158883   3.931   5.201   3.720 -0.9726  0.2510 -0.9753
12464TIP3    H258884   3.971   5.294   3.608 -0.4260  1.2958  0.0586
12465TIP3   OH258885   6.347   2.448   4.060  0.0325  0.1266  0.5633
12465TIP3    H158886   6.424   2.467   4.114  1.8363 -1.9607 -1.0465
12465TIP3    H258887   6.372   2.369   4.011 -2.8358 -0.1156 -0.6936
12466TIP3   OH258888   6.598   6.914  12.897 -0.4169 -0.4949  0.5896
12466TIP3    H158889   6.615   7.003  12.926  1.0613 -0.6215  0.2063
12466TIP3    H258890   6.585   6.864  12.977 -0.1664 -0.1254  0.8653
12467TIP3   OH258891   1.685   4.299   0.474  0.4345 -0.1397 -0.6456
12467TIP3    H158892   1.596   4.276   0.449 -0.1698  1.1098  0.2331
12467TIP3    H258893   1.691   4.277   0.567  0.9991 -0.0660 -0.6563
12468TIP3   OH258894   4.736   6.815  11.011 -0.9019  0.0542  0.5194
12468TIP3    H158895   4.678   6.743  10.989  1.8391 -2.4245  0.6939
12468TIP3    H258896   4.733   6.822  11.107 -1.3324  0.3426  0.4858
12469TIP3   OH258897   5.656   2.051  15.624  1.0414 -0.9294  0.5717
12469TIP3    H158898   5.698   1.978  15.579 -1.3497 -0.9790 -1.8659
12469TIP3    H258899   5.580   2.012  15.667  1.0321 -0.2133  1.2301
12470TIP3   OH258900   2.556   4.464   5.548  0.3833 -0.5386  0.5983
12470TIP3    H158901   2.613   4.443   5.621  0.4347  1.6163  1.2394
12470TIP3    H258902   2.573   4.556   5.529 -0.7141 -0.6363 -1.1685
12471TIP3   OH258903   2.927   0.880   0.851 -0.0876 -0.1199 -0.6141
12471TIP3    H158904   2.874   0.958   0.864  1.5366  1.1916 -1.4990
12471TIP3    H258905   3.000   0.909   0.796  0.7612 -2.1760 -0.6681
12472TIP3   OH258906   4.199   6.072   4.139 -0.2745 -0.5653  0.2700
12472TIP3    H158907   4.208   5.990   4.187 -0.6879 -0.4478  0.5542
12472TIP3    H258908   4.156   6.048   4.057 -1.9685 -0.4203  1.0568
12473TIP3   OH258909   4.503   5.451  11.152  0.7290  0.0730  0.0664
12473TIP3    H158910   4.489   5.534  11.199 -0.5707 -0.8439  1.3624
12473TIP3    H258911   4.420   5.433  11.109  0.3142 -1.5644  1.4666
12474TIP3   OH258912   4.811   5.525   4.920 -0.8061 -0.2597 -0.1860
12474TIP3    H158913   4.779   5.510   5.009  0.2201  0.0408  0.2409
12474TIP3    H258914   4.826   5.619   4.915 -2.7696  0.0557 -1.3480
12475TIP3   OH258915   3.240   0.211   3.295  0.7339  0.2261  0.3813
12475TIP3    H158916   3.334   0.218   3.314  0.9778 -0.5169 -0.4460
12475TIP3    H258917   3.236   0.201   3.199 -0.3647  3.2502  0.0031
12476TIP3   OH258918   5.909   4.358  14.608 -0.0822  0.2761 -0.0831
12476TIP3    H158919   5.922   4.264  14.603  0.0040  0.2715  0.1942
12476TIP3    H258920   5.969   4.394  14.542 -0.1766  0.1337 -0.2470
12477TIP3   OH258921   0.486   5.255   3.237  0.3126 -0.1358  0.2926
12477TIP3    H158922   0.536   5.336   3.243 -0.0546  0.0113  1.9468
12477TIP3    H258923   0.551   5.185   3.236  0.5995  0.0899  1.6145
12478TIP3   OH258924   1.753   3.090  14.672 -0.1553  0.1671 -0.3169
12478TIP3    H158925   1.742   3.016  14.731  1.0096 -0.5975 -1.0138
12478TIP3    H258926   1.768   3.050  14.586  1.7932  1.1461 -0.4897
12479TIP3   OH258927   0.343   5.160   0.455 -0.8178 -0.2248 -0.0621
12479TIP3    H158928   0.380   5.093   0.512 -0.3919 -0.4420 -0.5867
12479TIP3    H258929   0.283   5.209   0.512 -0.9350 -0.8788  0.3939
12480TIP3   OH258930   2.721   1.375   0.117 -0.9240 -0.1055 -0.4193
12480TIP3    H158931   2.700   1.281   0.122 -0.0099 -0.2555  2.0868
12480TIP3    H258932   2.817   1.378   0.119 -0.9528  0.8699  0.2452
12481TIP3   OH258933   2.248   0.564   0.223  0.7420  0.5624 -0.3390
12481TIP3    H158934   2.247   0.494   0.288  0.2629  0.9272  0.0545
12481TIP3    H258935   2.222   0.522   0.141 -0.7434  0.5105  0.1382
12482TIP3   OH258936   6.011   1.966  12.588 -0.2562 -0.1156 -0.8577
12482TIP3    H158937   5.981   2.022  12.659 -3.1312 -0.2008 -1.8514
12482TIP3    H258938   5.960   1.885  12.598  1.6639 -1.4297 -1.1716
12483TIP3   OH258939   0.856   1.856   4.782  0.7160  0.0531  0.4322
12483TIP3    H158940   0.898   1.903   4.710  0.8219  0.0824  0.5132
12483TIP3    H258941   0.907   1.880   4.860  0.8951 -0.3460  0.4432
12484TIP3   OH258942   3.989   1.370  15.031 -0.3054  0.2213  0.1434
12484TIP3    H158943   4.002   1.449  14.978  1.3514  0.8128  1.3521
12484TIP3    H258944   4.024   1.299  14.978 -1.3596  0.3215 -0.7475
12485TIP3   OH258945   2.923   6.543  11.812  0.3838  0.1770 -0.5401
12485TIP3    H158946   2.852   6.566  11.873 -0.0117  0.9843 -1.2893
12485TIP3    H258947   2.917   6.609  11.743  0.3336 -1.1647 -1.8507
12486TIP3   OH258948   4.910   0.766  13.823  0.3617 -0.4198  0.2091
12486TIP3    H158949   4.976   0.835  13.834 -0.0207  0.1754 -1.0957
12486TIP3    H258950   4.875   0.753  13.911  0.3102  1.1983  0.4637
12487TIP3   OH258951   6.267   0.500  10.490 -0.1834 -0.1518  0.5583
12487TIP3    H158952   6.315   0.573  10.451  2.6866 -1.8006  0.7810
12487TIP3    H258953   6.244   0.444  10.416  0.9710 -0.8674  0.7240
12488TIP3   OH258954   3.560   1.903   2.811 -0.1767 -0.2666  0.2830
12488TIP3    H158955   3.536   1.991   2.839 -1.1048 -0.7777  1.1701
12488TIP3    H258956   3.535   1.899   2.719  0.3393  0.5560  0.1043
12489TIP3   OH258957   3.269   6.099   5.122  0.0854 -0.0362 -0.6020
12489TIP3    H158958   3.241   6.141   5.203 -0.3475 -0.5538 -0.4769
12489TIP3    H258959   3.362   6.084   5.133  0.3163  1.1812 -0.7835
12490TIP3   OH258960   3.474   0.860   5.362 -0.4316 -0.1558 -0.0645
12490TIP3    H158961   3.550   0.864   5.420 -0.5293  0.1510  0.0454
12490TIP3    H258962   3.399   0.879   5.418 -0.4937  0.4727 -0.3430
12491TIP3   OH258963   0.137   0.880   0.328 -0.1296  0.4591 -0.7836
12491TIP3    H158964   0.191   0.928   0.389  0.7589  0.3994 -1.4933
12491TIP3    H258965   0.164   0.911   0.241 -1.0482  0.2348 -1.1720
12492TIP3   OH258966   6.782   3.714   1.600  0.2328  0.0512 -0.9040
12492TIP3    H158967   6.863   3.662   1.597  1.1033  1.3767 -1.4156
12492TIP3    H258968   6.786   3.759   1.685 -0.4661 -0.5940 -0.5092
12493TIP3   OH258969   5.659   4.597   5.971 -0.4843 -0.5780  0.0451
12493TIP3    H158970   5.732   4.653   5.945  0.2055 -1.5938 -0.2764
12493TIP3    H258971   5.700   4.523   6.015 -1.1235 -2.0963 -1.7657
12494TIP3   OH258972   0.655   3.992  14.315 -0.2328 -0.1079  0.3595
12494TIP3    H158973   0.702   3.976  14.233  0.9978  0.7452  0.8700
12494TIP3    H258974   0.563   4.000  14.289  0.0676 -0.4027 -0.8572
12495TIP3   OH258975   6.500   2.864  11.260 -0.2802 -0.2607 -0.5322
12495TIP3    H158976   6.472   2.803  11.191 -2.5339 -0.4200  0.4238
12495TIP3    H258977   6.478   2.950  11.224 -0.3890 -0.2645 -0.4753
12496TIP3   OH258978   3.440   0.636  13.484  0.7561  0.0467 -0.0597
12496TIP3    H158979   3.498   0.561  13.497  0.8045  0.3714  1.7748
12496TIP3    H258980   3.468   0.673  13.400  0.5206 -2.1239 -1.1929
12497TIP3   OH258981   3.432   0.566  12.149 -0.5900 -0.0506  0.2460
12497TIP3    H158982   3.364   0.555  12.082 -1.7144 -1.0535  1.4912
12497TIP3    H258983   3.514   0.566  12.100 -1.2661 -2.3088 -1.0439
12498TIP3   OH258984   1.910   0.309  14.841  0.0888  0.3208 -0.0864
12498TIP3    H158985   1.857   0.340  14.768 -1.0090 -0.9237  0.1419
12498TIP3    H258986   1.854   0.245  14.886  1.6608 -0.8033  0.3597
12499TIP3   OH258987   2.269   4.751   4.208 -0.3789 -0.2603 -0.0615
12499TIP3    H158988   2.307   4.741   4.121 -0.1214 -1.1113  0.1378
12499TIP3    H258989   2.301   4.675   4.257  1.0427  1.1426  1.3358
12500TIP3   OH258990   3.628   2.962  11.938  0.1841  0.1436 -0.7388
12500TIP3    H158991   3.599   2.926  11.854 -0.9415 -0.5923 -0.0510
12500TIP3    H258992   3.641   2.886  11.994  1.7012  0.5738 -0.4536
12501TIP3   OH258993   2.820   3.054  12.208  0.3502 -0.2704 -0.0071
12501TIP3    H158994   2.898   3.086  12.163  0.5669  2.2153  1.8964
12501TIP3    H258995   2.747   3.085  12.154  0.6413  0.9253  0.2546
12502TIP3   OH258996   0.898   4.833  11.811  0.1096 -1.1978 -0.7826
12502TIP3    H158997   0.900   4.768  11.741  0.2150 -0.1896 -1.7500
12502TIP3    H258998   0.809   4.869  11.808  0.2192 -0.9074 -0.6265
12503TIP3   OH258999   5.083   3.546   1.486 -0.2125  0.3110  0.3610
12503TIP3    H159000   5.007   3.488   1.491 -0.5394  0.7165  0.1624
12503TIP3    H259001   5.085   3.575   1.394  0.2151  0.2618  0.3519
12504TIP3   OH259002   2.851   1.163  12.984 -0.4367 -0.0284  0.0263
12504TIP3    H159003   2.793   1.203  13.049  1.8671  0.9799  1.6094
12504TIP3    H259004   2.912   1.110  13.035  2.9407  2.6180 -0.8471
12505TIP3   OH259005   5.355   2.789  15.444  0.0696  0.3595 -0.5279
12505TIP3    H159006   5.278   2.749  15.485 -0.5134  1.1320 -0.8215
12505TIP3    H259007   5.430   2.744  15.483 -0.4752  0.7579  1.0504
12506TIP3   OH259008   2.166   1.042  15.245  0.2921 -0.0361  0.0560
12506TIP3    H159009   2.231   1.104  15.278  0.3634 -0.5389  0.9039
12506TIP3    H259010   2.217   0.981  15.191  0.6177 -0.6492  1.0180
12507TIP3   OH259011   4.360   5.995   0.046 -0.3536  0.3734  0.1175
12507TIP3    H159012   4.294   5.950   0.098 -0.0039  0.5037  0.6916
12507TIP3    H259013   4.311   6.043  -0.020 -0.8836  0.9532  0.9077
12508TIP3   OH259014   5.600   2.386  14.093 -0.2339  0.1471 -0.7268
12508TIP3    H159015   5.570   2.382  14.184 -0.3092 -0.5886 -0.7725
12508TIP3    H259016   5.633   2.475  14.082  1.2233 -0.2067  0.4864
12509TIP3   OH259017   4.457   3.923  10.891  0.1872  0.1128 -0.0202
12509TIP3    H159018   4.495   3.895  10.974  3.3288  0.8080 -1.0752
12509TIP3    H259019   4.441   4.017  10.903 -0.2433  0.0238  0.1004
12510TIP3   OH259020   4.031   3.468   1.573 -0.0599 -0.1421 -0.2424
12510TIP3    H159021   4.031   3.497   1.664  0.3365 -0.2222 -0.2160
12510TIP3    H259022   4.036   3.372   1.578 -0.2817 -0.1602 -0.3453
12511TIP3   OH259023   4.796   5.639   9.842 -0.7608 -0.3619  0.1257
12511TIP3    H159024   4.847   5.578   9.896 -0.4898  0.1880  0.4949
12511TIP3    H259025   4.844   5.642   9.758  0.8676  1.4929  1.0375
12512TIP3   OH259026   0.669   6.633  14.409  0.1536 -0.3858 -0.1814
12512TIP3    H159027   0.660   6.588  14.325  0.1151  0.1040 -0.4438
12512TIP3    H259028   0.587   6.616  14.455 -0.8357  1.2679 -1.1972
12513TIP3   OH259029   5.779   5.003  15.404 -0.3285  0.4660  0.0730
12513TIP3    H159030   5.791   5.084  15.454 -0.7096 -0.2140  1.3307
12513TIP3    H259031   5.852   4.948  15.430 -1.2671 -0.4003  0.9487
12514TIP3   OH259032   4.631   3.538  11.869  0.6263 -0.7865 -0.4477
12514TIP3    H159033   4.553   3.592  11.885 -0.1649 -2.4904  1.9537
12514TIP3    H259034   4.695   3.568  11.934  0.9250 -1.3651 -0.4701
12515TIP3   OH259035   0.671   2.174   2.568 -0.3355 -0.0650 -0.0567
12515TIP3    H159036   0.724   2.164   2.647 -1.4051 -0.0543  0.6857
12515TIP3    H259037   0.594   2.223   2.597 -0.6747  0.0771 -1.1467
12516TIP3   OH259038   7.152   2.880  11.630 -0.6044  0.5133 -0.7036
12516TIP3    H159039   7.219   2.817  11.602  0.1074  1.2815 -0.7658
12516TIP3    H259040   7.185   2.965  11.600 -0.9036  1.0791  0.5256
12517TIP3   OH259041   1.446   4.693  14.645 -0.0381  0.1584  0.5242
12517TIP3    H159042   1.503   4.767  14.665 -0.3956  0.5377  0.1668
12517TIP3    H259043   1.397   4.721  14.567 -0.9717 -0.0027  1.0378
12518TIP3   OH259044   0.048   3.845  12.974  0.0854 -0.0184 -0.7241
12518TIP3    H159045   0.000   3.893  13.041  0.8231  1.1831 -1.0367
12518TIP3    H259046   0.001   3.864  12.893 -1.0019 -1.7330 -0.5373
12519TIP3   OH259047   0.946   1.287   1.543  0.8185  0.3830  0.2373
12519TIP3    H159048   0.867   1.267   1.594 -0.6407 -0.2324 -2.1254
12519TIP3    H259049   0.978   1.369   1.581 -0.8708  0.5782  1.3441
12520TIP3   OH259050   2.033   3.026  11.968  0.3484  0.6044 -0.2578
12520TIP3    H159051   1.993   3.052  12.051 -1.2043  1.0200 -1.0832
12520TIP3    H259052   2.039   3.108  11.918 -0.0461  0.1599 -1.0611
12521TIP3   OH259053   4.062   6.521   4.292  0.5744  0.4777 -0.1202
12521TIP3    H159054   4.015   6.467   4.357  0.7172  0.2331 -0.2182
12521TIP3    H259055   4.105   6.589   4.345  1.8345 -0.5330  0.2155
12522TIP3   OH259056   3.619   5.301  13.895  0.4794  0.2214 -0.0480
12522TIP3    H159057   3.656   5.342  13.816 -0.5604 -0.8654 -1.1515
12522TIP3    H259058   3.541   5.352  13.914  0.6857  0.4334  0.2317
12523TIP3   OH259059   2.941   0.006   2.746 -0.8451  0.0277 -0.1239
12523TIP3    H159060   3.032  -0.024   2.745 -1.1780 -1.0169  0.0547
12523TIP3    H259061   2.937   0.066   2.820 -0.2330  0.3431 -0.3314
12524TIP3   OH259062   0.729   5.711   5.410 -0.3222 -0.2805  0.3117
12524TIP3    H159063   0.667   5.665   5.354  2.0834  0.7416 -3.5732
12524TIP3    H259064   0.695   5.800   5.415 -0.4469 -0.3310  0.3773
12525TIP3   OH259065   5.384   2.484   5.003 -0.0707  0.2681 -0.2898
12525TIP3    H159066   5.361   2.412   4.945 -0.1892  0.9369 -1.0876
12525TIP3    H259067   5.421   2.441   5.081 -3.6158 -0.8958  0.9449
12526TIP3   OH259068   4.426   0.578   1.884 -0.1225 -0.1634 -0.8344
12526TIP3    H159069   4.373   0.557   1.961  0.1034 -1.4581 -1.0146
12526TIP3    H259070   4.509   0.532   1.899  0.2360  0.2728 -1.4536
12527TIP3   OH259071   2.098   5.079   1.405  0.5726 -0.2055 -0.3284
12527TIP3    H159072   2.168   5.107   1.465 -0.8295 -0.0002  1.2780
12527TIP3    H259073   2.062   5.000   1.444 -1.0462  0.4950 -0.3408
12528TIP3   OH259074   0.353   2.096   3.003 -0.1944 -0.6779  0.8439
12528TIP3    H159075   0.429   2.099   3.062 -1.3437 -1.1349  2.4323
12528TIP3    H259076   0.278   2.098   3.062 -1.4470  0.4388 -0.7243
12529TIP3   OH259077   5.386   1.623  15.662  0.6520  0.0087  0.6845
12529TIP3    H159078   5.456   1.597  15.602  1.0923 -0.5233  1.4029
12529TIP3    H259079   5.316   1.559  15.647  1.1191 -0.6735  1.3598
12530TIP3   OH259080   2.708   3.461  14.288  0.4782  0.6810  0.1471
12530TIP3    H159081   2.712   3.477  14.194  0.4767  0.4095  0.1014
12530TIP3    H259082   2.675   3.543  14.325 -2.5922 -0.2057 -0.3642
12531TIP3   OH259083   1.412   2.396   0.146 -0.5025 -0.5232 -0.3860
12531TIP3    H159084   1.407   2.415   0.240 -0.3396 -0.6987 -0.3417
12531TIP3    H259085   1.447   2.477   0.108  1.2194 -1.0745 -0.0625
12532TIP3   OH259086   3.850   3.450   0.206  0.4451  0.2484 -0.5025
12532TIP3    H159087   3.834   3.484   0.118  1.0349 -0.6871 -0.9936
12532TIP3    H259088   3.799   3.507   0.263  0.9242  1.5766 -1.3358
12533TIP3   OH259089   2.695   2.000   4.621  0.5839  0.0516  0.2074
12533TIP3    H159090   2.668   2.068   4.683 -1.2103 -1.9953  1.8034
12533TIP3    H259091   2.632   2.006   4.550  0.2142 -0.1766  0.5157
12534TIP3   OH259092   4.951   3.196   4.343  0.5748  0.3028  0.0827
12534TIP3    H159093   4.857   3.207   4.337  0.9188  3.2968 -1.7918
12534TIP3    H259094   4.975   3.152   4.261  0.9848  1.8444 -0.6676
12535TIP3   OH259095   4.655   5.884  14.158 -0.5334 -0.1014 -0.1737
12535TIP3    H159096   4.678   5.862  14.068  1.7431 -0.3316  0.4109
12535TIP3    H259097   4.710   5.959  14.180  1.7457 -2.2621  2.1315
12536TIP3   OH259098   7.076   5.378   2.625 -0.3684  0.2832  0.3902
12536TIP3    H159099   7.052   5.410   2.538 -1.0347  2.4000  1.2673
12536TIP3    H259100   7.103   5.457   2.673  0.4521 -0.8868  1.9628
12537TIP3   OH259101   5.214   0.350  13.209  0.0314 -0.0331  0.1676
12537TIP3    H159102   5.296   0.301  13.212 -0.1828 -0.4636 -0.6705
12537TIP3    H259103   5.147   0.285  13.229 -0.2092  0.0338 -0.4041
12538TIP3   OH259104   5.710   5.414   2.062  0.3762  0.0910  0.2049
12538TIP3    H159105   5.636   5.353   2.062  1.2239 -0.9757 -0.2626
12538TIP3    H259106   5.758   5.394   2.143  0.5624  0.2504  0.1357
12539TIP3   OH259107   6.942   0.834   3.049 -0.6364  0.1311 -0.4719
12539TIP3    H159108   7.008   0.790   2.996 -0.4501  0.8050 -0.8112
12539TIP3    H259109   6.876   0.863   2.985 -0.7557  0.3388 -0.2540
12540TIP3   OH259110   5.498   6.957  11.557 -0.5584  0.4322 -0.5067
12540TIP3    H159111   5.576   6.995  11.518 -0.3047  0.2158 -0.2142
12540TIP3    H259112   5.525   6.870  11.587 -1.0966  0.0719 -1.0466
12541TIP3   OH259113   6.766   3.817  12.928 -0.7113  0.2108  0.2981
12541TIP3    H159114   6.800   3.905  12.912  1.5835  0.6147  5.4031
12541TIP3    H259115   6.684   3.830  12.975 -0.7078 -0.3594  0.4791
12542TIP3   OH259116   6.353   1.344  14.147 -0.4144  0.1992  0.2394
12542TIP3    H159117   6.360   1.289  14.069  0.1430 -1.3810  1.3613
12542TIP3    H259118   6.258   1.355  14.159 -0.5141  1.3614 -1.2168
12543TIP3   OH259119   1.159   6.880   0.171 -0.5294 -0.5228 -0.4297
12543TIP3    H159120   1.133   6.791   0.147  0.7591 -0.6812 -1.3583
12543TIP3    H259121   1.247   6.870   0.207 -0.7651  0.2689  0.3936
12544TIP3   OH259122   2.429   2.775  14.066  0.6099  0.1242  0.7922
12544TIP3    H159123   2.514   2.782  14.022  1.2165  1.0155  2.0438
12544TIP3    H259124   2.426   2.851  14.124 -1.3502  0.4771  0.2762
12545TIP3   OH259125   0.517   0.702   1.324  0.0492 -0.1399  0.2524
12545TIP3    H159126   0.465   0.686   1.403  0.9683  0.6716  1.0558
12545TIP3    H259127   0.605   0.672   1.346  0.5347  0.9606 -0.1155
12546TIP3   OH259128   2.876   7.055  14.029 -0.4654 -0.2355  0.0286
12546TIP3    H159129   2.858   7.080  13.938 -0.2008 -0.8991 -0.2206
12546TIP3    H259130   2.911   7.133  14.070 -0.2067 -0.0407 -0.5578
12547TIP3   OH259131   0.980   3.540   2.898 -0.0464 -0.0904 -0.2580
12547TIP3    H159132   0.941   3.562   2.982  2.9080  1.3665  0.9034
12547TIP3    H259133   0.978   3.622   2.849  0.4076 -0.2986 -0.6318
12548TIP3   OH259134   0.747   5.338   9.891 -0.0108  0.1939 -0.2190
12548TIP3    H159135   0.682   5.279   9.929  1.8598 -0.6931  1.8735
12548TIP3    H259136   0.727   5.424   9.929 -0.5097  0.1354 -0.3417
12549TIP3   OH259137   3.155   0.308  10.447  0.7057  0.5808 -0.1624
12549TIP3    H159138   3.154   0.238  10.382  1.6163  0.0549  0.3581
12549TIP3    H259139   3.198   0.269  10.524  0.5349  1.4748  0.4085
12550TIP3   OH259140   6.285   0.551  15.748  0.0550  0.0364  0.2288
12550TIP3    H159141   6.366   0.561  15.800  0.6458  2.1951 -0.9966
12550TIP3    H259142   6.298   0.469  15.700  1.7088  0.5405 -0.2422
12551TIP3   OH259143   3.029   2.557   2.375  0.9045 -0.3077  0.1526
12551TIP3    H159144   2.973   2.482   2.353 -0.2500  0.2369  1.1312
12551TIP3    H259145   3.020   2.616   2.300  1.3424 -0.8655 -0.3499
12552TIP3   OH259146   3.229   2.529   2.025 -0.0443  0.6576 -0.2757
12552TIP3    H159147   3.266   2.557   2.109  1.3678 -1.6090 -0.0427
12552TIP3    H259148   3.273   2.583   1.960  1.5270  0.0672  0.2395
12553TIP3   OH259149   1.462   6.089   1.162 -0.0790  0.1727 -0.9040
12553TIP3    H159150   1.460   6.056   1.252 -2.7453 -0.5031 -1.1136
12553TIP3    H259151   1.496   6.179   1.170  2.2835 -0.7561  0.3585
12554TIP3   OH259152   4.587   4.869  12.304  0.3629  0.7440 -0.2035
12554TIP3    H159153   4.613   4.795  12.359  0.0796 -0.0551 -1.1155
12554TIP3    H259154   4.636   4.943  12.339  0.3284  0.2263  1.0003
12555TIP3   OH259155   6.268   3.943  15.049  0.5427 -0.4385  0.4292
12555TIP3    H159156   6.286   3.856  15.014  0.6314  0.0607 -0.8037
12555TIP3    H259157   6.173   3.946  15.056  0.5520 -0.7227  0.7327
12556TIP3   OH259158   5.538   5.999  13.107  0.0360 -0.6354 -0.1431
12556TIP3    H159159   5.585   6.077  13.080  0.5500 -0.3301  1.5082
12556TIP3    H259160   5.596   5.926  13.083  0.2358 -0.4113 -0.3374
12557TIP3   OH259161   3.118   1.109  11.232  0.1332 -0.8056  0.2609
12557TIP3    H159162   3.195   1.099  11.176 -0.0512 -0.4371 -0.0605
12557TIP3    H259163   3.154   1.123  11.320  0.4191 -1.7463  0.3013
12558TIP3   OH259164   4.466   0.596   2.729 -0.4782  0.3944 -0.6748
12558TIP3    H159165   4.432   0.508   2.744  1.5011 -0.3812 -0.3479
12558TIP3    H259166   4.402   0.654   2.770 -0.5621 -1.0541  1.3926
12559TIP3   OH259167   5.205   0.533  14.256 -0.0718  0.5102  0.5073
12559TIP3    H159168   5.296   0.560  14.272  0.0772  0.2468  0.1211
12559TIP3    H259169   5.203   0.508  14.163 -0.6076  0.7799  0.4405
12560TIP3   OH259170   4.268   6.300  11.738  0.3737  0.5172  0.7435
12560TIP3    H159171   4.191   6.323  11.686  0.1518  0.2994  0.9787
12560TIP3    H259172   4.310   6.384  11.757  0.8336  0.5565 -0.3646
12561TIP3   OH259173   6.450   0.469  13.504 -0.6346 -0.2219  0.5242
12561TIP3    H159174   6.428   0.470  13.597  0.1417 -0.2685  0.7108
12561TIP3    H259175   6.479   0.379  13.487  0.0272  0.0062  0.4296
12562TIP3   OH259176   3.056   2.608   2.809  0.1570  0.1765  0.0326
12562TIP3    H159177   3.021   2.529   2.768 -1.0044 -0.2809  1.7566
12562TIP3    H259178   3.039   2.678   2.746  0.3516 -0.7836 -1.1243
12563TIP3   OH259179   3.639   6.876   3.899  0.3963 -0.1395  0.2080
12563TIP3    H159180   3.553   6.856   3.937  0.0719  0.8002 -0.0154
12563TIP3    H259181   3.688   6.794   3.908 -0.2563 -0.4572  1.0535
12564TIP3   OH259182   1.882   1.873   3.001 -0.1971 -0.4322  0.2674
12564TIP3    H159183   1.936   1.891   3.077  0.2334 -0.7566  0.0433
12564TIP3    H259184   1.862   1.779   3.008  0.0794 -0.5280 -0.1613
12565TIP3   OH259185   5.300   1.255   2.669  0.4953  0.3943 -0.4742
12565TIP3    H159186   5.361   1.184   2.690  0.8520  0.7460 -0.3045
12565TIP3    H259187   5.350   1.335   2.685  0.3241  0.6866 -1.3426
12566TIP3   OH259188   6.462   2.098   2.810  0.1581 -0.8790 -0.2450
12566TIP3    H159189   6.459   2.099   2.714  1.0691  0.3530 -0.2730
12566TIP3    H259190   6.525   2.166   2.833 -0.4732 -0.7750  1.2547
12567TIP3   OH259191   5.500   3.510   0.709 -0.5158  0.0658 -0.5572
12567TIP3    H159192   5.524   3.441   0.647 -1.9802 -0.8270 -0.1957
12567TIP3    H259193   5.532   3.590   0.669  2.1710 -0.8805 -0.5046
12568TIP3   OH259194   1.628   6.539   1.944  0.6273  0.4910 -0.0070
12568TIP3    H159195   1.655   6.559   2.033  1.8148 -2.8899  0.5416
12568TIP3    H259196   1.533   6.529   1.950  0.6217  0.9251  0.7181
12569TIP3   OH259197   6.583   1.227   9.730  0.4635 -0.1089  0.3503
12569TIP3    H159198   6.529   1.275   9.793 -1.3941  0.4751 -1.5670
12569TIP3    H259199   6.539   1.240   9.646  2.4592 -1.4160 -0.9832
12570TIP3   OH259200   4.647   2.163   0.759  0.3379 -0.2765  0.1478
12570TIP3    H159201   4.585   2.202   0.820 -1.7243 -0.9539 -1.4231
12570TIP3    H259202   4.699   2.236   0.726 -1.8739  0.8453 -0.9892
12571TIP3   OH259203   6.895   3.286   9.639 -0.1899  0.8697  0.8858
12571TIP3    H159204   6.900   3.226   9.565  0.5842  1.9352  0.0550
12571TIP3    H259205   6.819   3.341   9.620 -1.0018  0.0939  1.7316
12572TIP3   OH259206   6.535   3.713  12.142  0.1229  0.5187 -0.0200
12572TIP3    H159207   6.506   3.645  12.203 -0.1472  1.4536  0.9277
12572TIP3    H259208   6.629   3.721  12.158  0.1404  0.4187 -0.0733
12573TIP3   OH259209   4.549   2.758   2.606 -0.1218 -0.0038  0.8800
12573TIP3    H159210   4.630   2.727   2.646 -3.1292 -3.4510  5.3575
12573TIP3    H259211   4.521   2.831   2.661 -0.5371  0.5521 -0.0387
12574TIP3   OH259212   6.013   5.954  15.309  0.4567  0.2122 -0.2790
12574TIP3    H159213   6.014   5.882  15.246  0.6861  0.6404 -0.7795
12574TIP3    H259214   5.972   5.918  15.387 -1.4381  0.1309 -1.2461
12575TIP3   OH259215   3.750   3.080   1.591  0.2178 -0.3140  0.4474
12575TIP3    H159216   3.792   3.073   1.677  0.5185  0.4970  0.3821
12575TIP3    H259217   3.811   3.037   1.531  1.2838  1.3451  0.2670
12576TIP3   OH259218   5.779   6.400   1.775  0.3315  0.5803  1.3539
12576TIP3    H159219   5.814   6.436   1.694  0.4448  0.4424  1.3410
12576TIP3    H259220   5.729   6.472   1.814 -0.7128  0.3013  0.5868
12577TIP3   OH259221   4.154   7.085  14.410  0.1990 -0.2019 -0.4732
12577TIP3    H159222   4.240   7.057  14.381 -0.2956  0.3893 -2.7528
12577TIP3    H259223   4.120   7.011  14.461  2.0609 -0.3787  0.6122
12578TIP3   OH259224   5.477   5.233  12.842  0.2262 -0.5396 -0.0640
12578TIP3    H159225   5.544   5.291  12.878 -1.0873  0.2226  1.2927
12578TIP3    H259226   5.414   5.222  12.913 -1.0910 -1.2355 -1.2717
12579TIP3   OH259227   5.334   4.596  13.626 -1.0699  0.0432  0.6499
12579TIP3    H159228   5.384   4.570  13.549  0.7276  2.7674  0.7792
12579TIP3    H259229   5.375   4.547  13.698 -1.9520 -1.5561  0.1215
12580TIP3   OH259230   2.125   2.077  15.612  0.4703  0.4879 -0.4741
12580TIP3    H159231   2.079   1.998  15.583  2.3908 -1.4329  1.2636
12580TIP3    H259232   2.098   2.088  15.703  2.0531  0.3156  0.0473
12581TIP3   OH259233   2.675   0.959   4.290 -0.0916 -0.5398  0.1414
12581TIP3    H159234   2.611   1.030   4.298 -0.4206 -0.8110 -0.0733
12581TIP3    H259235   2.672   0.914   4.375  0.2758 -0.1684  0.3559
12582TIP3   OH259236   0.785   2.905   5.240  0.4171 -0.1956  0.4345
12582TIP3    H159237   0.784   3.000   5.250 -2.1746 -0.2131  0.9469
12582TIP3    H259238   0.707   2.875   5.285  0.6576 -2.4948 -0.5356
12583TIP3   OH259239   2.752   2.571  15.273 -1.2637  0.1548 -0.8145
12583TIP3    H159240   2.813   2.636  15.307 -1.4642  0.5558 -1.2107
12583TIP3    H259241   2.808   2.506  15.229 -0.9925 -0.4588  0.4077
12584TIP3   OH259242   6.725   1.839   1.366  0.1742 -0.5188 -0.3209
12584TIP3    H159243   6.767   1.905   1.421  0.9282 -0.8979 -0.4188
12584TIP3    H259244   6.698   1.770   1.427 -4.5824  1.6558  0.4836
12585TIP3   OH259245   1.243   2.712  13.539 -0.1934  0.3518  0.1109
12585TIP3    H159246   1.177   2.644  13.527 -0.5264  0.6055  0.4916
12585TIP3    H259247   1.318   2.683  13.486  0.3161 -1.1476  1.6011
12586TIP3   OH259248   5.303   1.819  11.687 -0.1868  0.0024 -0.0440
12586TIP3    H159249   5.237   1.882  11.715 -1.5979 -1.0490 -0.8306
12586TIP3    H259250   5.382   1.871  11.671 -1.6133  1.7754 -1.8445
12587TIP3   OH259251   0.936   2.166  15.445 -0.0549  0.5249  0.3064
12587TIP3    H159252   0.935   2.243  15.388 -0.8809  0.0698 -0.3218
12587TIP3    H259253   0.845   2.156  15.473 -0.7356 -2.1184 -2.3226
12588TIP3   OH259254   7.002   6.081  13.541 -0.3194  0.7627  0.4708
12588TIP3    H159255   7.081   6.028  13.528 -1.7748 -2.3667  2.9367
12588TIP3    H259256   7.034   6.169  13.555  2.3423  0.6278 -3.2595
12589TIP3   OH259257   1.483   2.992   1.210 -0.0485 -0.3973  0.7290
12589TIP3    H159258   1.478   2.903   1.175 -2.6293 -0.2485  0.5680
12589TIP3    H259259   1.398   3.031   1.191  0.4613  1.5964  2.1842
12590TIP3   OH259260   0.619   7.141   5.720  0.6565  0.6588 -0.7099
12590TIP3    H159261   0.597   7.233   5.735 -0.5534  0.1096  1.2400
12590TIP3    H259262   0.695   7.125   5.775  1.5544  0.7413 -1.8985
12591TIP3   OH259263   2.854   4.604   5.389 -0.1839 -0.1165 -0.3432
12591TIP3    H159264   2.895   4.527   5.428 -1.6683 -1.8379 -1.9691
12591TIP3    H259265   2.772   4.615   5.437  0.2525  0.8107  0.2238
12592TIP3   OH259266   0.611   1.758  14.024  0.1482 -0.6448 -0.5277
12592TIP3    H159267   0.665   1.685  14.054  0.2794 -0.2942  0.1123
12592TIP3    H259268   0.664   1.836  14.042 -0.6486 -0.2750  0.3258
12593TIP3   OH259269   4.396   5.962   3.822  0.1520 -0.0583  0.1634
12593TIP3    H159270   4.396   6.004   3.908  0.9804  0.4133 -0.0487
12593TIP3    H259271   4.342   6.019   3.767 -0.9254 -0.7155  0.5238
12594TIP3   OH259272   1.740   6.784  13.178 -0.3770  0.5320  0.1203
12594TIP3    H159273   1.646   6.785  13.196 -0.4485  1.0441 -0.2687
12594TIP3    H259274   1.774   6.713  13.233 -1.2557 -0.8771 -1.0862
12595TIP3   OH259275   6.641   1.093   1.795  0.5032  0.4451 -0.2907
12595TIP3    H159276   6.711   1.055   1.742  0.3590 -0.4336  0.1379
12595TIP3    H259277   6.604   1.162   1.740  0.7215 -0.0767 -1.0991
12596TIP3   OH259278   2.103   4.833  13.174  0.0003 -0.7330 -0.6947
12596TIP3    H159279   2.031   4.883  13.134  0.2903 -0.1510 -0.5008
12596TIP3    H259280   2.181   4.863  13.128  0.3460 -0.0301  0.3166
12597TIP3   OH259281   0.004   5.911   4.092  0.1124  0.2644  0.4748
12597TIP3    H159282  -0.007   5.973   4.164 -0.9918 -0.9226  1.3814
12597TIP3    H259283  -0.053   5.943   4.023 -0.9383 -0.0510  1.1698
12598TIP3   OH259284   3.434   5.354   3.462 -0.6211 -0.7239  0.4218
12598TIP3    H159285   3.411   5.429   3.516 -0.0555 -0.6944  0.6258
12598TIP3    H259286   3.456   5.392   3.377 -3.0580 -0.8941 -0.3523
12599TIP3   OH259287   6.843   1.835  12.027  0.4546  0.2119 -0.3175
12599TIP3    H159288   6.915   1.776  12.004  1.3197  1.2113 -0.2480
12599TIP3    H259289   6.832   1.890  11.949  0.1867  0.4892 -0.0844
12600TIP3   OH259290   0.770   2.445  13.549  0.3243  0.1832 -0.9076
12600TIP3    H159291   0.833   2.509  13.516 -0.1602  1.2916  0.2260
12600TIP3    H259292   0.686   2.471  13.511  0.2646 -0.3581 -1.1715
12601TIP3   OH259293   0.063   4.144  12.478  0.1249 -0.2796 -0.0252
12601TIP3    H159294   0.157   4.140  12.495  0.5142  2.5131 -0.9442
12601TIP3    H259295   0.040   4.236  12.495 -2.2966 -0.7250 -0.5259
12602TIP3   OH259296   0.997   4.542   5.775 -0.5863  0.1512 -0.0300
12602TIP3    H159297   1.081   4.523   5.815 -0.9923  1.0971  1.3440
12602TIP3    H259298   0.939   4.561   5.849 -1.6403  0.9129 -1.0231
12603TIP3   OH259299   1.344   5.121   0.453  0.5912  0.5569  0.0548
12603TIP3    H159300   1.270   5.176   0.430  0.0416 -0.6969 -1.3213
12603TIP3    H259301   1.355   5.062   0.379  2.2325 -0.0726  0.7357
12604TIP3   OH259302   0.027   3.925  15.003 -0.0992 -0.1177 -0.0884
12604TIP3    H159303  -0.023   3.868  15.062  0.1584 -0.7309 -0.4513
12604TIP3    H259304   0.034   4.008  15.050 -0.0616 -0.5378  0.6607
12605TIP3   OH259305   4.252   1.263   1.504  0.1669 -0.8686 -0.1101
12605TIP3    H159306   4.247   1.294   1.595  0.4799 -1.1205 -0.0068
12605TIP3    H259307   4.251   1.167   1.512  1.2551 -0.9075 -0.3082
12606TIP3   OH259308   5.398   5.287   2.297  0.1010 -0.3551 -0.2772
12606TIP3    H159309   5.446   5.353   2.348 -0.8049  0.5980 -0.6053
12606TIP3    H259310   5.464   5.248   2.239  0.4462  1.1735 -0.9718
12607TIP3   OH259311   5.973   4.310  12.804  0.0653  0.3595 -0.7758
12607TIP3    H159312   5.986   4.405  12.805 -4.1250  1.1154  0.0480
12607TIP3    H259313   5.920   4.292  12.882  0.2967 -2.6198 -1.1902
12608TIP3   OH259314   0.962   4.810   4.725 -0.2894 -0.0929 -0.8593
12608TIP3    H159315   0.905   4.735   4.745  1.0143 -0.7331  0.6555
12608TIP3    H259316   0.963   4.814   4.629 -2.5553 -0.2716 -0.9620
12609TIP3   OH259317   0.928   5.281   3.254 -0.3262  0.1675 -0.1683
12609TIP3    H159318   1.020   5.258   3.243 -0.1229  0.9824 -0.2115
12609TIP3    H259319   0.885   5.249   3.174 -0.3929 -1.6673  0.5395
12610TIP3   OH259320   6.457   5.285   1.826 -0.0272  0.2898 -0.1264
12610TIP3    H159321   6.481   5.240   1.746 -2.0440  0.8504 -1.1119
12610TIP3    H259322   6.501   5.235   1.896 -0.1804 -1.6953 -1.3628
12611TIP3   OH259323   4.458   4.826   5.401  0.1737 -0.9986  0.1650
12611TIP3    H159324   4.421   4.799   5.317 -2.8199 -1.2828  1.4628
12611TIP3    H259325   4.466   4.745   5.450 -0.8969 -0.5342  1.1434
12612TIP3   OH259326   4.003   4.502   5.082 -0.5274 -0.4603 -0.0940
12612TIP3    H159327   3.995   4.476   4.990 -1.5165 -0.2139 -0.0965
12612TIP3    H259328   4.069   4.571   5.082 -0.1238 -0.8438 -0.5368
12613TIP3   OH259329   5.129   0.554   3.008 -0.2973 -0.1837  0.1490
12613TIP3    H159330   5.094   0.467   3.030 -0.3932 -0.8783 -2.3881
12613TIP3    H259331   5.199   0.536   2.945  0.2366  1.5588  0.1892
12614TIP3   OH259332   5.974   1.520   5.188  0.5573  0.2436 -0.6092
12614TIP3    H159333   5.891   1.493   5.229 -0.5095  2.7245 -0.9307
12614TIP3    H259334   6.041   1.494   5.251 -0.7305  0.7515  1.0685
12615TIP3   OH259335   3.956   5.487  14.571 -0.0884 -0.0632  0.2890
12615TIP3    H159336   3.969   5.564  14.516  2.0566 -1.9420 -2.1531
12615TIP3    H259337   4.037   5.480  14.622  0.3187 -1.2873 -0.4613
12616TIP3   OH259338   5.897   0.056   3.611  0.5094 -0.5357  0.4417
12616TIP3    H159339   5.812   0.095   3.590  0.5955 -1.2391 -1.3292
12616TIP3    H259340   5.876  -0.018   3.668  0.1624  0.6191  1.8950
12617TIP3   OH259341   2.085   1.684   5.888 -0.0919  0.3947  0.1696
12617TIP3    H159342   2.105   1.775   5.866 -0.4959  1.0583  2.3316
12617TIP3    H259343   2.160   1.655   5.939 -2.0458  1.2439  3.8714
12618TIP3   OH259344   0.510   1.097   1.056 -0.0798  0.0893  0.1035
12618TIP3    H159345   0.568   1.134   1.121 -0.4214  1.1782 -0.1921
12618TIP3    H259346   0.422   1.107   1.093 -0.2162  0.0072 -0.1916
12619TIP3   OH259347   5.175   3.050   5.084  0.1874  0.6135 -0.6433
12619TIP3    H159348   5.118   3.030   5.009 -0.4970 -1.1337  0.2738
12619TIP3    H259349   5.255   3.001   5.066 -0.5569 -1.1003  0.4365
12620TIP3   OH259350   3.243   1.550   0.278 -0.2339 -0.2867 -0.1310
12620TIP3    H159351   3.270   1.582   0.364  0.7512 -2.2204  0.3308
12620TIP3    H259352   3.265   1.622   0.218 -2.3140  1.7136  1.3404
12621TIP3   OH259353   0.367   4.773   4.558  0.6280  0.0491  0.0317
12621TIP3    H159354   0.363   4.867   4.572 -0.1110  0.0033  0.1624
12621TIP3    H259355   0.460   4.751   4.568  1.0192  0.9610 -1.3991
12622TIP3   OH259356   6.820   2.033  12.912 -0.0599 -0.4891  0.5547
12622TIP3    H159357   6.916   2.030  12.902  0.1534  0.7581  1.8668
12622TIP3    H259358   6.807   2.072  12.999 -1.7545  1.5871 -0.5503
12623TIP3   OH259359   2.426   5.172   2.301  0.6508 -0.6423  0.2041
12623TIP3    H159360   2.515   5.205   2.310  0.6414  0.2601 -2.3568
12623TIP3    H259361   2.371   5.250   2.299 -0.0757 -1.1361  0.4081
12624TIP3   OH259362   5.357   1.135  14.662 -0.7353 -0.6954 -0.5876
12624TIP3    H159363   5.351   1.150  14.568  0.0847  1.9151 -0.3061
12624TIP3    H259364   5.276   1.171  14.698 -0.2592 -0.0077 -0.1704
12625TIP3   OH259365   4.641   4.629  11.064 -0.0654 -0.0750  0.1533
12625TIP3    H159366   4.593   4.635  11.146 -1.6723 -0.1801 -0.7362
12625TIP3    H259367   4.624   4.541  11.032 -1.5748  0.7495 -1.4860
12626TIP3   OH259368   5.076   0.861   5.454 -0.0946 -0.1073  0.2243
12626TIP3    H159369   5.107   0.921   5.387  2.4555 -0.6090  0.8275
12626TIP3    H259370   5.146   0.860   5.519 -1.9861 -0.4672  2.3784
12627TIP3   OH259371   1.176   5.491  10.097 -0.4517 -0.3703 -0.3649
12627TIP3    H159372   1.264   5.457  10.107 -1.3800 -2.1440  3.6011
12627TIP3    H259373   1.135   5.433  10.033  0.3343 -1.6393  0.2505
12628TIP3   OH259374   6.645   3.129   1.696 -0.5833 -0.3282 -0.2021
12628TIP3    H159375   6.721   3.074   1.678  0.5990  1.1682  0.0193
12628TIP3    H259376   6.647   3.196   1.627  0.2415  1.6555  1.6487
12629TIP3   OH259377   4.956   1.971   0.033  0.4760  0.1074  0.4082
12629TIP3    H159378   4.982   1.883   0.062  0.5214 -0.9484 -2.5196
12629TIP3    H259379   4.861   1.970   0.032  0.3957  0.9300  2.5358
12630TIP3   OH259380   2.156   3.465  13.562  0.2808 -0.6412 -0.0333
12630TIP3    H159381   2.184   3.427  13.646 -0.4637  0.2352  0.6298
12630TIP3    H259382   2.137   3.389  13.507  2.6245 -1.2770 -0.0995
12631TIP3   OH259383   6.467   6.543   4.705  0.0045  0.0447 -0.1043
12631TIP3    H159384   6.507   6.512   4.786 -2.5254 -0.7490  0.9083
12631TIP3    H259385   6.378   6.566   4.728 -0.8954 -0.4405 -2.6955
12632TIP3   OH259386   2.255   6.896  10.154 -0.2402  0.1873  0.1697
12632TIP3    H159387   2.277   6.949  10.077 -2.3030  0.7323 -0.0872
12632TIP3    H259388   2.183   6.841  10.125 -0.7567  0.0877  1.5904
12633TIP3   OH259389   4.720   2.184  11.875 -0.4110 -0.0130  0.0912
12633TIP3    H159390   4.772   2.106  11.892  0.6695  0.6033 -0.2803
12633TIP3    H259391   4.690   2.173  11.784  0.1974  0.2401 -0.1485
12634TIP3   OH259392   1.006   2.912   3.755 -0.0324 -0.0372  0.0987
12634TIP3    H159393   1.003   2.830   3.705 -0.9128  0.2066 -0.2768
12634TIP3    H259394   1.051   2.974   3.698  1.7654 -0.5651  0.8855
12635TIP3   OH259395   3.057   1.311  15.528  0.4986  0.2094 -0.3028
12635TIP3    H159396   3.024   1.241  15.471  0.4281 -0.6055  0.7080
12635TIP3    H259397   3.152   1.298  15.530  0.3453 -1.0479  1.3294
12636TIP3   OH259398   6.138   6.581  10.302  0.7259  0.5978  0.0419
12636TIP3    H159399   6.182   6.618  10.226  0.2505  0.0227 -0.5217
12636TIP3    H259400   6.192   6.507  10.328  0.4716  0.3146 -0.2256
12637TIP3   OH259401   5.840   4.810   0.571 -0.3961 -0.2194 -0.0525
12637TIP3    H159402   5.901   4.883   0.567  0.4365 -0.9277 -0.9169
12637TIP3    H259403   5.839   4.784   0.663  0.4415 -0.0524  0.0079
12638TIP3   OH259404   6.360   0.459   0.365  0.3368  0.0669 -0.2890
12638TIP3    H159405   6.291   0.412   0.318 -0.1651  1.4326 -0.9345
12638TIP3    H259406   6.314   0.507   0.434  0.7375  0.3631 -0.2248
12639TIP3   OH259407   3.159   2.892  13.079  0.2599 -0.2262 -0.3566
12639TIP3    H159408   3.182   2.800  13.081 -0.4851 -0.4094  0.2122
12639TIP3    H259409   3.099   2.900  13.004 -0.3906 -0.3867  0.1394
12640TIP3   OH259410   4.882   0.020  11.937 -0.0650  0.3751 -0.0573
12640TIP3    H159411   4.903  -0.035  11.861 -3.5969  2.6215 -3.0118
12640TIP3    H259412   4.808  -0.023  11.978  0.5235  0.2606  0.9145
12641TIP3   OH259413   2.539   5.281  12.756 -0.1099  0.2483 -0.2335
12641TIP3    H159414   2.566   5.236  12.676  2.0873 -0.3255  0.7555
12641TIP3    H259415   2.618   5.325  12.787 -1.1769  1.3569  1.0542
12642TIP3   OH259416   1.980   1.102   2.142 -0.0722  0.0036  0.2939
12642TIP3    H159417   1.974   1.014   2.179  0.2130  0.2067  0.8303
12642TIP3    H259418   1.992   1.088   2.048  2.2870 -0.5937  0.6117
12643TIP3   OH259419   6.361   1.071   1.565 -0.9074 -0.8645 -0.5459
12643TIP3    H159420   6.418   1.145   1.585 -0.6591 -1.2914  0.4206
12643TIP3    H259421   6.283   1.087   1.619 -1.4889 -0.5483 -1.4680
12644TIP3   OH259422   5.617   2.000   0.382 -0.1126 -0.1141 -0.6678
12644TIP3    H159423   5.695   2.004   0.438 -0.5942  3.0715 -0.0009
12644TIP3    H259424   5.548   1.966   0.439  0.0894  0.1658 -0.2476
12645TIP3   OH259425   3.945   5.787  11.104  0.1254  0.1658 -0.4916
12645TIP3    H159426   3.984   5.873  11.092 -0.7560  0.5362 -0.7789
12645TIP3    H259427   3.930   5.755  11.015 -2.9843  1.3339 -0.5111
12646TIP3   OH259428   4.613   6.975   4.767  0.0141 -0.3499  0.5572
12646TIP3    H159429   4.535   6.989   4.819  1.2842 -0.0404  2.4613
12646TIP3    H259430   4.668   7.052   4.783  0.1683  0.1460 -1.8753
12647TIP3   OH259431   4.218   0.017   0.927 -0.6431  0.0203  0.0168
12647TIP3    H159432   4.189  -0.064   0.968 -0.7243 -0.4948 -1.0472
12647TIP3    H259433   4.206   0.003   0.833 -1.4829  1.5820 -0.1406
12648TIP3   OH259434   5.715   0.436   5.047 -0.3724 -0.2371  0.0433
12648TIP3    H159435   5.755   0.523   5.046  1.0253 -0.8485 -0.3985
12648TIP3    H259436   5.622   0.452   5.061 -0.3948  1.4208 -1.6847
12649TIP3   OH259437   2.422   3.189   0.270  0.5092  0.2925  0.1667
12649TIP3    H159438   2.346   3.151   0.227  0.9213 -0.8865  0.4429
12649TIP3    H259439   2.488   3.195   0.201  0.1467  1.4139 -0.0977
12650TIP3   OH259440   2.763   2.621   0.851  0.6021  0.0974 -0.0001
12650TIP3    H159441   2.735   2.709   0.827 -1.3186 -0.6890 -0.8291
12650TIP3    H259442   2.733   2.565   0.780  3.3304 -1.0572 -0.3729
12651TIP3   OH259443   1.910   1.492  10.638  1.0560  0.0028 -0.0786
12651TIP3    H159444   1.989   1.543  10.655 -0.4004  2.7094 -0.7770
12651TIP3    H259445   1.893   1.503  10.545 -0.3571 -0.1225  0.1355
12652TIP3   OH259446   2.314   2.449   2.834 -0.2836  0.2582  0.1503
12652TIP3    H159447   2.248   2.444   2.903 -0.7292 -0.2873 -0.3002
12652TIP3    H259448   2.335   2.542   2.828  0.4196  0.2160  1.6120
12653TIP3   OH259449   1.056   4.487   5.449  0.3169 -0.2257  0.5604
12653TIP3    H159450   1.114   4.414   5.428  0.0356 -0.7780  1.6446
12653TIP3    H259451   0.983   4.447   5.497  0.1784  0.7797  1.2053
12654TIP3   OH259452   4.415   2.715   4.394  0.7329  0.1797  0.0255
12654TIP3    H159453   4.352   2.670   4.451 -0.6989  0.5379 -1.1963
12654TIP3    H259454   4.459   2.645   4.346  0.2535 -0.0463 -0.0974
12655TIP3   OH259455   0.860   0.734   9.655  0.0184 -0.3928 -0.5689
12655TIP3    H159456   0.800   0.761   9.586 -1.8901 -0.5267  0.9575
12655TIP3    H259457   0.899   0.816   9.686 -1.3672  0.0111  0.1657
12656TIP3   OH259458   0.745   7.144   3.119  0.9891 -0.0560  0.1584
12656TIP3    H159459   0.822   7.196   3.094 -0.1630  3.2387  2.7157
12656TIP3    H259460   0.749   7.141   3.215 -2.6271  1.3490  0.4852
12657TIP3   OH259461   0.483   6.612  15.014  0.2985 -0.0283 -0.3861
12657TIP3    H159462   0.482   6.582  14.923 -3.9979 -0.1938 -0.4590
12657TIP3    H259463   0.445   6.539  15.064  2.3027  0.1681  1.6232
12658TIP3   OH259464   4.143   2.816  10.673  0.0875  0.3413 -0.5177
12658TIP3    H159465   4.198   2.877  10.723 -0.3341  0.6171 -0.3800
12658TIP3    H259466   4.079   2.784  10.737  0.7841 -0.8660 -0.3916
12659TIP3   OH259467   3.792   1.545  13.677 -0.4458 -0.3069  0.1427
12659TIP3    H159468   3.841   1.504  13.605 -0.1204 -0.4842  0.4603
12659TIP3    H259469   3.700   1.537  13.651 -0.2759  1.4242 -1.2252
12660TIP3   OH259470   0.522   3.777  10.240  0.7911 -0.3099  0.8410
12660TIP3    H159471   0.469   3.763  10.162 -0.4800 -0.5153  1.7214
12660TIP3    H259472   0.459   3.788  10.311  1.8777  1.4211  1.6205
12661TIP3   OH259473   4.735   0.192   0.029  0.2306  0.8512  0.4871
12661TIP3    H159474   4.806   0.135   0.059  0.1216  0.4798  0.0457
12661TIP3    H259475   4.678   0.135  -0.022  0.9471  1.6629 -1.2962
12662TIP3   OH259476   3.358   3.167   3.336  0.1495 -0.2001 -0.0603
12662TIP3    H159477   3.375   3.189   3.428  0.8235 -3.0115  0.5853
12662TIP3    H259478   3.265   3.146   3.334  0.0993  0.0167 -0.0762
12663TIP3   OH259479   2.855   2.270   3.898 -0.3247 -0.1299 -0.3569
12663TIP3    H159480   2.818   2.187   3.927  2.3714 -1.2517  0.0898
12663TIP3    H259481   2.822   2.281   3.808 -1.9021 -0.8951  0.0975
12664TIP3   OH259482   2.187   7.010   1.199 -0.2911  0.5706  0.3257
12664TIP3    H159483   2.225   6.924   1.215 -1.6396 -0.3476 -1.1513
12664TIP3    H259484   2.227   7.038   1.116 -1.0378  0.6314 -0.0222
12665TIP3   OH259485   2.995   4.325  10.538  0.0228 -0.0477  0.1490
12665TIP3    H159486   3.063   4.295  10.476 -0.3758 -1.0603  0.1796
12665TIP3    H259487   3.036   4.398  10.585 -0.4599  2.4722 -2.9663
12666TIP3   OH259488   3.360   2.405   0.810 -0.0815 -0.0114  0.6021
12666TIP3    H159489   3.340   2.329   0.756  0.2652  0.4849 -0.2380
12666TIP3    H259490   3.429   2.374   0.869  2.7203  0.5568 -2.1085
12667TIP3   OH259491   3.758   5.430   3.717  0.3872 -0.5933  0.5772
12667TIP3    H159492   3.839   5.386   3.741  0.2653 -0.2507  1.6535
12667TIP3    H259493   3.708   5.364   3.668  1.8911 -0.3648 -1.3821
12668TIP3   OH259494   2.912   1.140   1.579 -0.7178  0.1680  0.1293
12668TIP3    H159495   2.872   1.202   1.518 -2.7663 -1.3594 -0.1846
12668TIP3    H259496   2.993   1.113   1.537 -2.1828 -1.0354 -2.1488
12669TIP3   OH259497   3.337   3.237   2.309 -0.2873 -0.1247  0.4042
12669TIP3    H159498   3.373   3.312   2.261  1.4513 -1.4851 -0.5771
12669TIP3    H259499   3.344   3.261   2.401  1.3782  0.4618  0.1580
12670TIP3   OH259500   2.970   4.190   2.322  0.3142  0.6943 -0.9998
12670TIP3    H159501   2.983   4.276   2.363  2.4023  0.0248 -0.1160
12670TIP3    H259502   2.958   4.130   2.395  1.9839 -0.2048 -1.4108
12671TIP3   OH259503   3.712   0.812   3.250  0.5139 -0.2872  0.5741
12671TIP3    H159504   3.695   0.783   3.160 -0.7315  1.0630  0.3284
12671TIP3    H259505   3.630   0.796   3.296  0.7668  0.1112  1.1714
12672TIP3   OH259506   0.855   5.867   1.932  0.5449  0.1102 -0.1182
12672TIP3    H159507   0.764   5.855   1.958 -0.0216  0.0500 -1.9487
12672TIP3    H259508   0.881   5.782   1.896  0.9762  0.4223 -0.5634
12673TIP3   OH259509   4.119   1.903   9.672 -0.2463 -0.4244 -0.3855
12673TIP3    H159510   4.167   1.820   9.676  2.2637  0.9325  3.4034
12673TIP3    H259511   4.065   1.904   9.750 -0.9910  1.1121 -0.8790
12674TIP3   OH259512   6.233   5.296   0.438  0.5980  0.0411 -0.0891
12674TIP3    H159513   6.166   5.353   0.400  0.3762 -0.8950 -1.1931
12674TIP3    H259514   6.199   5.273   0.524  1.0414  2.1100  0.6933
12675TIP3   OH259515   2.937   4.481   0.637  0.1538  0.1591  0.6952
12675TIP3    H159516   2.954   4.491   0.730 -1.0257 -1.5725  1.1411
12675TIP3    H259517   2.854   4.432   0.632  0.0539  0.4323 -1.2508
12676TIP3   OH259518   4.851   5.322   4.749 -0.0718  0.4808 -0.3719
12676TIP3    H159519   4.828   5.388   4.815 -0.4018 -0.0666  0.0695
12676TIP3    H259520   4.904   5.370   4.685 -1.2686  1.4481 -0.6710
12677TIP3   OH259521   7.104   0.231  10.341 -0.4671  0.5222  0.1457
12677TIP3    H159522   7.149   0.299  10.391 -0.1614  0.1836  0.3331
12677TIP3    H259523   7.017   0.267  10.325  0.4249  1.9878 -1.8472
12678TIP3   OH259524   7.077   4.261   2.519 -0.3073 -0.3808  0.1154
12678TIP3    H159525   7.055   4.346   2.559 -0.4532 -1.3703  2.3091
12678TIP3    H259526   7.169   4.269   2.495 -0.3294  0.4182  0.2527
12679TIP3   OH259527   0.999   2.272   4.008 -0.2436 -0.1111 -0.8124
12679TIP3    H159528   1.075   2.241   3.959  0.6870 -1.1880  1.2057
12679TIP3    H259529   1.017   2.364   4.026  1.0063 -0.5470  0.3160
12680TIP3   OH259530   6.522   3.301  13.328  0.2570 -0.3691 -0.3448
12680TIP3    H159531   6.449   3.309  13.390 -0.8456 -2.5934 -1.2184
12680TIP3    H259532   6.552   3.211  13.338  3.7324  0.7504  0.7702
12681TIP3   OH259533   6.238   6.850  10.403 -0.8836 -0.0967  0.5516
12681TIP3    H159534   6.309   6.787  10.394  0.4812  1.5274 -0.8345
12681TIP3    H259535   6.186   6.838  10.323 -0.3770  0.7504  0.0723
12682TIP3   OH259536   1.503   5.238  11.466  0.3149 -0.4137 -0.0567
12682TIP3    H159537   1.483   5.260  11.557  1.1071 -1.1824  0.3183
12682TIP3    H259538   1.420   5.208  11.429  0.4569 -2.5345  1.1594
12683TIP3   OH259539   1.060   3.664  12.111  0.0000  0.1101 -0.1777
12683TIP3    H159540   1.148   3.689  12.083 -0.2830 -0.1050 -1.3113
12683TIP3    H259541   1.048   3.708  12.195  0.8297  0.9165 -0.4700
12684TIP3   OH259542   1.425   4.602  11.986  0.2817  0.3387 -0.4226
12684TIP3    H159543   1.419   4.509  11.967 -0.6213  0.4267 -0.6170
12684TIP3    H259544   1.351   4.641  11.939  0.0355  1.0113  0.4904
12685TIP3   OH259545   4.464   4.134   1.277  0.2429  0.0429 -0.3134
12685TIP3    H159546   4.525   4.206   1.261 -2.1041  2.4134  0.4813
12685TIP3    H259547   4.464   4.124   1.373  1.0311 -1.5378 -0.4524
12686TIP3   OH259548   4.327   2.557   5.430  0.2250  0.4879 -0.0452
12686TIP3    H159549   4.318   2.503   5.508 -3.7128  0.6851 -0.1415
12686TIP3    H259550   4.348   2.496   5.360 -0.1881 -0.3169  0.5244
12687TIP3   OH259551   1.172   4.691   5.319  0.5246  0.2544 -0.0356
12687TIP3    H159552   1.160   4.628   5.391  2.0831  0.1618  0.1896
12687TIP3    H259553   1.084   4.709   5.287 -0.0744 -0.8721  0.9114
12688TIP3   OH259554   5.946   1.693   4.975  0.0358  0.1927  0.1816
12688TIP3    H159555   6.038   1.711   4.957  0.0596  0.6462  0.7615
12688TIP3    H259556   5.947   1.637   5.053 -0.2179  0.9012  0.6960
12689TIP3   OH259557   5.394   0.273  13.910 -0.4115 -0.4217  0.5123
12689TIP3    H159558   5.303   0.263  13.938 -0.2410 -0.4692  1.0619
12689TIP3    H259559   5.420   0.185  13.883 -0.0612 -0.7481  1.8273
12690TIP3   OH259560   0.933   3.006   0.978  0.0438  0.6192  0.0742
12690TIP3    H159561   0.943   2.912   0.989  0.8721  0.9253  2.4299
12690TIP3    H259562   0.888   3.035   1.057  1.4835  2.4450  0.2780
12691TIP3   OH259563   2.644   2.835   3.744 -0.1594  0.0933  0.3776
12691TIP3    H159564   2.707   2.793   3.685  0.1174 -0.7830  1.2834
12691TIP3    H259565   2.682   2.827   3.831 -0.8003  0.9380  0.7571
12692TIP3   OH259566   0.986   3.145   4.240 -0.3182  0.7160  0.3668
12692TIP3    H159567   1.000   3.105   4.155 -1.4292  1.6392 -0.2838
12692TIP3    H259568   1.062   3.202   4.253  0.5166 -0.4133  0.6274
12693TIP3   OH259569   7.100   3.347   4.154 -0.1695  0.1942 -0.1457
12693TIP3    H159570   7.155   3.326   4.078  0.6456 -0.1275  0.5121
12693TIP3    H259571   7.046   3.421   4.124 -0.7805 -0.7357 -1.4439
12694TIP3   OH259572   3.958   1.828   3.346 -0.3651 -0.5205 -0.1142
12694TIP3    H159573   4.027   1.875   3.394 -1.6419 -0.7918  2.1603
12694TIP3    H259574   4.004   1.756   3.303  1.1509  0.8965 -0.9819
12695TIP3   OH259575   6.358   1.595  15.144 -0.5576  0.6320  0.2706
12695TIP3    H159576   6.385   1.686  15.138  0.0002  0.5955  1.9126
12695TIP3    H259577   6.420   1.555  15.204 -1.1304 -0.7058  0.0079
12696TIP3   OH259578   2.525   3.968   5.116 -0.5614  0.0052 -0.2331
12696TIP3    H159579   2.471   3.960   5.195  1.4608 -0.3676  1.1880
12696TIP3    H259580   2.514   3.884   5.071 -1.4302  0.0760 -0.1804
12697TIP3   OH259581   1.102   3.338   0.539  0.6080 -0.8562 -0.2868
12697TIP3    H159582   1.042   3.270   0.568  0.6126 -0.9431 -0.4838
12697TIP3    H259583   1.103   3.331   0.444 -0.7497  0.5563 -0.4442
12698TIP3   OH259584   2.582   1.122  13.555 -0.5347  0.4366 -0.0705
12698TIP3    H159585   2.529   1.116  13.476  0.9660 -1.2124 -1.0574
12698TIP3    H259586   2.519   1.120  13.627 -1.8606 -1.9511 -1.1538
12699TIP3   OH259587   4.783   2.838  11.646 -0.5569 -0.5979 -0.4663
12699TIP3    H159588   4.802   2.761  11.699  0.4323  0.5421  0.9387
12699TIP3    H259589   4.730   2.894  11.703 -0.6283  0.0855 -1.1821
12700TIP3   OH259590   0.341   3.422   3.529 -0.0219 -0.2824  0.1960
12700TIP3    H159591   0.319   3.514   3.542  1.1791 -0.2368  2.4659
12700TIP3    H259592   0.257   3.379   3.512 -0.3085  1.6151 -4.5859
12701TIP3   OH259593   1.382   5.610  11.264  0.5929  0.2921 -0.1444
12701TIP3    H159594   1.348   5.530  11.303 -0.4308  0.7812 -0.0247
12701TIP3    H259595   1.464   5.583  11.222  0.2452 -0.8201 -0.1290
12702TIP3   OH259596   6.403   2.612  10.197  0.7325 -0.5956  0.4894
12702TIP3    H159597   6.441   2.633  10.112 -2.0663  0.6260 -0.6073
12702TIP3    H259598   6.467   2.556  10.240  3.1087  0.3555 -1.6099
12703TIP3   OH259599   4.759   7.092   3.485 -0.4426  0.3911 -0.0664
12703TIP3    H159600   4.828   7.082   3.551 -0.1201  1.2553 -0.2591
12703TIP3    H259601   4.678   7.101   3.536 -0.1984  1.0242  0.2211
12704TIP3   OH259602   7.022   6.193   2.387 -0.0233  0.1298 -0.0029
12704TIP3    H159603   7.059   6.139   2.457  1.1750 -0.7766 -1.2821
12704TIP3    H259604   6.927   6.185   2.398  0.1154  1.0258  2.2518
12705TIP3   OH259605   1.462   0.836   2.631  0.4125  0.0101  0.2463
12705TIP3    H159606   1.481   0.790   2.713  1.7026  0.7920  0.4106
12705TIP3    H259607   1.536   0.895   2.619  0.0222  0.2309 -1.2652
12706TIP3   OH259608   3.179   3.599  14.724  0.2440 -0.0601 -0.7058
12706TIP3    H159609   3.175   3.634  14.635 -2.5816  0.9250 -0.2856
12706TIP3    H259610   3.122   3.657  14.775  1.2389 -1.0118  1.6142
12707TIP3   OH259611   3.576   0.257   1.917  0.6375  0.7417 -0.5561
12707TIP3    H159612   3.538   0.203   1.848  0.8244 -0.1969  0.0501
12707TIP3    H259613   3.514   0.330   1.928 -0.1004  0.1587 -0.7623
12708TIP3   OH259614   0.188   2.652  11.562  0.7173  0.1174  0.2032
12708TIP3    H159615   0.204   2.559  11.575 -0.5025 -0.2614 -0.8168
12708TIP3    H259616   0.212   2.692  11.646  1.0573 -1.1317  0.7274
12709TIP3   OH259617   4.519   3.365  13.753 -0.3669 -0.2435  0.4344
12709TIP3    H159618   4.469   3.428  13.703  0.2521 -0.1143 -0.0425
12709TIP3    H259619   4.610   3.396  13.747 -0.1188 -0.9109  0.5787
12710TIP3   OH259620   6.768   4.705  13.056  0.4177 -0.1472 -0.1718
12710TIP3    H159621   6.705   4.713  12.985  0.9909  0.0735 -0.6629
12710TIP3    H259622   6.847   4.750  13.025  0.8042 -0.3671  0.4492
12711TIP3   OH259623   0.457   1.801  12.010 -0.0763  0.5971  0.0189
12711TIP3    H159624   0.497   1.813  12.096  0.0480 -0.0165  0.0508
12711TIP3    H259625   0.364   1.820  12.023  0.2115  2.1974 -0.0921
12712TIP3   OH259626   1.637   3.392   2.722  0.3114 -0.4304  0.4669
12712TIP3    H159627   1.654   3.374   2.629 -0.3968 -0.1170  0.2700
12712TIP3    H259628   1.714   3.359   2.767  1.2134  0.5114 -0.3386
12713TIP3   OH259629   3.780   5.211   4.371  0.1816 -0.0312 -0.3887
12713TIP3    H159630   3.832   5.290   4.361  0.4141 -0.3499 -1.9173
12713TIP3    H259631   3.746   5.216   4.460  0.7779  1.4195 -0.2153
12714TIP3   OH259632   2.135   4.153   4.700  0.4302 -0.1300 -0.6573
12714TIP3    H159633   2.184   4.207   4.763 -0.2257 -0.5964  0.2753
12714TIP3    H259634   2.184   4.070   4.697 -1.2869 -1.3546  1.7902
12715TIP3   OH259635   4.763   2.050   4.622 -0.2942 -0.0269 -0.2459
12715TIP3    H159636   4.702   1.976   4.611  1.7581 -1.7534 -0.6311
12715TIP3    H259637   4.830   2.035   4.556  0.7087  1.6576  0.3475
12716TIP3   OH259638   4.769   0.605  14.701  0.3204 -0.2696 -0.1485
12716TIP3    H159639   4.839   0.557  14.745  0.2243 -0.2801 -0.0092
12716TIP3    H259640   4.744   0.548  14.628  1.6495  0.4946 -1.2597
12717TIP3   OH259641   2.304   4.046  11.032 -0.0222 -0.0740 -0.8132
12717TIP3    H159642   2.344   4.051  10.945  1.2630  1.0164 -0.2024
12717TIP3    H259643   2.376   4.066  11.092 -0.8085 -1.1329  0.5355
12718TIP3   OH259644   4.106   2.577   1.811  0.1184 -0.6106  0.0734
12718TIP3    H159645   4.141   2.548   1.896  0.2327 -0.5546  0.0457
12718TIP3    H259646   4.160   2.532   1.746  0.4684 -0.1375  0.0296
12719TIP3   OH259647   2.673   2.500   1.126 -0.0785 -0.4685 -0.6133
12719TIP3    H159648   2.658   2.583   1.171  1.7244 -0.7198  0.5795
12719TIP3    H259649   2.673   2.522   1.033 -2.8628  0.2551 -0.5259
12720TIP3   OH259650   2.613   5.016   4.495 -0.2100 -0.7850 -0.4410
12720TIP3    H159651   2.657   5.053   4.571 -1.0330  0.7686 -0.6858
12720TIP3    H259652   2.520   5.025   4.513 -0.4326  0.4975 -2.0183
12721TIP3   OH259653   1.200   5.942   5.223  0.4088 -0.2955 -0.1403
12721TIP3    H159654   1.152   5.955   5.141  0.0823  1.9768  0.3422
12721TIP3    H259655   1.291   5.958   5.200  0.3019  0.4840 -0.0799
12722TIP3   OH259656   1.396   4.910   0.273 -0.5992 -0.3365  0.1673
12722TIP3    H159657   1.490   4.889   0.277 -0.7297 -0.8013  3.5702
12722TIP3    H259658   1.357   4.832   0.234  0.2046 -1.3608  1.3149
12723TIP3   OH259659   3.424   6.075   4.381  0.5193 -0.6449 -0.0147
12723TIP3    H159660   3.413   6.108   4.292 -0.5842 -1.4252 -0.1851
12723TIP3    H259661   3.484   6.137   4.422  0.5806  0.0572 -1.1235
12724TIP3   OH259662   1.947   2.108   0.805 -0.1389  0.0293  0.4016
12724TIP3    H159663   1.896   2.070   0.877 -0.4949 -1.1316 -0.4430
12724TIP3    H259664   2.002   2.037   0.774  2.1811  1.3028  1.3865
12725TIP3   OH259665   6.006   5.713  13.201  0.0709 -0.0435  0.2957
12725TIP3    H159666   5.956   5.790  13.175 -0.4576 -0.0907  1.1330
12725TIP3    H259667   5.940   5.645  13.215  0.2922  0.0248  1.8631
12726TIP3   OH259668   1.422   2.251   4.410  0.3260  0.2181 -0.5781
12726TIP3    H159669   1.511   2.280   4.432 -0.0776  0.5756  0.6925
12726TIP3    H259670   1.390   2.316   4.348  0.0832  1.5491  0.8682
12727TIP3   OH259671   5.461   6.340   1.002  0.3326  0.1125 -0.0158
12727TIP3    H159672   5.420   6.426   1.011  0.2763 -0.0302  1.3077
12727TIP3    H259673   5.553   6.355   1.023  0.0598 -0.3682  1.7751
12728TIP3   OH259674   5.878   1.496   4.540 -0.0739  0.0056  0.6156
12728TIP3    H159675   5.803   1.538   4.582 -0.4788 -1.1283  1.0678
12728TIP3    H259676   5.941   1.482   4.611  0.7178  1.2212  0.1887
12729TIP3   OH259677   6.910   3.727   2.381  0.2222 -0.1258  0.0724
12729TIP3    H159678   6.889   3.818   2.361  0.3881  0.2355  1.4909
12729TIP3    H259679   6.992   3.711   2.336  1.4210  1.1574  1.6898
12730TIP3   OH259680   4.907   4.800   0.690  0.1213 -0.5695 -0.3982
12730TIP3    H159681   4.895   4.894   0.683 -1.2688 -0.7789 -1.2430
12730TIP3    H259682   4.818   4.764   0.684  0.7938 -2.0698 -2.7495
12731TIP3   OH259683   2.276   6.464  11.470 -0.1379  0.5705  0.3368
12731TIP3    H159684   2.348   6.485  11.529  2.8280  1.0764 -3.0920
12731TIP3    H259685   2.231   6.547  11.455  1.0034  1.0962 -0.3300
12732TIP3   OH259686   5.369   0.972   2.413 -0.2816  0.1226 -0.0669
12732TIP3    H159687   5.304   1.034   2.381 -3.3821 -3.0016 -0.4838
12732TIP3    H259688   5.343   0.955   2.504 -0.0008 -1.0561 -0.1836
12733TIP3   OH259689   4.767   1.362   1.389  0.3878  0.4223 -0.1003
12733TIP3    H159690   4.672   1.350   1.392  0.3518  0.8870  1.4048
12733TIP3    H259691   4.782   1.419   1.314 -0.5979  0.8826  0.0393
12734TIP3   OH259692   1.697   4.654  12.327  0.0717  0.6999  0.3398
12734TIP3    H159693   1.613   4.661  12.373 -1.2922 -1.2343 -1.6498
12734TIP3    H259694   1.738   4.576  12.364 -0.4663 -0.1441 -0.7871
12735TIP3   OH259695   2.817   0.960   1.316  0.1320 -0.1862 -0.4112
12735TIP3    H159696   2.894   0.944   1.371 -0.1405  1.6965  0.6250
12735TIP3    H259697   2.796   0.875   1.278  3.5239 -0.5309 -1.8438
12736TIP3   OH259698   5.628   6.852  15.687 -0.4542  0.3241  0.4051
12736TIP3    H159699   5.578   6.773  15.709 -1.8213  0.3745 -2.0788
12736TIP3    H259700   5.705   6.820  15.640 -1.6381  0.3731 -1.7427
12737TIP3   OH259701   3.501   4.881  12.859  0.0699  0.3056  0.0199
12737TIP3    H159702   3.586   4.855  12.893  0.4803  2.3412  0.7315
12737TIP3    H259703   3.441   4.872  12.933 -0.4644 -1.5185 -0.5922
12738TIP3   OH259704   2.381   2.004   3.527 -0.0705 -0.3371  0.0666
12738TIP3    H159705   2.315   2.068   3.502  1.8544  2.0088  0.6447
12738TIP3    H259706   2.462   2.035   3.486  1.3672 -1.2025  2.0780
12739TIP3   OH259707   0.355   6.382   9.575 -0.5326  0.2125  0.2420
12739TIP3    H159708   0.443   6.406   9.545 -0.1549 -0.0519  1.1301
12739TIP3    H259709   0.313   6.466   9.593 -0.7593  0.3830 -0.9563
12740TIP3   OH259710   6.263   5.109  12.259 -0.5523  0.0739  0.6072
12740TIP3    H159711   6.329   5.106  12.190  1.1058 -1.6754  2.1315
12740TIP3    H259712   6.180   5.094  12.214 -0.1396  3.2135 -1.4911
12741TIP3   OH259713   3.775   7.159  14.384 -0.4789 -0.5514 -0.0565
12741TIP3    H159714   3.711   7.214  14.338 -0.6889 -0.2952  0.5440
12741TIP3    H259715   3.808   7.100  14.316 -1.3339 -0.6720 -0.3820
12742TIP3   OH259716   0.543   2.871   0.376 -0.0615  0.1884  0.8092
12742TIP3    H159717   0.611   2.922   0.419  0.0625  0.5826  0.1747
12742TIP3    H259718   0.590   2.803   0.329 -0.1807 -0.1317  1.1542
12743TIP3   OH259719   6.117   4.335   4.795  0.5625  0.7170 -0.5621
12743TIP3    H159720   6.065   4.366   4.868  0.6287 -0.0145 -0.1936
12743TIP3    H259721   6.087   4.386   4.720 -0.0336  0.9388 -0.1752
12744TIP3   OH259722   2.667   5.600   3.443  0.1110 -0.1486 -0.5053
12744TIP3    H159723   2.688   5.560   3.359  0.1375 -0.4759 -0.3463
12744TIP3    H259724   2.680   5.694   3.430 -0.8300 -0.0986 -1.1522
12745TIP3   OH259725   0.339   2.380   3.191  0.0408  0.2103  0.3314
12745TIP3    H159726   0.406   2.312   3.199  1.8089  2.0033  2.4974
12745TIP3    H259727   0.264   2.346   3.240  0.7834 -0.3418  1.1200
12746TIP3   OH259728   0.422   3.461  14.070 -0.2536  0.5665 -0.2586
12746TIP3    H159729   0.490   3.516  14.108  1.0971 -0.5169 -0.9962
12746TIP3    H259730   0.374   3.519  14.011 -0.4020  1.5001  0.7497
12747TIP3   OH259731   6.237   3.589  10.108  0.7799  0.1911  0.1096
12747TIP3    H159732   6.245   3.493  10.115  1.4104  0.3520  2.6843
12747TIP3    H259733   6.279   3.610  10.025  0.6425 -1.7758 -0.5065
12748TIP3   OH259734   5.068   2.641   5.250 -0.8318  0.6509  0.4603
12748TIP3    H159735   5.081   2.714   5.312 -1.9823  1.3205 -0.0574
12748TIP3    H259736   5.117   2.568   5.289 -0.7079  1.3315  1.6453
12749TIP3   OH259737   2.811   5.984   0.100 -0.0001 -0.1226 -0.3279
12749TIP3    H159738   2.815   5.901   0.149  0.2878 -0.2459 -0.5625
12749TIP3    H259739   2.791   6.050   0.167 -2.5847 -0.6691 -0.4379
12750TIP3   OH259740   5.408   2.633  10.582  0.2290  0.6373 -0.2442
12750TIP3    H159741   5.413   2.538  10.578  3.2358  0.7436 -1.3181
12750TIP3    H259742   5.395   2.653  10.674  1.8990 -0.8021  0.3510
12751TIP3   OH259743   6.246   6.531  11.929 -0.5771 -0.0339 -0.1648
12751TIP3    H159744   6.280   6.613  11.893 -1.0990  0.5057  0.5555
12751TIP3    H259745   6.171   6.510  11.874  0.0945 -0.5133 -0.9137
12752TIP3   OH259746   1.163   4.299   4.039 -0.8092 -0.3298 -0.3029
12752TIP3    H159747   1.128   4.219   4.000  0.0747 -0.0819 -1.6869
12752TIP3    H259748   1.207   4.269   4.119  0.1527 -1.3651 -1.1762
12753TIP3   OH259749   5.862   4.592   5.664  0.2179  0.0964 -0.0291
12753TIP3    H159750   5.937   4.591   5.724 -0.5836  0.9090  1.0286
12753TIP3    H259751   5.796   4.538   5.707 -0.0276 -0.0916 -0.6378
12754TIP3   OH259752   3.488   2.005   2.010  0.1429 -0.6053 -0.4880
12754TIP3    H159753   3.451   2.092   2.023  0.9142 -0.3431  0.1152
12754TIP3    H259754   3.435   1.964   1.942 -1.5528 -0.4498  0.7011
12755TIP3   OH259755   2.144   3.970  13.965 -0.5066  0.2054  0.0060
12755TIP3    H159756   2.154   4.024  13.887  0.7285  1.5582  1.0465
12755TIP3    H259757   2.208   4.005  14.028 -1.3232 -0.9495  1.5705
12756TIP3   OH259758   6.766   5.291  10.801 -0.2351  0.4914 -0.0309
12756TIP3    H159759   6.709   5.255  10.869 -1.5359  0.3861 -1.1275
12756TIP3    H259760   6.824   5.351  10.848 -0.1807 -0.5954  1.3533
12757TIP3   OH259761   5.920   4.832   4.881 -0.4068 -0.0297 -0.2903
12757TIP3    H159762   5.873   4.834   4.964 -0.0782  1.4951 -0.1160
12757TIP3    H259763   6.011   4.811   4.904 -0.3963  0.0050 -0.2977
12758TIP3   OH259764   5.339   3.245   1.041  0.4827  0.2312 -0.1857
12758TIP3    H159765   5.320   3.338   1.039 -0.0085  0.1598  0.7601
12758TIP3    H259766   5.335   3.218   0.949 -1.6336  0.7117 -0.2836
12759TIP3   OH259767   2.805   1.697  13.045  0.1014  0.1857 -0.2104
12759TIP3    H159768   2.771   1.744  12.969  0.3659 -1.1930 -1.2034
12759TIP3    H259769   2.899   1.694  13.031 -0.0092 -1.5522 -0.7074
12760TIP3   OH259770   2.131   3.128   0.279  0.0949 -0.0965 -0.1006
12760TIP3    H159771   2.081   3.143   0.198  0.9846 -1.0511 -0.8546
12760TIP3    H259772   2.073   3.074   0.333  0.8077 -2.6176 -1.6354
12761TIP3   OH259773   6.711   5.527   1.375 -0.8142  0.2030 -0.4826
12761TIP3    H159774   6.728   5.550   1.283 -1.9834  0.8628 -0.5447
12761TIP3    H259775   6.632   5.473   1.372 -0.7764  0.1037  0.1324
12762TIP3   OH259776   5.363   3.266   3.998  0.2629 -0.1396  0.3292
12762TIP3    H159777   5.374   3.213   4.077  0.4442 -0.3593  0.1559
12762TIP3    H259778   5.428   3.336   4.007 -0.1124  0.1763  0.6557
12763TIP3   OH259779   0.951   1.910   4.077  0.7957  0.6049  0.5283
12763TIP3    H159780   0.959   1.821   4.112 -1.1084  1.1151  2.4756
12763TIP3    H259781   0.932   1.898   3.984  0.3215 -1.0404  0.8033
12764TIP3   OH259782   4.230   6.881  10.994 -0.1039  0.1886  0.2121
12764TIP3    H159783   4.194   6.922  11.072  0.7032  2.2386 -0.4353
12764TIP3    H259784   4.324   6.897  10.999  0.3850 -2.2606  0.2605
12765TIP3   OH259785   1.278   4.196  10.608 -0.0753  0.2731  0.0471
12765TIP3    H159786   1.303   4.274  10.560 -1.6860  1.0511  0.4063
12765TIP3    H259787   1.244   4.228  10.691 -1.4389 -0.7476 -0.0837
12766TIP3   OH259788   3.490   1.483  13.915  0.4405  0.1659  0.3147
12766TIP3    H159789   3.511   1.416  13.980 -0.4414  1.1464  1.6799
12766TIP3    H259790   3.502   1.440  13.830  2.2312 -0.9799  1.0948
12767TIP3   OH259791   3.985   5.603   0.119  0.2954  0.0042 -0.1047
12767TIP3    H159792   4.038   5.600   0.199 -1.4296 -0.9065  1.0550
12767TIP3    H259793   3.895   5.600   0.149 -0.4230 -2.8040 -2.1215
12768TIP3   OH259794   2.844   0.076   2.038 -0.6971 -0.3080 -0.5082
12768TIP3    H159795   2.802  -0.008   2.019 -0.6535 -0.3352 -0.4874
12768TIP3    H259796   2.776   0.128   2.082 -0.4341 -0.6989  0.4016
12769TIP3   OH259797   2.052   4.340  14.250 -0.1881 -0.1860 -0.3649
12769TIP3    H159798   2.017   4.384  14.172 -2.4141 -0.4576  0.4150
12769TIP3    H259799   1.996   4.264  14.263  0.8415 -0.7803  0.8861
12770TIP3   OH259800   1.854   6.928   2.752  0.2269  0.1334 -0.1323
12770TIP3    H159801   1.837   6.995   2.818  1.3058 -0.2819  0.5931
12770TIP3    H259802   1.949   6.927   2.742  0.0961  0.1472 -1.6731
12771TIP3   OH259803   5.048   5.286  14.242  0.3256 -0.0726 -0.5550
12771TIP3    H159804   4.993   5.258  14.169 -1.6169 -0.0813  0.8342
12771TIP3    H259805   5.075   5.205  14.284 -0.4237 -0.0450  0.0119
12772TIP3   OH259806   5.390   6.150   1.358 -0.0999  0.6481  0.6207
12772TIP3    H159807   5.297   6.131   1.353  0.4810 -2.4823 -0.9872
12772TIP3    H259808   5.407   6.210   1.285 -0.2879 -2.3017 -2.0547
12773TIP3   OH259809   1.657   2.440  13.453 -0.2776  0.3624  0.0538
12773TIP3    H159810   1.645   2.419  13.360  0.9145  0.4513 -0.1422
12773TIP3    H259811   1.570   2.434  13.491 -1.0517  1.7720 -1.3763
12774TIP3   OH259812   4.181   0.982   3.815  0.4585  0.2015  0.3012
12774TIP3    H159813   4.112   0.983   3.881  0.8873  0.1142  0.7576
12774TIP3    H259814   4.220   1.070   3.820 -0.2536  0.5946 -0.6469
12775TIP3   OH259815   6.102   4.716   3.790 -0.1079  0.1344  0.1127
12775TIP3    H159816   6.146   4.680   3.712 -1.1462  0.0314 -0.4431
12775TIP3    H259817   6.170   4.717   3.857  0.7713  0.0685 -0.7471
12776TIP3   OH259818   2.676   2.525  12.453  0.1668  0.1605  0.7142
12776TIP3    H159819   2.764   2.558  12.470  0.4201 -1.0296  1.9286
12776TIP3    H259820   2.688   2.460  12.384  0.5948 -1.4024  2.1979
12777TIP3   OH259821   3.189   0.847  10.671  0.5281  0.1952  0.3410
12777TIP3    H159822   3.273   0.815  10.705  0.4599 -0.4688 -0.1033
12777TIP3    H259823   3.191   0.825  10.578 -0.4812 -0.5564  0.4824
12778TIP3   OH259824   1.325   5.994  13.110 -0.5489  0.0421  0.2011
12778TIP3    H159825   1.293   6.043  13.035 -0.4148 -1.4579 -0.8754
12778TIP3    H259826   1.324   6.057  13.182 -0.9930  1.4233 -0.9698
12779TIP3   OH259827   5.043   1.727  14.791  0.3221  0.2303  0.4319
12779TIP3    H159828   5.008   1.784  14.723 -0.2101  0.2444  0.7162
12779TIP3    H259829   5.105   1.781  14.839 -0.7455  0.8130  1.1860
12780TIP3   OH259830   4.347   5.008   3.010 -0.3942  0.0007  0.0578
12780TIP3    H159831   4.324   4.952   2.935  0.4233 -1.0287  0.5595
12780TIP3    H259832   4.383   5.088   2.970 -1.2840  0.0660 -0.6569
12781TIP3   OH259833   6.978   5.879  15.164 -0.2780 -0.1417 -0.3814
12781TIP3    H159834   7.071   5.867  15.145 -0.0856  0.5408  0.0682
12781TIP3    H259835   6.933   5.815  15.108  0.4915 -0.8853 -0.1753
12782TIP3   OH259836   2.396   1.649   4.727  0.3580 -0.6254 -0.7488
12782TIP3    H159837   2.396   1.692   4.642  3.0003  0.3807 -0.3349
12782TIP3    H259838   2.312   1.674   4.767  0.6589  2.0170 -1.5748
12783TIP3   OH259839   2.919   1.312   0.332 -0.4101 -0.7374  0.0932
12783TIP3    H159840   2.980   1.291   0.261  0.1304  0.8477  0.0501
12783TIP3    H259841   2.895   1.227   0.369  1.4515 -1.4454 -0.2084
12784TIP3   OH259842   5.458   6.377  10.466  0.4252 -0.4322 -0.4657
12784TIP3    H159843   5.363   6.382  10.458  0.4982  1.1352 -0.7026
12784TIP3    H259844   5.490   6.386  10.376  0.8212  0.5322 -0.2407
12785TIP3   OH259845   1.424   5.055   9.999  0.0216 -0.1764 -0.3046
12785TIP3    H159846   1.384   4.979   9.958 -0.7055  1.0907 -2.0527
12785TIP3    H259847   1.492   5.082   9.938 -0.0897  0.8946  0.0267
12786TIP3   OH259848   1.260   2.780  14.863  0.8265 -0.5976  0.4311
12786TIP3    H159849   1.267   2.843  14.792  0.3146 -0.5448  0.4281
12786TIP3    H259850   1.170   2.786  14.893  0.9967 -0.7356  0.9824
12787TIP3   OH259851   4.002   0.373  13.278  0.7862 -0.4842 -0.5852
12787TIP3    H159852   4.044   0.388  13.193  0.5784  4.2428 -0.1589
12787TIP3    H259853   3.908   0.372  13.259  0.7858 -0.9375 -0.5596
12788TIP3   OH259854   4.267   1.864   2.676 -0.2153  0.0781 -0.3103
12788TIP3    H159855   4.258   1.782   2.724 -0.1741  0.9650  1.2919
12788TIP3    H259856   4.310   1.924   2.738  0.2671  1.1553 -1.6172
12789TIP3   OH259857   4.824   4.211  11.484 -0.4637 -0.4623  0.2113
12789TIP3    H159858   4.789   4.148  11.548  0.3725 -0.9637  0.1896
12789TIP3    H259859   4.877   4.271  11.537  1.1387 -1.5327 -0.1178
12790TIP3   OH259860   3.690   2.890   2.269 -0.6041  0.9864 -0.3498
12790TIP3    H159861   3.626   2.938   2.322  0.2565  1.3362  0.4093
12790TIP3    H259862   3.714   2.815   2.324 -0.0175  1.1172 -0.4265
12791TIP3   OH259863   5.948   3.385  13.420  0.2981  0.1908 -0.0415
12791TIP3    H159864   5.981   3.295  13.421 -1.8190 -0.6431 -0.8913
12791TIP3    H259865   5.955   3.412  13.328 -0.0462  0.5128  0.0257
12792TIP3   OH259866   1.877   2.892   2.189 -0.1576 -0.2156 -0.7039
12792TIP3    H159867   1.856   2.934   2.272 -0.0817 -0.1448 -0.7204
12792TIP3    H259868   1.845   2.953   2.123  3.7943  2.0303 -0.8671
12793TIP3   OH259869   5.385   2.791   2.181  0.0320 -0.3492  0.1265
12793TIP3    H159870   5.395   2.835   2.265  2.3055  1.7123 -1.0934
12793TIP3    H259871   5.372   2.699   2.203  0.8890  0.0830  2.7253
12794TIP3   OH259872   3.988   0.086   4.164 -0.2416  0.0787 -0.6821
12794TIP3    H159873   4.079   0.099   4.191 -0.3605  1.4107 -0.8948
12794TIP3    H259874   3.979   0.136   4.083 -1.1731 -0.0331 -0.6607
12795TIP3   OH259875   2.351   1.249   3.509 -0.1191  0.1284  0.3662
12795TIP3    H159876   2.401   1.308   3.452  2.7099 -1.0468  1.4018
12795TIP3    H259877   2.401   1.247   3.590 -2.4510 -0.4879  1.8814
12796TIP3   OH259878   4.220   3.660   4.896  0.0562 -0.1089 -0.0252
12796TIP3    H159879   4.183   3.640   4.981  0.0476 -0.9873 -0.2266
12796TIP3    H259880   4.163   3.727   4.859 -1.2579 -1.3101 -0.2600
12797TIP3   OH259881   2.587   4.848  13.359  0.1309 -0.1783  0.2552
12797TIP3    H159882   2.568   4.758  13.334  1.7666 -0.8737  1.3574
12797TIP3    H259883   2.680   4.859  13.339 -0.2155  1.5544 -0.6144
12798TIP3   OH259884   5.585   5.773   9.986 -0.1040  0.2610 -0.0981
12798TIP3    H159885   5.523   5.718   9.938  0.7770 -0.2000 -0.7415
12798TIP3    H259886   5.540   5.856   9.997 -0.1451  0.5863 -2.2612
12799TIP3   OH259887   5.250   0.174   2.243  0.0716 -0.0024  0.2892
12799TIP3    H159888   5.331   0.131   2.273  0.2223  0.4369  0.5251
12799TIP3    H259889   5.280   0.239   2.179  0.0914  1.2556  1.5126
12800TIP3   OH259890   0.756   6.201   4.818  0.2867  0.0662  0.0877
12800TIP3    H159891   0.753   6.158   4.904  1.0752  0.4472  0.3118
12800TIP3    H259892   0.711   6.140   4.759 -1.6219  0.4787  1.0544
12801TIP3   OH259893   1.286   6.487  11.629  0.5439  0.3370  0.0134
12801TIP3    H159894   1.295   6.392  11.640 -0.8330  0.2094  0.1921
12801TIP3    H259895   1.263   6.499  11.537  1.7102  0.5948 -0.2633
12802TIP3   OH259896   2.302   4.336  11.101 -0.0818 -0.5050 -0.0719
12802TIP3    H159897   2.318   4.290  11.018  0.0550 -0.7576  0.0908
12802TIP3    H259898   2.311   4.268  11.167  3.4932  0.2906  0.4864
12803TIP3   OH259899   1.229   2.203  10.172 -0.3378 -0.1093  0.0126
12803TIP3    H159900   1.312   2.250  10.183  0.1526 -0.8479 -0.4397
12803TIP3    H259901   1.227   2.180  10.080 -0.1222 -1.7517  0.3849
12804TIP3   OH259902   0.030   4.708   5.252  0.2142  0.0764  0.0270
12804TIP3    H159903  -0.052   4.662   5.270  0.5973 -0.4340  0.5011
12804TIP3    H259904   0.049   4.755   5.334 -1.0106  2.4528 -0.9305
12805TIP3   OH259905   6.157   4.929  10.440  0.4516 -0.4388 -0.0105
12805TIP3    H159906   6.183   4.971  10.358  1.8245  1.9224  1.5128
12805TIP3    H259907   6.188   4.839  10.432  2.5280  0.3209 -1.2531
12806TIP3   OH259908   3.375   4.867   1.618 -0.1563 -0.0616  0.1136
12806TIP3    H159909   3.448   4.904   1.568  0.7839  1.1756  2.2600
12806TIP3    H259910   3.302   4.927   1.603  0.5937  1.2353  1.4495
12807TIP3   OH259911   6.118   0.487  14.462 -0.0071  0.4985 -0.6480
12807TIP3    H159912   6.174   0.554  14.501 -1.0039  0.4405  0.9569
12807TIP3    H259913   6.175   0.410  14.456 -0.0100  0.2562  1.5603
12808TIP3   OH259914   3.070   2.347   2.635  0.5536 -0.5703  0.7316
12808TIP3    H159915   3.136   2.380   2.574  1.2342 -0.1732  1.6621
12808TIP3    H259916   3.120   2.316   2.710 -0.2158 -1.8705  0.7415
12809TIP3   OH259917   0.218   6.857  10.378  0.2590 -0.2232  0.3212
12809TIP3    H159918   0.302   6.818  10.401  1.4702  1.8234 -0.3405
12809TIP3    H259919   0.178   6.794  10.319  1.8678 -0.7433 -0.2846
12810TIP3   OH259920   6.409   5.308  14.580  0.2166 -0.3855 -0.0840
12810TIP3    H159921   6.344   5.312  14.509  1.1678 -2.6064 -1.1669
12810TIP3    H259922   6.448   5.221  14.571  1.5522 -0.0672  2.1516
12811TIP3   OH259923   1.354   6.424  14.739 -0.0428 -0.0234 -0.2304
12811TIP3    H159924   1.428   6.391  14.688 -0.3931 -0.4608 -0.4655
12811TIP3    H259925   1.383   6.420  14.830  0.4903  0.5122 -0.3663
12812TIP3   OH259926   0.070   3.402   0.253 -0.3076 -0.3922  0.2569
12812TIP3    H159927   0.018   3.332   0.212 -2.0588  0.2392  1.2841
12812TIP3    H259928   0.041   3.481   0.208 -0.8279  0.0621  1.3581
12813TIP3   OH259929   0.556   1.190  15.201 -0.5159  0.3242 -0.5480
12813TIP3    H159930   0.513   1.141  15.131 -0.6431 -0.6159  0.1759
12813TIP3    H259931   0.499   1.180  15.276  1.2108 -1.4765  0.6149
12814TIP3   OH259932   6.376   1.852   9.683  0.9922 -0.0756  0.0654
12814TIP3    H159933   6.376   1.911   9.608 -1.4930 -1.3574 -1.0637
12814TIP3    H259934   6.438   1.783   9.659  1.4843  0.3878 -0.0215
12815TIP3   OH259935   1.318   2.315   4.813  0.2174  0.8170 -0.1510
12815TIP3    H159936   1.321   2.399   4.767  0.2252  0.4112 -0.9216
12815TIP3    H259937   1.395   2.316   4.869  0.9586  0.7938 -1.1385
12816TIP3   OH259938   0.171   3.104   1.735  0.0445 -0.3932  0.3293
12816TIP3    H159939   0.144   3.090   1.826  0.0372 -1.2373  0.1996
12816TIP3    H259940   0.249   3.049   1.724  0.8084  0.6731  0.1894
12817TIP3   OH259941   5.506   0.554   1.424 -0.6204 -0.1028 -0.0576
12817TIP3    H159942   5.599   0.575   1.437 -0.9036  0.3715  1.3713
12817TIP3    H259943   5.503   0.459   1.421 -0.0844 -0.1228 -0.1892
12818TIP3   OH259944   2.717   2.241  15.321 -0.1169  0.0721 -0.1644
12818TIP3    H159945   2.762   2.254  15.238  0.2397 -1.1117 -0.1849
12818TIP3    H259946   2.624   2.247  15.299 -0.0216  2.6797 -0.0928
12819TIP3   OH259947   4.060   6.661  11.452  0.1934  0.4601 -0.5743
12819TIP3    H159948   4.069   6.636  11.360 -1.0584 -0.4561 -0.4690
12819TIP3    H259949   3.969   6.687  11.461  0.7415  2.2762  0.0272
12820TIP3   OH259950   1.641   6.651   1.327 -0.3791  0.0058 -0.3578
12820TIP3    H159951   1.588   6.729   1.311 -1.0748 -0.2048  0.7773
12820TIP3    H259952   1.706   6.679   1.391 -0.0999 -0.1367 -0.5787
12821TIP3   OH259953   4.623   5.573  10.209 -0.4970 -0.3546  0.1429
12821TIP3    H159954   4.540   5.525  10.205 -1.2065  0.1366  4.5760
12821TIP3    H259955   4.686   5.510  10.243 -0.2443  0.5262  1.3337
12822TIP3   OH259956   1.225   2.718   2.130  0.1896  0.0842 -0.2623
12822TIP3    H159957   1.177   2.728   2.212  2.5392  0.2421  1.1827
12822TIP3    H259958   1.242   2.808   2.102  1.0343  0.0534  0.1258
12823TIP3   OH259959   4.756   0.234   4.614  0.0031 -0.3134  0.4517
12823TIP3    H159960   4.844   0.265   4.595 -0.4253  0.8350  0.2382
12823TIP3    H259961   4.727   0.191   4.534  0.4986 -1.0448  0.6533
12824TIP3   OH259962   0.564   1.831   4.671 -0.8444 -0.0886  0.5315
12824TIP3    H159963   0.561   1.795   4.583  0.3604  1.8487 -0.3443
12824TIP3    H259964   0.651   1.809   4.703 -1.1482 -0.4700  1.1261
12825TIP3   OH259965   6.464   1.063  15.664 -0.0932  0.3458  0.1931
12825TIP3    H159966   6.481   1.115  15.743 -1.6677  0.6864  0.3527
12825TIP3    H259967   6.385   1.014  15.685 -0.5258  0.4233 -1.1663
12826TIP3   OH259968   5.882   0.130  15.387 -0.3190 -0.3843 -0.5079
12826TIP3    H159969   5.796   0.118  15.346 -0.2163 -0.3355 -0.7404
12826TIP3    H259970   5.919   0.206  15.342 -1.5334  1.7755  1.8749
12827TIP3   OH259971   6.173   4.251  12.119  0.7409  0.3325  0.3605
12827TIP3    H159972   6.120   4.309  12.065  1.5188  0.3239 -0.4538
12827TIP3    H259973   6.122   4.237  12.198  0.3205  1.7089  0.3485
12828TIP3   OH259974   3.516   3.359   5.209 -0.5613  0.0522 -0.2007
12828TIP3    H159975   3.471   3.363   5.124 -0.7184 -1.4874 -0.2134
12828TIP3    H259976   3.598   3.314   5.191  0.6017  1.9380  0.0298
12829TIP3   OH259977   3.829   2.485  13.780 -0.0331  0.0226  0.3728
12829TIP3    H159978   3.756   2.486  13.842 -0.3957 -0.0396 -0.0500
12829TIP3    H259979   3.815   2.406  13.728 -0.6703  0.9439 -0.8942
12830TIP3   OH259980   6.372   1.690   3.154 -0.1428 -0.3993 -0.1823
12830TIP3    H159981   6.423   1.769   3.136 -1.1108  0.1797 -0.4477
12830TIP3    H259982   6.288   1.706   3.111 -1.1085 -0.6907  1.5219
12831TIP3   OH259983   0.408   6.717  12.584 -0.0314 -0.5519  0.4005
12831TIP3    H159984   0.495   6.735  12.618 -0.9018  0.7469  2.0687
12831TIP3    H259985   0.349   6.738  12.656 -1.7794 -0.8180 -0.8859
12832TIP3   OH259986   1.718   2.601  15.611  0.0554 -0.2275  0.7389
12832TIP3    H159987   1.733   2.544  15.536  0.2431 -0.3968  0.9039
12832TIP3    H259988   1.763   2.682  15.588 -0.3553 -0.0805  0.4309
12833TIP3   OH259989   7.005   4.963   2.826 -0.4591  0.2599  0.1728
12833TIP3    H159990   6.938   4.919   2.879 -0.9045  0.6438 -0.0612
12833TIP3    H259991   7.002   5.054   2.855  1.3763 -0.0744  1.5932
12834TIP3   OH259992   0.277   0.625  11.402 -0.6129 -0.1259  0.4833
12834TIP3    H159993   0.328   0.557  11.446 -0.3163  0.7112  1.4860
12834TIP3    H259994   0.241   0.583  11.324  1.8229 -0.6588 -0.4147
12835TIP3   OH259995   0.574   1.570   2.637  0.1315  0.0530 -0.2047
12835TIP3    H159996   0.624   1.591   2.716  0.4443 -0.0133 -0.3836
12835TIP3    H259997   0.614   1.625   2.569  0.3589 -0.4464 -0.4786
12836TIP3   OH259998   3.434   4.253  12.854 -0.4366 -0.0006  0.3062
12836TIP3    H159999   3.451   4.298  12.771 -0.9947  0.4312  0.4257
12836TIP3    H260000   3.515   4.265  12.904 -1.1564  2.3945  1.0290
12837TIP3   OH260001   5.563   0.241   4.846  0.5261 -0.2377  0.3576
12837TIP3    H160002   5.552   0.297   4.923 -1.7724  0.2160 -0.2045
12837TIP3    H260003   5.497   0.273   4.784  0.3729 -2.4108 -0.7031
12838TIP3   OH260004   2.621   6.701   2.098  0.0174  0.0752 -0.2270
12838TIP3    H160005   2.529   6.673   2.101  0.0005  0.2009  0.9708
12838TIP3    H260006   2.649   6.680   2.009 -1.7412  1.8432 -1.2903
12839TIP3   OH260007   2.197   4.963   0.387  0.3836 -0.0563  0.0399
12839TIP3    H160008   2.206   4.975   0.293  0.8452  0.9673  0.2064
12839TIP3    H260009   2.274   4.913   0.413  0.7797  0.5394  0.0234
12840TIP3   OH260010   3.490   4.494   4.312  0.0429 -0.4277 -0.0550
12840TIP3    H160011   3.541   4.427   4.357  3.4542 -0.3680 -3.3676
12840TIP3    H260012   3.545   4.572   4.314 -0.7941  0.2712 -2.0814
12841TIP3   OH260013   3.396   6.603   0.310 -0.4892  0.3112  0.3118
12841TIP3    H160014   3.397   6.684   0.361 -0.7237  1.5094 -1.5009
12841TIP3    H260015   3.393   6.533   0.376 -0.9532  1.7727  1.9091
12842TIP3   OH260016   4.708   2.589   0.886 -0.5986  0.3878  0.1424
12842TIP3    H160017   4.740   2.533   0.815 -0.1637  1.5726 -0.6426
12842TIP3    H260018   4.613   2.584   0.879 -0.5775  1.3810 -1.3077
12843TIP3   OH260019   0.345   3.561  12.252 -0.3921 -0.6004 -0.3667
12843TIP3    H160020   0.305   3.477  12.275 -0.4260 -0.4342  0.2077
12843TIP3    H260021   0.306   3.585  12.168 -0.1029 -1.3352 -0.7204
12844TIP3   OH260022   1.386   2.322   1.346  0.2431  0.2682 -0.3218
12844TIP3    H160023   1.301   2.293   1.379 -0.2285  0.3704 -1.4048
12844TIP3    H260024   1.430   2.241   1.320 -0.8114  0.3648 -2.7197
12845TIP3   OH260025   6.254   5.631   2.024 -0.2630 -0.1080  0.0624
12845TIP3    H160026   6.168   5.590   2.028 -0.1503 -0.3149  0.4764
12845TIP3    H260027   6.251   5.700   2.090 -0.8165  1.2790 -1.3789
12846TIP3   OH260028   2.985   0.093   0.620  0.2913  0.1085  0.0448
12846TIP3    H160029   2.983  -0.001   0.603  2.1092  0.0601 -0.0148
12846TIP3    H260030   3.071   0.109   0.659  0.8187  2.0277 -1.7424
12847TIP3   OH260031   6.042   0.299  10.193 -0.0192 -0.3561  0.3450
12847TIP3    H160032   6.083   0.238  10.133  0.6645  0.3447  0.0872
12847TIP3    H260033   6.018   0.246  10.269  0.9961 -0.8547  0.3314
12848TIP3   OH260034   3.119   5.331   3.144 -0.4422  0.3499 -0.2515
12848TIP3    H160035   3.139   5.242   3.172 -0.7490 -0.5065 -2.5359
12848TIP3    H260036   3.193   5.355   3.087 -1.2138  0.8836 -1.0478
12849TIP3   OH260037   0.887   5.770   0.794  0.1055  0.1337 -0.4457
12849TIP3    H160038   0.975   5.740   0.817  0.2268 -1.7745 -2.9837
12849TIP3    H260039   0.871   5.734   0.707 -2.3565  2.3007 -1.0147
12850TIP3   OH260040   1.333   4.935  13.840 -0.0472 -0.2951 -0.1847
12850TIP3    H160041   1.384   4.939  13.759  2.3111 -0.5213  1.2050
12850TIP3    H260042   1.341   5.023  13.878 -0.9583 -0.2491 -0.0722
12851TIP3   OH260043   5.355   4.211   9.969 -0.4791  0.1464 -0.3365
12851TIP3    H160044   5.412   4.197  10.044  0.9313 -0.2410 -1.4406
12851TIP3    H260045   5.308   4.292   9.989  0.3185  0.3705  0.6823
12852TIP3   OH260046   0.664   0.659   2.309  0.1591 -0.8011  0.2231
12852TIP3    H160047   0.627   0.659   2.221 -1.1544 -0.8587  0.7457
12852TIP3    H260048   0.758   0.650   2.296  0.2901  1.8641 -1.2873
12853TIP3   OH260049   5.628   5.418  12.010  0.1679  0.4917  0.3007
12853TIP3    H160050   5.695   5.442  12.074  0.2010  0.0767  0.4289
12853TIP3    H260051   5.562   5.372  12.062 -1.1140  2.4457  0.4986
12854TIP3   OH260052   5.800   2.377   1.338  0.3658 -0.4397  0.2301
12854TIP3    H160053   5.886   2.358   1.376  0.7642 -0.7124 -0.7709
12854TIP3    H260054   5.814   2.372   1.243 -0.5209  0.5702  0.0294
12855TIP3   OH260055   0.680   1.723  13.237 -0.2517 -0.2112 -0.2717
12855TIP3    H160056   0.628   1.803  13.235 -1.1917 -0.7727  0.6928
12855TIP3    H260057   0.668   1.684  13.150 -0.5496  0.2258 -0.4300
12856TIP3   OH260058   0.708   4.182   4.877  0.2553  0.2593  0.3130
12856TIP3    H160059   0.756   4.106   4.843  1.8339  1.1057  0.5491
12856TIP3    H260060   0.636   4.144   4.928  0.0679 -1.0487 -0.8663
12857TIP3   OH260061   6.734   7.020   0.834 -0.1923  0.3009 -0.1794
12857TIP3    H160062   6.722   6.972   0.916  0.2554  0.2444 -0.1432
12857TIP3    H260063   6.819   6.991   0.801  0.1980  1.2231 -0.0400
12858TIP3   OH260064   2.494   1.543  14.135 -0.0787 -0.2250  0.4624
12858TIP3    H160065   2.480   1.495  14.054 -1.0889  0.7963 -0.0068
12858TIP3    H260066   2.436   1.619  14.128 -0.5888 -0.3816  2.3688
12859TIP3   OH260067   5.253   5.352   0.221  0.3214 -0.2102  0.1044
12859TIP3    H160068   5.301   5.339   0.302  1.0061 -0.0958 -0.2761
12859TIP3    H260069   5.315   5.327   0.152 -0.3782 -0.6744 -0.3678
12860TIP3   OH260070   2.727   1.271   5.894  0.2043 -0.4320 -0.1690
12860TIP3    H160071   2.680   1.220   5.828  1.6966 -0.3363 -1.3635
12860TIP3    H260072   2.788   1.325   5.843 -0.1096  1.2642  1.1645
12861TIP3   OH260073   0.509   7.013  14.884 -0.7745  0.2686 -0.7447
12861TIP3    H160074   0.592   7.008  14.933 -0.5270 -0.6986 -1.2418
12861TIP3    H260075   0.442   6.988  14.948 -0.6731  0.8480 -0.4003
12862TIP3   OH260076   2.963   1.721  10.908  0.1446  0.4992 -0.1019
12862TIP3    H160077   2.970   1.636  10.864 -0.8890  1.6508 -2.6848
12862TIP3    H260078   3.050   1.737  10.943  1.5173  0.1081 -3.0576
12863TIP3   OH260079   5.036   2.864   5.412  0.5091  0.2719 -0.6321
12863TIP3    H160080   5.114   2.872   5.467 -0.0037  0.4812  0.0905
12863TIP3    H260081   5.014   2.954   5.389 -2.1512  0.8140  3.0284
12864TIP3   OH260082   6.019   5.984   1.727  0.1018 -0.0812 -0.1713
12864TIP3    H160083   5.960   6.059   1.720 -0.9885 -0.9477 -0.7103
12864TIP3    H260084   5.997   5.930   1.651 -0.2829 -1.7263  1.0500
12865TIP3   OH260085   5.572   2.674   2.422  0.3107  0.3706  0.9714
12865TIP3    H160086   5.515   2.750   2.432  0.1141  0.3994 -0.2071
12865TIP3    H260087   5.643   2.704   2.366 -1.5062 -1.0907 -2.4504
12866TIP3   OH260088   1.152   4.854   9.851 -0.1979 -0.1468  0.0225
12866TIP3    H160089   1.224   4.837   9.790 -0.5347 -0.6851 -0.2306
12866TIP3    H260090   1.131   4.769   9.888 -0.1740  0.1381  0.7025
12867TIP3   OH260091   2.799   5.321   5.675 -0.1633 -0.1228  0.5460
12867TIP3    H160092   2.815   5.228   5.690  1.6833 -0.0895 -0.9504
12867TIP3    H260093   2.839   5.339   5.590 -4.1710  1.1316 -1.3298
12868TIP3   OH260094   4.673   4.479  13.892  0.1763  0.1408  0.2191
12868TIP3    H160095   4.711   4.396  13.863 -1.1077 -0.4537  0.1645
12868TIP3    H260096   4.601   4.454  13.949 -2.2326  1.0836 -2.2091
12869TIP3   OH260097   2.753   5.438  10.546  0.1129  0.1841  0.0984
12869TIP3    H160098   2.770   5.385  10.468  1.0669  1.2654 -0.4603
12869TIP3    H260099   2.671   5.404  10.581 -0.1973 -0.4891 -1.2285
12870TIP3   OH260100   5.393   3.669  13.144 -0.1917  0.4228 -0.0233
12870TIP3    H160101   5.452   3.626  13.082  1.2335  1.5221  0.4972
12870TIP3    H260102   5.306   3.660  13.105  0.3702 -0.7918 -1.0879
12871TIP3   OH260103   0.276   4.403   5.537  0.0802  0.0100  0.4120
12871TIP3    H160104   0.239   4.394   5.625 -1.4893 -0.3663 -0.2556
12871TIP3    H260105   0.302   4.495   5.531  1.4892 -0.2457  1.7174
12872TIP3   OH260106   0.698   7.140   1.611 -0.4418  0.0680  0.3294
12872TIP3    H160107   0.678   7.163   1.701  0.0986 -0.6775  0.6506
12872TIP3    H260108   0.786   7.101   1.614  0.6514  2.2366 -0.8679
12873TIP3   OH260109   5.739   0.869  13.293  0.0117  0.2356 -0.3731
12873TIP3    H160110   5.715   0.934  13.359 -1.0188  0.5758 -1.0667
12873TIP3    H260111   5.830   0.889  13.271 -0.7508  2.5015 -1.7442
12874TIP3   OH260112   6.050   5.923  14.315 -0.0261  0.3308  0.6644
12874TIP3    H160113   5.968   5.898  14.272  0.1245  0.0222  0.5558
12874TIP3    H260114   6.110   5.852  14.296 -0.1650 -0.1689  1.9922
12875TIP3   OH260115   1.103   5.735   3.242  0.2663 -1.2205 -0.3039
12875TIP3    H160116   1.128   5.820   3.206  2.5732 -1.4394  0.5520
12875TIP3    H260117   1.174   5.676   3.215  0.3709 -2.1175  1.6932
12876TIP3   OH260118   0.235   2.766  13.960 -0.4645 -0.1196 -0.3148
12876TIP3    H160119   0.177   2.838  13.934 -0.9441  0.5973  2.4130
12876TIP3    H260120   0.222   2.758  14.054  2.5590 -1.1338  0.1239
12877TIP3   OH260121   3.564   7.139  12.962 -0.0618 -0.4954  0.1294
12877TIP3    H160122   3.577   7.192  12.883 -1.3149  0.0698  0.2793
12877TIP3    H260123   3.492   7.182  13.008  0.2300 -1.1922  1.2623
12878TIP3   OH260124   0.684   1.499  11.159  0.4571  0.1546 -0.2792
12878TIP3    H160125   0.706   1.416  11.118 -0.2732 -0.8023  1.2006
12878TIP3    H260126   0.721   1.565  11.100 -1.4920 -1.0726 -3.1207
12879TIP3   OH260127   3.101   2.031   0.745 -0.5270 -0.0519  0.3614
12879TIP3    H160128   3.084   2.122   0.767  1.9395  0.5398  0.1384
12879TIP3    H260129   3.039   1.981   0.798 -1.9514  1.7378  0.4585
12880TIP3   OH260130   4.729   0.048  14.308  0.0323  0.2494 -0.1216
12880TIP3    H160131   4.729   0.083  14.219 -1.3626 -0.1221 -0.2915
12880TIP3    H260132   4.798   0.097  14.353  1.7335 -0.5274 -1.7588
12881TIP3   OH260133   0.312   6.778   4.002 -0.7995 -0.2367  0.0796
12881TIP3    H160134   0.397   6.735   4.009 -1.0304 -1.0137 -1.4225
12881TIP3    H260135   0.292   6.807   4.091 -0.0571 -2.1387  0.9259
12882TIP3   OH260136   2.869   6.280  15.511 -0.3508 -0.3184  0.1629
12882TIP3    H160137   2.874   6.374  15.532 -0.6139  0.5441 -3.0748
12882TIP3    H260138   2.953   6.245  15.538 -0.0758  0.9095  1.0397
12883TIP3   OH260139   0.023   0.547   4.990  0.5582 -0.0952 -0.3580
12883TIP3    H160140   0.072   0.617   5.034  2.7922 -0.2078 -2.4741
12883TIP3    H260141   0.019   0.477   5.054  3.0609  0.0106  0.0034
12884TIP3   OH260142   4.115   3.974  15.487 -0.1873 -0.0584 -0.6245
12884TIP3    H160143   4.204   3.954  15.516 -0.2447  0.6834  0.0978
12884TIP3    H260144   4.077   3.889  15.467  0.1629 -0.5439  0.6280
12885TIP3   OH260145   4.258   0.910   4.107  0.1255  0.4825 -0.4511
12885TIP3    H160146   4.330   0.970   4.089  0.2648  0.5818  0.3844
12885TIP3    H260147   4.298   0.823   4.104  0.1261  0.4912 -0.7091
12886TIP3   OH260148   3.860   2.195  15.554  0.6243 -0.0796 -0.2240
12886TIP3    H160149   3.804   2.167  15.626 -0.9902  1.1384 -0.9514
12886TIP3    H260150   3.885   2.285  15.575  0.2951  0.2219 -1.0704
12887TIP3   OH260151   6.279   4.048   2.445 -0.0607  0.3585  0.4068
12887TIP3    H160152   6.285   4.130   2.494  0.1913  1.0213 -0.7105
12887TIP3    H260153   6.262   3.982   2.512  2.6211  0.8701  1.6934
12888TIP3   OH260154   4.823   0.799   1.796 -0.1321  0.0731 -0.2292
12888TIP3    H160155   4.753   0.774   1.857 -0.4716 -0.1169 -0.6962
12888TIP3    H260156   4.880   0.722   1.792 -0.3132 -0.0492 -0.4424
12889TIP3   OH260157   2.904   6.637  10.389 -0.0529  0.3839  0.6740
12889TIP3    H160158   2.940   6.698  10.454  0.0817 -0.8122  1.7584
12889TIP3    H260159   2.812   6.629  10.412 -0.9259  2.7748 -1.5755
12890TIP3   OH260160   4.954   6.685   3.360  0.1338 -0.1556 -0.3733
12890TIP3    H160161   4.929   6.597   3.387 -1.0013  0.5541  1.0779
12890TIP3    H260162   4.871   6.731   3.350  0.7221  0.9457 -0.3602
12891TIP3   OH260163   4.445   4.555   5.471 -0.2028  0.2052  0.1468
12891TIP3    H160164   4.453   4.501   5.550  1.6567  0.1805 -0.0198
12891TIP3    H260165   4.354   4.542   5.442 -0.8115 -0.0960  2.0375
12892TIP3   OH260166   6.332   5.739   2.816 -0.1821  0.4770  0.6745
12892TIP3    H160167   6.318   5.648   2.790 -2.4904  0.3648  1.9732
12892TIP3    H260168   6.257   5.786   2.781  1.1343  1.9811 -0.2378
12893TIP3   OH260169   2.472   0.804   1.916  0.0373  0.3187 -0.1478
12893TIP3    H160170   2.473   0.802   1.821  0.5853  0.4916 -0.1453
12893TIP3    H260171   2.384   0.835   1.938  0.5833  2.3567 -0.6361
12894TIP3   OH260172   3.419   4.883   2.948 -0.2617 -0.8700  0.2734
12894TIP3    H160173   3.481   4.827   2.902 -0.3808 -0.2837 -0.6187
12894TIP3    H260174   3.340   4.829   2.957 -0.6025 -0.6522 -1.1607
12895TIP3   OH260175   4.129   2.406   4.063 -0.5588  0.4142 -0.4121
12895TIP3    H160176   4.045   2.379   4.101  1.5885 -3.0745  2.6325
12895TIP3    H260177   4.155   2.482   4.114 -0.3551 -0.6924  1.2150
12896TIP3   OH260178   3.148   4.518  13.724  0.1038 -0.1551  0.1003
12896TIP3    H160179   3.156   4.581  13.797  1.1448  0.2882 -0.3847
12896TIP3    H260180   3.054   4.498  13.721 -0.3009  1.5635  0.1269
12897TIP3   OH260181   2.287   6.658  12.601  0.5315 -0.5443  0.1716
12897TIP3    H160182   2.225   6.729  12.582  0.7329 -0.5951 -0.7673
12897TIP3    H260183   2.249   6.581  12.558  0.1345 -1.1079  1.4830
12898TIP3   OH260184   1.677   2.626  12.932 -0.1220  0.1476  0.5052
12898TIP3    H160185   1.615   2.692  12.900  0.9566  0.7862 -0.3197
12898TIP3    H260186   1.713   2.588  12.852  2.2199  1.3693  0.9154
12899TIP3   OH260187   4.109   1.545   3.652  0.2713 -0.3683 -0.0683
12899TIP3    H160188   4.082   1.542   3.560  0.9539 -1.2739 -0.2557
12899TIP3    H260189   4.030   1.521   3.701  0.0847 -0.5496 -0.4578
12900TIP3   OH260190   1.114   4.208  12.697 -0.0276 -0.0124  0.6088
12900TIP3    H160191   1.074   4.254  12.623 -0.9002 -1.0750  0.3894
12900TIP3    H260192   1.042   4.194  12.758  0.1732 -1.2508  0.5775
12901TIP3   OH260193   3.630   5.882  15.545  0.3017 -0.1082  0.4956
12901TIP3    H160194   3.550   5.831  15.559  0.2383  0.2425  1.4633
12901TIP3    H260195   3.677   5.834  15.477 -0.7671 -0.2791 -0.1503
12902TIP3   OH260196   2.363   1.445  14.353 -0.0263 -0.5901 -0.3400
12902TIP3    H160197   2.421   1.458  14.278  0.7783  0.9190  0.4834
12902TIP3    H260198   2.406   1.379  14.406  0.2909 -0.4065 -0.3660
12903TIP3   OH260199   1.056   4.055   3.868 -0.0209  0.9264  0.0672
12903TIP3    H160200   1.117   3.982   3.880  1.1055  1.9559  0.8814
12903TIP3    H260201   1.057   4.071   3.774 -0.8384 -0.5302 -0.2314
12904TIP3   OH260202   5.647   3.812   1.398  0.0278  0.9999  1.0308
12904TIP3    H160203   5.705   3.759   1.343  3.3678  1.7219  3.4964
12904TIP3    H260204   5.583   3.751   1.432  0.4016 -0.2729 -0.4526
12905TIP3   OH260205   2.010   1.477   1.650 -0.1190  0.2718  0.4135
12905TIP3    H160206   1.955   1.500   1.575  0.2390  1.4544  0.5028
12905TIP3    H260207   2.016   1.381   1.647 -1.2193  0.2124 -0.2713
12906TIP3   OH260208   1.515   3.894   4.582  0.0366 -0.1766  0.0972
12906TIP3    H160209   1.480   3.858   4.663  1.9486 -3.0669 -0.2258
12906TIP3    H260210   1.600   3.931   4.606 -0.7429  1.8818 -0.0955
12907TIP3   OH260211   4.956   0.624   5.858 -0.1028 -0.4543 -0.0500
12907TIP3    H160212   4.925   0.656   5.773 -0.7210  0.1957  0.4158
12907TIP3    H260213   5.001   0.699   5.897  0.4456 -0.8416  0.0796
12908TIP3   OH260214   5.260   1.739  14.978 -0.4223  0.5057 -0.4466
12908TIP3    H160215   5.323   1.763  14.910 -1.0193  0.5820 -0.9806
12908TIP3    H260216   5.296   1.660  15.017  0.6917  1.2919  0.1750
12909TIP3   OH260217   2.873   5.975   4.952  0.2038 -0.3085  0.2629
12909TIP3    H160218   2.932   5.981   5.027  0.2587 -1.2036  0.3041
12909TIP3    H260219   2.795   6.024   4.978  0.1248 -0.8124  1.0104
12910TIP3   OH260220   2.107   4.805   1.033  0.2085 -0.2883  0.8172
12910TIP3    H160221   2.057   4.871   1.080 -0.3328  0.3623 -0.6131
12910TIP3    H260222   2.069   4.722   1.062 -1.1657  0.1588  0.3736
12911TIP3   OH260223   0.055   1.523   3.103 -0.1822  0.3164 -0.5924
12911TIP3    H160224   0.108   1.539   3.025  2.0305 -0.0130  0.7636
12911TIP3    H260225   0.107   1.560   3.175 -1.6604 -0.3308  0.8530
12912TIP3   OH260226   1.064   6.478  15.251  0.2245 -0.2091 -0.0175
12912TIP3    H160227   1.064   6.422  15.174 -2.5311 -1.0125  0.4616
12912TIP3    H260228   1.015   6.556  15.225  1.9420  0.9663  0.0579
12913TIP3   OH260229   6.436   0.938  15.244 -0.3055 -0.3772 -0.9328
12913TIP3    H160230   6.437   0.998  15.170  0.7446  1.0762  0.1950
12913TIP3    H260231   6.507   0.969  15.301  0.7794 -3.1322 -0.6170
12914TIP3   OH260232   1.266   4.245   4.314 -0.1680  0.1849 -0.4078
12914TIP3    H160233   1.317   4.303   4.371  0.1564 -0.2784 -0.2179
12914TIP3    H260234   1.303   4.158   4.330  0.2100  0.0954 -1.6256
12915TIP3   OH260235   1.803   2.502   1.677  0.3545 -0.3726 -0.1314
12915TIP3    H160236   1.850   2.548   1.746  1.2480  0.5501 -1.3012
12915TIP3    H260237   1.803   2.410   1.704  0.8078 -0.0430  1.0105
12916TIP3   OH260238   4.231   4.937   4.400  0.3401  0.0384  0.0741
12916TIP3    H160239   4.222   5.000   4.472  1.1747 -0.3310  0.5228
12916TIP3    H260240   4.325   4.921   4.394  0.2441 -0.2206 -0.8634
12917TIP3   OH260241   5.285   3.533   2.605 -0.7595 -0.4894  0.4191
12917TIP3    H160242   5.285   3.468   2.535 -1.7867  0.4057 -0.4467
12917TIP3    H260243   5.334   3.607   2.570 -0.7389 -0.2736  0.8889
12918TIP3   OH260244   2.509   4.922   1.774 -0.2111 -0.2565 -0.2682
12918TIP3    H160245   2.516   5.017   1.758  0.5260 -0.2292  0.1586
12918TIP3    H260246   2.477   4.916   1.864  0.3713 -0.4093 -0.0680
12919TIP3   OH260247   2.646   4.594  12.297 -0.2671  0.1036  0.0245
12919TIP3    H160248   2.691   4.634  12.223 -0.4494  0.5372  0.1492
12919TIP3    H260249   2.647   4.500  12.277  0.9822  0.0706  0.1761
12920TIP3   OH260250   2.653   1.322   3.333 -0.2010  0.0806 -0.3432
12920TIP3    H160251   2.708   1.398   3.353 -0.1647  0.6474 -2.3955
12920TIP3    H260252   2.628   1.334   3.241 -0.9216 -1.9387 -0.4545
12921TIP3   OH260253   4.541   1.389   3.312  0.4462 -0.2365  0.6872
12921TIP3    H160254   4.525   1.465   3.368  0.1864 -0.3134  0.7190
12921TIP3    H260255   4.470   1.392   3.248  0.9942  0.1104  0.0811
12922TIP3   OH260256   4.725   0.992  14.351 -0.7326 -0.1247  0.3133
12922TIP3    H160257   4.665   0.946  14.410 -0.8980  1.6502  1.6274
12922TIP3    H260258   4.705   1.085  14.365  0.8460  0.4234 -0.8317
12923TIP3   OH260259   1.383   3.557   4.266 -0.8241 -0.3890  0.1065
12923TIP3    H160260   1.434   3.527   4.342 -1.8833 -1.8750  0.2600
12923TIP3    H260261   1.322   3.486   4.248 -1.2505  0.3518 -1.5589
12924TIP3   OH260262   5.646   1.615   4.628 -0.7578 -1.1331  0.2543
12924TIP3    H160263   5.588   1.618   4.703 -0.1071 -1.2411  0.7715
12924TIP3    H260264   5.590   1.589   4.555 -0.9178 -3.6710  1.1880
12925TIP3   OH260265   4.466   1.549   3.907  0.3985 -0.0344  0.1879
12925TIP3    H160266   4.490   1.481   3.844  1.0085  0.2010  0.1572
12925TIP3    H260267   4.412   1.610   3.856 -0.4951 -0.6976  0.3198
12926TIP3   OH260268   5.560   4.451   4.469 -0.5879 -0.0548 -0.0368
12926TIP3    H160269   5.482   4.432   4.417 -0.8514  0.4591  0.1555
12926TIP3    H260270   5.632   4.409   4.421 -1.1198 -1.4678  0.3632
12927TIP3   OH260271   5.926   1.229  11.306  0.5104 -0.3031  0.1596
12927TIP3    H160272   5.856   1.208  11.367  0.0496  0.9256  0.0790
12927TIP3    H260273   5.950   1.319  11.326  1.1825 -0.2741 -0.6786
12928TIP3   OH260274   1.582   5.786   1.171 -0.1965  0.0028  0.3028
12928TIP3    H160275   1.601   5.877   1.148  0.0162 -0.2051 -0.3711
12928TIP3    H260276   1.497   5.768   1.129 -0.0022 -0.2526  0.0127
12929TIP3   OH260277   3.633   1.521   4.439  0.2901 -0.4307  0.3130
12929TIP3    H160278   3.585   1.502   4.520  0.0430 -0.4476  0.1625
12929TIP3    H260279   3.720   1.483   4.453  0.6317  0.5869  1.0404
12930TIP3   OH260280   6.399   5.814  12.822 -0.5949  0.5460 -0.1292
12930TIP3    H160281   6.329   5.773  12.872 -0.8518  0.6428 -0.4088
12930TIP3    H260282   6.479   5.785  12.865 -0.7931  0.1493 -0.0291
12931TIP3   OH260283   1.298   3.069   0.151  0.3001  0.2044 -0.2227
12931TIP3    H160284   1.295   3.131   0.224  1.2610  0.8828 -0.7476
12931TIP3    H260285   1.222   3.091   0.098  0.8032  1.1578 -0.5680
12932TIP3   OH260286   5.808   1.793  12.697 -0.0834 -0.6385  0.2988
12932TIP3    H160287   5.865   1.716  12.698  0.4127 -0.2926 -0.4025
12932TIP3    H260288   5.833   1.843  12.775  0.0453 -0.8689  0.4052
12933TIP3   OH260289   6.561   3.291  12.330  0.1373  0.1357  0.7557
12933TIP3    H160290   6.593   3.229  12.395 -0.1404 -0.1207  0.6519
12933TIP3    H260291   6.466   3.291  12.342 -0.0871 -1.1058 -0.6862
12934TIP3   OH260292   0.168   5.587   3.432  0.3218 -0.1021  0.1371
12934TIP3    H160293   0.192   5.669   3.474  0.1373 -0.3804  0.7936
12934TIP3    H260294   0.197   5.519   3.493  1.3429 -0.5671 -0.8376
12935TIP3   OH260295   6.437   0.175  11.347 -0.0640  0.1877 -0.9196
12935TIP3    H160296   6.391   0.152  11.266 -1.6755  0.3104 -0.0699
12935TIP3    H260297   6.521   0.130  11.340 -0.1602  0.1873 -2.6477
12936TIP3   OH260298   6.896   2.844   5.489  0.5782 -0.4538 -0.1094
12936TIP3    H160299   6.846   2.763   5.488 -2.1211  1.0835  0.4379
12936TIP3    H260300   6.946   2.841   5.571 -0.5018 -1.0039  0.5423
12937TIP3   OH260301   2.011   5.506  12.875  0.0736 -0.2854  0.3742
12937TIP3    H160302   2.078   5.473  12.815  0.6266  3.0130 -1.0177
12937TIP3    H260303   1.928   5.490  12.830  0.2458 -0.5129  0.1319
12938TIP3   OH260304   6.542   4.958   2.617  0.1862  0.1279 -0.1026
12938TIP3    H160305   6.509   4.945   2.706  1.2118 -1.0797  0.1359
12938TIP3    H260306   6.484   5.024   2.579 -2.5536 -1.9139  0.2300
12939TIP3   OH260307   3.826   1.113  13.859 -0.2359  0.0806  0.2568
12939TIP3    H160308   3.802   1.205  13.859  1.0044  0.4298 -0.0011
12939TIP3    H260309   3.896   1.107  13.793  1.4451 -0.5434  2.0003
12940TIP3   OH260310   0.389   3.796   1.638  0.1670  0.0270  0.7511
12940TIP3    H160311   0.465   3.844   1.606  0.9279 -0.9500  1.0321
12940TIP3    H260312   0.336   3.863   1.681  0.7044  0.7854  0.2785
12941TIP3   OH260313   4.816   6.619  12.788  0.0431 -0.1049  0.6285
12941TIP3    H160314   4.723   6.638  12.774  0.5157  1.1396 -1.1318
12941TIP3    H260315   4.862   6.695  12.754  1.7480 -0.7455  1.3503
12942TIP3   OH260316   7.120   6.076  14.119  0.7262 -0.1190  0.2814
12942TIP3    H160317   7.047   6.037  14.166  0.1781 -0.5702 -0.8980
12942TIP3    H260318   7.130   6.022  14.040 -1.4978  3.2551 -2.5860
12943TIP3   OH260319   4.626   2.394  13.069 -0.1951  0.1942 -0.4558
12943TIP3    H160320   4.697   2.420  13.128  2.1831  1.0395 -3.4353
12943TIP3    H260321   4.560   2.462  13.081  0.7759  1.0358  0.3289
12944TIP3   OH260322   3.842   1.827   0.113 -0.4846  0.6443 -0.1151
12944TIP3    H160323   3.819   1.866   0.198  0.6916  0.7226  0.1944
12944TIP3    H260324   3.839   1.733   0.128  0.3336  0.6600  0.2067
12945TIP3   OH260325   3.365   5.774  10.801  0.0570  0.2092 -0.3369
12945TIP3    H160326   3.335   5.746  10.714  1.0768  0.6867 -0.8550
12945TIP3    H260327   3.451   5.813  10.786  0.5401 -0.2852  0.9839
12946TIP3   OH260328   4.240   0.724   2.875 -0.0456  0.3108 -0.3239
12946TIP3    H160329   4.157   0.682   2.852 -0.1321  0.1131  0.3395
12946TIP3    H260330   4.219   0.780   2.951  0.2958  0.7395 -0.5382
12947TIP3   OH260331   0.331   3.515   0.243 -0.3360 -0.0393  0.5141
12947TIP3    H160332   0.367   3.541   0.327 -1.3941  0.0645  0.9587
12947TIP3    H260333   0.249   3.469   0.265  0.1973 -1.4821 -0.3789
12948TIP3   OH260334   4.973   5.324  13.863  0.1501  0.1410  0.3957
12948TIP3    H160335   4.905   5.326  13.796 -0.6542  0.7482  1.1976
12948TIP3    H260336   4.935   5.272  13.934  1.4342 -1.5017 -0.0424
12949TIP3   OH260337   5.805   3.083  13.437 -0.7270 -0.1692  0.2853
12949TIP3    H160338   5.814   3.053  13.528  2.1404 -1.4736 -0.3080
12949TIP3    H260339   5.842   3.012  13.385 -1.0398  1.1317 -1.8142
12950TIP3   OH260340   3.450   0.732   2.973 -0.0784  0.0571 -0.3098
12950TIP3    H160341   3.429   0.821   2.945  1.0117  0.9489  1.4872
12950TIP3    H260342   3.544   0.733   2.987  0.0144 -1.5229 -0.6570
12951TIP3   OH260343   2.677   5.271   2.289 -0.3127  0.4208  0.0747
12951TIP3    H160344   2.664   5.312   2.375 -1.9750  0.2475 -0.0611
12951TIP3    H260345   2.735   5.332   2.243 -0.5230  1.2329  0.8403
12952TIP3   OH260346   5.006   2.891   0.845 -0.1505  0.0783 -0.1436
12952TIP3    H160347   5.063   2.930   0.911 -2.7958  0.6858  1.9548
12952TIP3    H260348   4.973   2.811   0.885 -0.0878 -0.7748 -1.6913
12953TIP3   OH260349   0.501   1.332   1.934  0.5244  0.4772  0.3854
12953TIP3    H160350   0.448   1.408   1.911 -0.1206  0.0611  0.4681
12953TIP3    H260351   0.557   1.318   1.857 -1.0360 -0.3994 -0.6760
12954TIP3   OH260352   5.775   5.289   2.598  0.1054  0.3889 -0.1040
12954TIP3    H160353   5.865   5.282   2.630 -0.1794 -1.8962  0.3080
12954TIP3    H260354   5.721   5.266   2.673 -0.7614 -0.0251 -0.8346
12955TIP3   OH260355   5.767   4.570   3.303 -0.2359  0.1000  0.9434
12955TIP3    H160356   5.743   4.488   3.345 -0.1193  0.0286  0.8739
12955TIP3    H260357   5.747   4.637   3.367  2.9434 -0.2138  2.4615
12956TIP3   OH260358   5.337   2.379   0.068 -0.0829  0.1911 -0.7328
12956TIP3    H160359   5.347   2.473   0.086 -1.2229  0.4773 -1.4997
12956TIP3    H260360   5.348   2.372  -0.026 -2.2159 -0.0875 -1.0182
12957TIP3   OH260361   3.323   6.317   5.590  0.5382 -0.3594 -0.6046
12957TIP3    H160362   3.408   6.333   5.631  1.3074  0.0166 -2.2550
12957TIP3    H260363   3.275   6.399   5.604 -1.1919 -1.8232  3.7958
12958TIP3   OH260364   0.358   0.541  12.220  0.4021  0.0936  0.0602
12958TIP3    H160365   0.413   0.591  12.280 -0.6884  0.6816  0.6013
12958TIP3    H260366   0.288   0.601  12.196  0.4751 -0.3517 -1.3208
12959TIP3   OH260367   6.490   6.058  13.745  0.5055 -0.2223 -0.2265
12959TIP3    H160368   6.540   6.129  13.707 -0.4398  0.1763 -0.7481
12959TIP3    H260369   6.406   6.060  13.700 -0.6442  0.2241  1.8140
12960TIP3   OH260370   3.015   3.013  12.481  0.7009  0.0253  0.1580
12960TIP3    H160371   2.927   2.991  12.450  0.9653 -0.4834 -0.2484
12960TIP3    H260372   3.071   2.947  12.442  1.0814 -0.5519  1.6192
12961TIP3   OH260373   6.364   5.525  15.515 -0.8787  0.0571 -0.6722
12961TIP3    H160374   6.339   5.462  15.583  0.1329  1.0289  0.6577
12961TIP3    H260375   6.307   5.600  15.530 -0.2640  0.4987 -0.5304
12962TIP3   OH260376   0.639   4.930  12.568 -0.1378  0.3758  0.2593
12962TIP3    H160377   0.635   4.997  12.500 -0.9192  0.7513  0.6733
12962TIP3    H260378   0.694   4.968  12.636 -0.9186  0.7738  0.6783
12963TIP3   OH260379   0.665   3.621  10.397  0.4087 -0.1604  0.1395
12963TIP3    H160380   0.608   3.669  10.337 -1.1021 -0.0665  1.5809
12963TIP3    H260381   0.703   3.551  10.343 -0.5130  0.2035 -1.0290
12964TIP3   OH260382   3.786   3.004  12.639 -0.9781 -0.2375 -0.2221
12964TIP3    H160383   3.718   3.043  12.584 -1.4782  1.6321  1.6008
12964TIP3    H260384   3.739   2.969  12.715 -0.0391  0.0780  0.5298
12965TIP3   OH260385   2.053   2.754   3.166 -0.4379 -0.1601 -0.2477
12965TIP3    H160386   1.991   2.722   3.101 -2.0545  0.7813  0.7530
12965TIP3    H260387   2.036   2.701   3.244  1.3165 -1.1245 -0.4592
12966TIP3   OH260388   4.547   5.020   0.137  0.1751 -0.0509  0.0109
12966TIP3    H160389   4.558   5.106   0.097 -1.5171  0.8880  1.3815
12966TIP3    H260390   4.464   4.988   0.102 -0.3656 -0.0519  1.2278
12967TIP3   OH260391   3.764   0.890   5.176 -0.0543  0.3601 -0.5430
12967TIP3    H160392   3.791   0.910   5.265 -0.6582  1.1112 -0.5254
12967TIP3    H260393   3.844   0.900   5.124  0.4821 -0.8286  0.0048
12968TIP3   OH260394   5.774   3.117   3.303 -0.2013  0.0552  0.1286
12968TIP3    H160395   5.702   3.053   3.312 -1.1155  1.1513  0.8893
12968TIP3    H260396   5.777   3.161   3.388 -0.8771  2.3420 -0.9672
12969TIP3   OH260397   4.574   4.138  13.766 -0.3301  0.2592  0.4041
12969TIP3    H160398   4.524   4.135  13.848 -0.0596 -0.1566  0.5592
12969TIP3    H260399   4.658   4.177  13.791 -0.5898  0.9890  0.1360
12970TIP3   OH260400   6.262   3.891  15.655  0.0300  0.5227  0.1318
12970TIP3    H160401   6.220   3.934  15.580  0.1464  0.5691  0.0936
12970TIP3    H260402   6.219   3.805  15.659  2.1218 -0.7417 -1.8923
12971TIP3   OH260403   5.548   6.857   2.363 -0.1884 -0.5344 -0.1871
12971TIP3    H160404   5.524   6.790   2.299 -0.1314 -2.3361  1.5711
12971TIP3    H260405   5.492   6.840   2.438  0.6738  0.6423  0.7753
12972TIP3   OH260406   6.721   6.765   2.318 -0.1060  0.1278  0.2544
12972TIP3    H160407   6.814   6.742   2.309  0.2485  0.9279  1.5289
12972TIP3    H260408   6.704   6.825   2.246  0.7713  1.0956  0.8201
12973TIP3   OH260409   2.508   6.070  15.030  0.6123 -0.1935  0.1215
12973TIP3    H160410   2.413   6.082  15.029  0.6286 -0.0027  0.6207
12973TIP3    H260411   2.543   6.152  14.996  0.6820  0.8503  2.4848
12974TIP3   OH260412   4.065   2.233   3.548  0.3182 -0.4397 -0.2109
12974TIP3    H160413   3.991   2.195   3.596 -1.7184  0.7217 -2.2249
12974TIP3    H260414   4.067   2.325   3.576 -0.2438 -0.0048 -1.5416
12975TIP3   OH260415   6.524   4.841  12.652  0.1700 -0.0107  0.3524
12975TIP3    H160416   6.469   4.852  12.730  1.0063  1.3343  0.7845
12975TIP3    H260417   6.462   4.836  12.580 -0.5518  1.2944  0.8522
12976TIP3   OH260418   2.740   1.816   5.033  0.0729  0.1144  0.2036
12976TIP3    H160419   2.824   1.803   4.990  0.5097 -0.4202  1.1735
12976TIP3    H260420   2.763   1.853   5.119 -0.6387 -0.5590  0.6981
12977TIP3   OH260421   5.220   2.875   0.233  0.5671 -0.1555  0.5767
12977TIP3    H160422   5.286   2.867   0.303 -0.3808 -1.0529  1.4129
12977TIP3    H260423   5.152   2.932   0.271  0.7897  0.6761 -0.2377
12978TIP3   OH260424   4.304   1.318   4.928 -0.6424  0.6858  0.1326
12978TIP3    H160425   4.283   1.278   5.012 -2.1545 -1.9219 -1.3555
12978TIP3    H260426   4.394   1.289   4.909 -0.7844  0.1525  0.2613
12979TIP3   OH260427   0.120   4.009   0.701  0.5971 -0.1973  0.2982
12979TIP3    H160428   0.150   4.014   0.610  0.9436 -1.1105  0.3507
12979TIP3    H260429   0.177   3.944   0.742 -1.0569 -1.5639  0.5619
12980TIP3   OH260430   5.276   1.767   4.568 -0.3256  0.6363 -0.1333
12980TIP3    H160431   5.302   1.848   4.613  1.0306 -0.1751  0.6068
12980TIP3    H260432   5.181   1.766   4.573 -0.3652  2.1177 -0.0441
12981TIP3   OH260433   5.895   2.865  13.321 -0.2494 -0.3732  0.5798
12981TIP3    H160434   5.835   2.809  13.272 -1.5472  0.9202  0.6452
12981TIP3    H260435   5.960   2.892  13.256 -2.1533  1.6299 -0.6254
12982TIP3   OH260436   3.403   1.446   4.277  0.4898 -0.4927  0.7922
12982TIP3    H160437   3.487   1.472   4.315  0.7914  0.4657 -0.4630
12982TIP3    H260438   3.339   1.508   4.313  0.6970  0.1183  0.1391
12983TIP3   OH260439   5.006   5.869   5.658  0.5284  0.4597 -0.2312
12983TIP3    H160440   5.078   5.832   5.607  0.6882 -0.5908  0.7128
12983TIP3    H260441   5.015   5.829   5.745 -0.0567  1.7910  0.4686
12984TIP3   OH260442   0.789   3.014   0.409  0.6816 -0.7288  0.3505
12984TIP3    H160443   0.838   3.027   0.327 -0.3528 -1.4483 -0.4041
12984TIP3    H260444   0.849   3.044   0.477  1.4338  0.2333 -0.6906
12985TIP3   OH260445   3.415   5.759  15.723  0.0726  1.0347 -0.6378
12985TIP3    H160446   3.380   5.696  15.661  1.0257  0.0471 -0.2038
12985TIP3    H260447   3.458   5.706  15.790  1.1668  2.1508 -0.4172
12986TIP3   OH260448   4.736   3.913   2.481  0.0951  0.1252 -0.5690
12986TIP3    H160449   4.729   3.888   2.389 -3.2856  1.9479 -0.9724
12986TIP3    H260450   4.781   3.998   2.479 -1.2306  0.8446 -0.7403
12987TIP3   OH260451   5.071   3.916   4.391  0.0408 -0.8472 -0.3475
12987TIP3    H160452   5.073   3.886   4.300 -1.1549 -0.2990 -0.5732
12987TIP3    H260453   5.032   3.843   4.439 -0.9099 -0.4947 -0.5610
12988TIP3   OH260454   6.990   3.776   0.810  0.6826 -0.0313  0.4838
12988TIP3    H160455   7.084   3.758   0.808  1.3900  3.1020  0.6747
12988TIP3    H260456   6.972   3.819   0.727  0.1841  2.2988  1.7147
12989TIP3   OH260457   0.462   6.882   3.654 -0.6755  0.1813  0.4680
12989TIP3    H160458   0.526   6.817   3.684 -1.8316 -0.9060  0.6385
12989TIP3    H260459   0.472   6.955   3.717  2.2656  1.2986 -1.0698
12990TIP3   OH260460   2.275   0.111   4.508 -0.1238 -0.0218 -0.3576
12990TIP3    H160461   2.245   0.021   4.497  1.2821 -1.0850  3.1453
12990TIP3    H260462   2.196   0.164   4.497 -1.5998 -1.9424  0.3391
12991TIP3   OH260463   0.481   0.275  11.125 -0.4393 -0.5146 -0.1210
12991TIP3    H160464   0.411   0.264  11.190  0.1471  1.3940  0.8989
12991TIP3    H260465   0.556   0.228  11.163 -0.3384 -0.1028  0.1970
12992TIP3   OH260466   5.471   2.445   1.910  0.0341 -0.0546  0.6491
12992TIP3    H160467   5.509   2.454   1.823 -3.9583  0.1790 -1.2514
12992TIP3    H260468   5.538   2.481   1.969  2.2651  1.2062 -2.4037
12993TIP3   OH260469   1.561   2.135   3.772  0.1210  0.0273  0.2808
12993TIP3    H160470   1.592   2.091   3.851 -0.0785 -1.2308 -0.3095
12993TIP3    H260471   1.521   2.216   3.803 -0.0214 -0.4852  1.4781
12994TIP3   OH260472   5.541   7.116   2.058 -0.1787 -0.3712 -0.1384
12994TIP3    H160473   5.540   7.121   2.153 -0.5862  0.7148 -0.1870
12994TIP3    H260474   5.561   7.205   2.029 -0.8521 -0.4981 -1.0670
12995TIP3   OH260475   0.781   0.631   1.374  0.7113  0.2173  0.4137
12995TIP3    H160476   0.804   0.634   1.467  2.8658 -1.3242  0.0106
12995TIP3    H260477   0.862   0.654   1.328 -0.5980  2.0460 -1.1177
12996TIP3   OH260478   0.351   3.972   3.839 -0.1662  0.0011  0.4926
12996TIP3    H160479   0.304   3.934   3.913 -0.2139 -0.2449  0.3377
12996TIP3    H260480   0.325   4.064   3.839  0.4692  0.1968  1.2815
12997TIP3   OH260481   1.095   3.378  11.170 -0.4055 -0.2752 -0.1326
12997TIP3    H160482   1.186   3.406  11.186 -0.5520 -0.1361  0.4930
12997TIP3    H260483   1.080   3.399  11.077 -0.3659  1.3807  0.1906
12998TIP3   OH260484   5.901   0.454   3.320 -0.4605 -0.3354 -0.0359
12998TIP3    H160485   5.806   0.460   3.311 -0.2811  2.3309 -1.0656
12998TIP3    H260486   5.918   0.476   3.412 -0.8049 -0.3239  0.0256
12999TIP3   OH260487   5.968   4.032  10.031 -0.2572  0.1690  0.1630
12999TIP3    H160488   5.893   4.088  10.009  0.4984  1.7976  1.4583
12999TIP3    H260489   5.956   3.953   9.979 -1.6896  1.3163 -1.3349
13000TIP3   OH260490   5.143   4.922   4.027 -0.1714  0.0484  0.1333
13000TIP3    H160491   5.090   4.844   4.013  2.0772 -1.6477  0.4371
13000TIP3    H260492   5.117   4.954   4.113  0.6004 -1.9054  1.1552
13001TIP3   OH260493   4.522   1.275   1.476  0.1397  0.1437  0.4916
13001TIP3    H160494   4.427   1.263   1.476  0.2978 -2.0005  2.9518
13001TIP3    H260495   4.538   1.337   1.548  0.6034  0.6968 -0.0782
13002TIP3   OH260496   0.919   3.689  12.873  0.3741 -0.6466 -0.2428
13002TIP3    H160497   0.839   3.683  12.821  0.9197 -1.1994 -1.0409
13002TIP3    H260498   0.946   3.598  12.884  0.3138 -0.5338  0.9563
13003TIP3   OH260499   2.632   2.826   4.131 -0.1194  0.0576  0.2904
13003TIP3    H160500   2.642   2.886   4.204 -0.5650 -1.1069  1.3547
13003TIP3    H260501   2.719   2.820   4.092 -0.4052  2.6579 -0.9285
13004TIP3   OH260502   5.207   1.473   1.529  0.2901  0.2740 -0.3766
13004TIP3    H160503   5.239   1.382   1.531 -0.1663  0.1065 -0.4954
13004TIP3    H260504   5.274   1.523   1.574  0.0988 -0.2688  0.5334
13005TIP3   OH260505   5.724   4.076  11.357 -0.1327  0.0261  0.4873
13005TIP3    H160506   5.672   4.149  11.324  0.5343  0.2431 -0.0893
13005TIP3    H260507   5.814   4.098  11.336  0.0255 -1.2613 -0.2930
13006TIP3   OH260508   1.300   3.795  14.336  0.4501 -0.2087 -0.1508
13006TIP3    H160509   1.249   3.803  14.256 -0.3220  1.6473  0.4751
13006TIP3    H260510   1.382   3.754  14.308  0.3058  0.6268 -1.9392
13007TIP3   OH260511   2.008   1.591   4.499  0.0669  0.6010 -0.2712
13007TIP3    H160512   1.947   1.573   4.428  0.5969  0.4094 -0.6820
13007TIP3    H260513   1.999   1.515   4.558  0.7268  0.0111 -0.9091
13008TIP3   OH260514   4.332   2.561  13.953 -0.7149 -0.3914  0.4347
13008TIP3    H160515   4.280   2.508  13.893 -2.5088  0.1909  1.3868
13008TIP3    H260516   4.268   2.621  13.993  1.0590  1.9721 -0.0243
13009TIP3   OH260517   5.034   2.393  12.303  0.2919  0.8089 -0.3420
13009TIP3    H160518   5.130   2.396  12.306  0.3076 -0.0476  0.3334
13009TIP3    H260519   5.014   2.305  12.271 -0.2720  1.3671 -1.6001
13010TIP3   OH260520   4.852   6.111  14.582 -0.5042 -0.0156  0.4094
13010TIP3    H160521   4.844   6.078  14.671 -1.9336  0.8317  0.6253
13010TIP3    H260522   4.905   6.190  14.590  3.1978 -2.1898 -0.1484
13011TIP3   OH260523   1.315   0.421   4.537 -0.2904  0.0743 -0.4357
13011TIP3    H160524   1.318   0.433   4.442  0.6545 -0.7699 -0.5289
13011TIP3    H260525   1.322   0.327   4.550 -1.1518  0.1146  0.4657
13012TIP3   OH260526   6.200   2.684   5.360 -0.0286  0.0484 -0.3520
13012TIP3    H160527   6.112   2.683   5.397  0.3854  1.3179  0.7647
13012TIP3    H260528   6.199   2.757   5.298  0.5287  0.8033  0.4994
13013TIP3   OH260529   6.829   6.414   4.969 -0.0498  0.3072  0.3490
13013TIP3    H160530   6.791   6.329   4.992  0.2200  0.1919  0.3773
13013TIP3    H260531   6.872   6.443   5.049  2.7520 -1.0841 -0.4815
13014TIP3   OH260532   4.454   6.412   3.861  0.6255  0.5158  0.0234
13014TIP3    H160533   4.442   6.346   3.929  0.9541  0.4792  0.0472
13014TIP3    H260534   4.458   6.495   3.908  1.5598  0.4255  0.1167
13015TIP3   OH260535   3.178   6.967   2.406 -0.2029  0.6852  0.2562
13015TIP3    H160536   3.168   7.008   2.492 -2.0540 -0.7404  0.7926
13015TIP3    H260537   3.214   6.880   2.424 -0.4431  0.4356 -0.4039
13016TIP3   OH260538   6.011   3.897   2.607  0.3782  0.3822 -0.2249
13016TIP3    H160539   5.993   3.820   2.553 -0.0438  0.6416 -0.4667
13016TIP3    H260540   5.950   3.889   2.681 -1.1082  1.4983 -1.2784
13017TIP3   OH260541   6.818   6.628  14.965 -0.1425  0.2005  0.2420
13017TIP3    H160542   6.859   6.575  15.034  0.0095  0.4080  0.3148
13017TIP3    H260543   6.810   6.569  14.891 -0.1249  0.0277  0.3753
13018TIP3   OH260544   6.918   4.640   0.752  0.7676  0.4306  0.0725
13018TIP3    H160545   6.960   4.683   0.826 -0.0250  0.1559  0.6987
13018TIP3    H260546   6.881   4.711   0.700 -2.2650  0.5637  2.1304
13019TIP3   OH260547   5.658   2.572   2.699 -0.1181  0.1962 -0.3111
13019TIP3    H160548   5.631   2.663   2.688 -0.5327 -0.0949 -1.9539
13019TIP3    H260549   5.706   2.552   2.619 -0.4257 -1.1810 -0.1667
13020TIP3   OH260550   5.652   5.643  11.648  0.1109  0.0065 -0.1813
13020TIP3    H160551   5.666   5.738  11.637 -0.8166  0.3057  1.0704
13020TIP3    H260552   5.563   5.628  11.616  0.0827 -0.3611  0.0655
13021TIP3   OH260553   4.460   0.966   2.406 -0.1109 -0.0951 -0.1469
13021TIP3    H160554   4.516   1.018   2.464 -0.1280  1.9239 -1.8380
13021TIP3    H260555   4.493   0.877   2.414  1.1670  0.4792  1.4158
13022TIP3   OH260556   2.700   6.209  14.297  0.5308 -0.2918 -0.4287
13022TIP3    H160557   2.739   6.225  14.383 -0.7975 -0.1293  0.1676
13022TIP3    H260558   2.646   6.131  14.309 -0.5378  0.3635 -0.8083
13023TIP3   OH260559   4.733   1.802  15.555  0.5578  0.4414  0.4221
13023TIP3    H160560   4.724   1.788  15.461 -2.1972  1.4175  0.4424
13023TIP3    H260561   4.804   1.867  15.563  0.2279  1.0283 -1.0634
13024TIP3   OH260562   4.968   1.284   3.268 -0.2742 -0.0322  0.3423
13024TIP3    H160563   4.935   1.260   3.355 -0.8916 -1.0962 -0.1792
13024TIP3    H260564   4.945   1.211   3.212 -2.0012  1.6407 -1.2652
13025TIP3   OH260565   3.644   3.945  13.684  0.1149 -0.3333  0.6369
13025TIP3    H160566   3.646   4.027  13.635  0.4717 -0.1099  1.0207
13025TIP3    H260567   3.707   3.957  13.755  0.2958 -1.0016  0.5982
13026TIP3   OH260568   7.060   4.344  14.217 -0.1254  0.2381 -0.3470
13026TIP3    H160569   7.094   4.255  14.207  0.6993  0.5105 -0.0521
13026TIP3    H260570   7.021   4.365  14.132  1.4709  0.3287 -1.0900
13027TIP3   OH260571   3.882   4.276  14.829 -0.5955 -0.0622  0.0876
13027TIP3    H160572   3.794   4.311  14.844 -0.2903  1.0983 -0.7049
13027TIP3    H260573   3.911   4.247  14.916 -1.0920  1.1498  0.6817
13028TIP3   OH260574   0.300   2.733  14.575 -0.0124 -0.0475 -0.3814
13028TIP3    H160575   0.274   2.812  14.623  1.8161 -0.0711  0.7506
13028TIP3    H260576   0.337   2.766  14.493  2.2775  0.4575  0.7860
13029TIP3   OH260577   4.180   4.626   5.365  0.5405 -0.6652 -0.3660
13029TIP3    H160578   4.191   4.663   5.277  1.0412  0.8153  0.2899
13029TIP3    H260579   4.109   4.677   5.404  1.9079  0.3599  0.9144
13030TIP3   OH260580   3.810   3.584  11.549  0.4383  0.2300  0.1281
13030TIP3    H160581   3.819   3.493  11.577 -0.3108  0.5583  1.5711
13030TIP3    H260582   3.716   3.603  11.560  0.5490  1.1136 -0.3474
13031TIP3   OH260583   0.565   2.440   4.300 -0.9129  0.4533 -0.5250
13031TIP3    H160584   0.529   2.363   4.344 -0.2795 -0.6526 -1.8662
13031TIP3    H260585   0.659   2.435   4.316 -0.9086  1.1914 -0.2836
13032TIP3   OH260586   3.057   2.770  10.922 -0.4319 -0.1915  0.5597
13032TIP3    H160587   3.057   2.861  10.951  0.8771 -0.4567  1.5086
13032TIP3    H260588   3.114   2.725  10.984  1.0403 -1.1575 -1.3622
13033TIP3   OH260589   4.217   0.120   5.232 -0.5702 -0.0534  0.2709
13033TIP3    H160590   4.302   0.077   5.244 -0.0144  1.1523  0.8388
13033TIP3    H260591   4.201   0.162   5.316 -0.9965  1.0135 -0.3393
13034TIP3   OH260592   2.378   6.810  13.230  0.1938 -0.5489 -0.1535
13034TIP3    H160593   2.459   6.770  13.200  1.5053  1.1346  0.9095
13034TIP3    H260594   2.350   6.755  13.303  1.0876 -0.4647  0.2729
13035TIP3   OH260595   6.174   1.504   0.672 -0.2758 -0.1244  0.3825
13035TIP3    H160596   6.194   1.451   0.749  0.7694  1.7058  1.4657
13035TIP3    H260597   6.214   1.457   0.599  1.4461 -0.3739  1.4360
13036TIP3   OH260598   6.179   0.265  10.749  0.5523  0.3792  0.5693
13036TIP3    H160599   6.229   0.190  10.716 -0.8277 -0.5774  0.5860
13036TIP3    H260600   6.184   0.256  10.844  2.3069  1.6427  0.6413
13037TIP3   OH260601   3.145   1.407   0.500  0.0794  0.4069  0.1794
13037TIP3    H160602   3.173   1.342   0.435 -1.1236  0.8714 -0.8407
13037TIP3    H260603   3.094   1.357   0.564 -0.3456  0.2422 -0.2812
13038TIP3   OH260604   1.767   2.166  10.759 -0.5330 -0.3253 -0.2840
13038TIP3    H160605   1.710   2.112  10.813 -1.9742  0.4758 -0.9449
13038TIP3    H260606   1.772   2.120  10.675  0.1701 -0.6112 -0.0960
13039TIP3   OH260607   3.849   6.950   3.497 -0.1918  0.2495  0.6989
13039TIP3    H160608   3.787   6.905   3.439 -0.4940  0.6730  0.6848
13039TIP3    H260609   3.793   6.996   3.560  0.0991  0.7077  0.6285
13040TIP3   OH260610   3.570   6.942   2.897 -0.0568  0.9342 -0.5455
13040TIP3    H160611   3.507   6.985   2.838 -0.1947 -0.1383 -1.2055
13040TIP3    H260612   3.515   6.886   2.952  0.2773  0.1981 -0.9443
13041TIP3   OH260613   3.027   3.857  10.818  0.1199 -0.1398 -0.2053
13041TIP3    H160614   3.014   3.909  10.738  0.3941  1.2299  0.6093
13041TIP3    H260615   2.947   3.870  10.868  1.2195  1.8033  1.2245
13042TIP3   OH260616   6.967   0.783  13.226 -0.5046  0.2238  0.2639
13042TIP3    H160617   7.046   0.830  13.199  1.5936 -3.5904 -1.0202
13042TIP3    H260618   6.981   0.764  13.319  1.3745 -2.2471 -0.3896
13043TIP3   OH260619   3.280   3.074  12.332  0.1060 -0.3887  0.3861
13043TIP3    H160620   3.310   3.077  12.241  0.4664  1.2686  0.5275
13043TIP3    H260621   3.262   3.166  12.354 -0.5570 -0.8345  1.7976
13044TIP3   OH260622   2.227   4.019  14.979  0.0360 -0.8663  0.1700
13044TIP3    H160623   2.180   3.974  14.908  0.3315 -1.1586  0.1592
13044TIP3    H260624   2.177   3.996  15.058 -1.0968  0.5450 -0.0864
13045TIP3   OH260625   3.940   1.228   0.460 -0.0639 -0.7428 -0.1593
13045TIP3    H160626   3.994   1.221   0.539 -1.1923 -1.5440  0.5895
13045TIP3    H260627   3.855   1.257   0.493 -0.1562  0.3332 -1.2831
13046TIP3   OH260628   3.584   4.554   5.047 -0.0471 -0.8716 -0.0599
13046TIP3    H160629   3.520   4.617   5.012  1.4704 -0.0609 -1.5252
13046TIP3    H260630   3.621   4.598   5.124 -1.3363 -1.4257  0.9092
13047TIP3   OH260631   1.147   5.326   4.583 -0.3556  0.7714 -0.2383
13047TIP3    H160632   1.187   5.239   4.587 -0.3102  0.7940 -0.2090
13047TIP3    H260633   1.101   5.326   4.499  0.6720  1.1625 -0.8166
13048TIP3   OH260634   0.289   4.607   0.195  0.0407  0.5514  0.3256
13048TIP3    H160635   0.246   4.593   0.279 -2.9756  1.9897 -0.8449
13048TIP3    H260636   0.241   4.550   0.134  1.2374  0.5954 -0.7060
13049TIP3   OH260637   5.210   1.514   4.713  0.0241 -0.0903 -0.3997
13049TIP3    H160638   5.128   1.530   4.667  0.2084  0.1444 -0.6565
13049TIP3    H260639   5.188   1.523   4.806 -0.4405 -0.9805 -0.4102
13050TIP3   OH260640   4.645   3.083   1.218 -0.1486 -0.2793 -0.4745
13050TIP3    H160641   4.660   3.070   1.125 -0.5750  3.0186 -1.1320
13050TIP3    H260642   4.549   3.090   1.227 -0.1902 -1.5892  0.4223
13051TIP3   OH260643   3.348   3.214   4.810  0.9406 -0.2963  0.5245
13051TIP3    H160644   3.363   3.303   4.841  0.5816 -0.6275  1.7301
13051TIP3    H260645   3.253   3.203   4.815  1.0009 -0.8081  0.5889
13052TIP3   OH260646   3.578   4.573   1.645 -0.3903  0.0055 -0.7249
13052TIP3    H160647   3.588   4.483   1.675  0.8209  0.5008  0.4514
13052TIP3    H260648   3.554   4.623   1.723 -1.0855  0.7044 -1.3666
13053TIP3   OH260649   7.015   2.522   5.262  0.1837 -0.1078 -0.0232
13053TIP3    H160650   7.026   2.461   5.190  1.0866 -0.9452  0.7857
13053TIP3    H260651   7.067   2.484   5.333 -1.2556  0.3010  1.2995
13054TIP3   OH260652   2.127   1.771  12.004 -0.2303 -0.4784  0.5472
13054TIP3    H160653   2.180   1.748  12.081  2.0522 -1.1444 -1.1130
13054TIP3    H260654   2.179   1.836  11.958 -2.3017  1.1099  0.3051
13055TIP3   OH260655   2.611   1.091   1.436 -0.2228  0.3813 -0.2974
13055TIP3    H160656   2.684   1.044   1.395  0.1608  1.5311 -0.9830
13055TIP3    H260657   2.643   1.180   1.448 -1.2404  0.7065  0.1251
13056TIP3   OH260658   4.696   0.857  14.106  0.1677 -0.0216 -0.6448
13056TIP3    H160659   4.689   0.900  14.191  1.0811 -1.1062  0.0096
13056TIP3    H260660   4.763   0.907  14.060 -0.8312  1.0095 -1.0359
13057TIP3   OH260661   5.534   2.490   1.402 -0.4364 -0.0371  0.1230
13057TIP3    H160662   5.621   2.465   1.370 -0.6768 -0.3964 -0.2566
13057TIP3    H260663   5.479   2.413   1.386 -1.1113  0.6012 -0.7539
13058TIP3   OH260664   5.678   2.397   5.070 -0.2477  0.4385 -0.2159
13058TIP3    H160665   5.631   2.327   5.023  1.0096 -0.0670 -0.7690
13058TIP3    H260666   5.763   2.358   5.091 -0.7526  0.6404  2.5476
13059TIP3   OH260667   0.352   6.229   4.762  0.2444  0.2163  0.0386
13059TIP3    H160668   0.331   6.242   4.670  1.9612 -0.1224 -0.4463
13059TIP3    H260669   0.274   6.258   4.810  0.1889  2.6423 -1.3814
13060TIP3   OH260670   5.321   5.739   0.284  0.0709  0.2138 -0.2176
13060TIP3    H160671   5.402   5.736   0.233 -0.2624  1.6486 -0.8875
13060TIP3    H260672   5.299   5.832   0.290 -2.3101 -0.1836 -1.3475
13061TIP3   OH260673   1.735   7.067   9.728  0.0422 -0.0988  0.0395
13061TIP3    H160674   1.732   6.973   9.740 -0.8113 -0.2551 -1.3096
13061TIP3    H260675   1.823   7.092   9.758 -0.8677 -0.7686  3.8266
13062TIP3   OH260676   4.772   4.265  12.731 -0.9701 -0.6707  0.4018
13062TIP3    H160677   4.827   4.332  12.773 -1.0386 -1.1525  1.2809
13062TIP3    H260678   4.832   4.194  12.710 -0.6310  0.1858 -1.7965
13063TIP3   OH260679   5.382   5.609   2.264  0.1914  0.1394  0.4260
13063TIP3    H160680   5.329   5.648   2.334  0.0953 -1.3988  1.2508
13063TIP3    H260681   5.324   5.608   2.188  0.1739  1.4905  0.3992
13064TIP3   OH260682   5.383   6.576  14.196  0.4999 -0.1650 -0.5778
13064TIP3    H160683   5.456   6.638  14.205  0.3543  0.3063 -2.2985
13064TIP3    H260684   5.368   6.543  14.284  2.4931  0.0760 -0.1134
13065TIP3   OH260685   5.182   3.005  14.044 -0.7206 -0.3988 -0.1003
13065TIP3    H160686   5.267   3.021  14.085  0.3443 -0.8532 -2.0073
13065TIP3    H260687   5.148   3.091  14.022  0.8175 -0.2664 -2.2581
13066TIP3   OH260688   6.754   6.945  14.255 -0.3381 -0.2878 -0.2164
13066TIP3    H160689   6.765   6.970  14.347 -1.2064 -0.4293 -0.0642
13066TIP3    H260690   6.679   6.885  14.255  0.1145 -0.8771 -0.9197
13067TIP3   OH260691   6.624   4.127   4.787 -0.5263 -0.1818 -0.1769
13067TIP3    H160692   6.546   4.180   4.767 -0.8307 -0.2681  0.7283
13067TIP3    H260693   6.681   4.186   4.835 -0.2814 -0.2966 -0.3251
13068TIP3   OH260694   6.220   7.083   1.111  0.7244  0.1911  0.1128
13068TIP3    H160695   6.210   7.077   1.016 -1.2653  0.1745  0.2810
13068TIP3    H260696   6.305   7.124   1.123  0.0931  2.2334 -1.7291
13069TIP3   OH260697   2.179   6.467   0.841 -0.9765  0.0176 -0.0790
13069TIP3    H160698   2.232   6.541   0.811 -0.6453  0.2859  1.1002
13069TIP3    H260699   2.224   6.389   0.807  0.2462  0.2384  0.9232
13070TIP3   OH260700   4.125   0.677  14.824  0.0964  0.1118 -0.4104
13070TIP3    H160701   4.062   0.746  14.847  0.6580  0.1261  1.2245
13070TIP3    H260702   4.182   0.718  14.758  0.0347  1.0154  0.0760
13071TIP3   OH260703   2.208   3.948  15.262  0.3725  0.4305 -0.2657
13071TIP3    H160704   2.192   3.938  15.356  2.0606  2.8665  0.3897
13071TIP3    H260705   2.301   3.930  15.252  0.2139  0.2536 -1.4652
13072TIP3   OH260706   2.479   4.885  11.053 -0.3131 -0.1524  0.1782
13072TIP3    H160707   2.398   4.861  11.098 -0.6045 -0.2772 -0.3907
13072TIP3    H260708   2.473   4.980  11.042  0.4613  0.0984  1.7133
13073TIP3   OH260709   4.214   4.753  11.632  0.4366 -0.2506  0.4034
13073TIP3    H160710   4.195   4.714  11.547  0.2075 -0.4435  0.5425
13073TIP3    H260711   4.291   4.808  11.617  0.0439  0.1825 -0.0651
13074TIP3   OH260712   2.836   5.706  13.166 -0.1694 -0.0016  0.1483
13074TIP3    H160713   2.792   5.669  13.242 -1.3967 -0.5680 -0.7964
13074TIP3    H260714   2.775   5.773  13.134  0.3923  0.3212 -0.2684
13075TIP3   OH260715   4.432   4.328   0.548  0.2296  0.4177 -0.3349
13075TIP3    H160716   4.513   4.331   0.600  1.0471 -0.2533 -1.4987
13075TIP3    H260717   4.451   4.264   0.478 -1.6116 -0.3852 -0.1622
13076TIP3   OH260718   6.321   6.463   4.228  0.3090  0.0113  0.1336
13076TIP3    H160719   6.319   6.371   4.204  1.0111 -0.0992  0.4769
13076TIP3    H260720   6.376   6.466   4.307 -0.0829  0.6591  0.3916
13077TIP3   OH260721   4.689   3.740   9.994  0.5670 -0.3937  0.2125
13077TIP3    H160722   4.709   3.672  10.058  0.7976 -2.1700 -1.6448
13077TIP3    H260723   4.772   3.753   9.947  0.9367  2.2847  1.4440
13078TIP3   OH260724   0.017   5.799   6.330  0.4044  0.6861 -0.4421
13078TIP3    H160725  -0.071   5.832   6.347 -0.4341 -1.6843  0.2725
13078TIP3    H260726   0.040   5.834   6.244 -1.8492  0.2479 -1.2795
13079TIP3   OH260727   3.123   0.252  11.092  0.1252 -0.4681  0.0031
13079TIP3    H160728   3.208   0.284  11.120 -0.3432  0.1218  0.7829
13079TIP3    H260729   3.123   0.263  10.997  0.3669  0.8979  0.1418
13080TIP3   OH260730   0.917   5.424  13.946 -0.3358 -0.2936  0.5853
13080TIP3    H160731   0.839   5.479  13.948 -0.1618 -0.0489  0.6899
13080TIP3    H260732   0.946   5.427  13.855 -0.6101 -0.6174  0.4831
13081TIP3   OH260733   4.949   4.286  14.499 -0.0037  0.9738 -0.0915
13081TIP3    H160734   4.997   4.290  14.417  1.3926 -1.3024  0.5129
13081TIP3    H260735   4.974   4.365  14.546  1.1064  1.1106 -0.8691
13082TIP3   OH260736   4.483   0.811  13.050 -0.2983  0.3314  0.1371
13082TIP3    H160737   4.400   0.837  13.010 -1.1287  1.4325  2.3476
13082TIP3    H260738   4.479   0.715  13.055 -1.6227  0.3909  0.5299
13083TIP3   OH260739   0.665   4.311  11.910  1.1512 -0.0700 -0.4394
13083TIP3    H160740   0.735   4.292  11.972  0.9137  0.1769 -0.0955
13083TIP3    H260741   0.617   4.228  11.902  0.3353  0.2646  0.7793
13084TIP3   OH260742   0.838   0.710  14.271 -0.3864  0.7368 -0.1069
13084TIP3    H160743   0.811   0.620  14.288 -0.0955  0.9111  1.4716
13084TIP3    H260744   0.907   0.727  14.335  3.9202  0.1751 -4.0349
13085TIP3   OH260745   0.694   0.913   0.318 -0.0524  0.2345  0.6330
13085TIP3    H160746   0.727   0.849   0.255  0.2404  0.4822  0.5291
13085TIP3    H260747   0.753   0.988   0.309 -0.5582  0.6284  0.5533
13086TIP3   OH260748   6.621   5.957   4.111 -0.1805  0.0367 -0.4536
13086TIP3    H160749   6.608   6.009   4.190 -0.6982  0.4895 -0.8350
13086TIP3    H260750   6.637   6.021   4.042 -2.3979 -0.1952 -1.2501
13087TIP3   OH260751   4.635   4.793  15.708 -0.1612 -0.6010 -0.1704
13087TIP3    H160752   4.544   4.823  15.698 -0.1103 -0.1397  0.6820
13087TIP3    H260753   4.684   4.872  15.729  0.2720 -0.9956  0.3292
13088TIP3   OH260754   5.587   2.920   2.068  0.1018  0.2614 -0.3868
13088TIP3    H160755   5.510   2.888   2.115  1.5486 -2.0855  0.5991
13088TIP3    H260756   5.565   2.909   1.976 -1.4074  1.4238 -0.1971
13089TIP3   OH260757   4.683   6.316   5.770  0.1511 -0.0601 -0.4171
13089TIP3    H160758   4.646   6.307   5.858  1.4659 -1.3487  0.0384
13089TIP3    H260759   4.747   6.245   5.764  0.8131  0.6424 -2.0514
13090TIP3   OH260760   6.086   6.336   3.201 -0.3103  0.6019  0.3222
13090TIP3    H160761   6.177   6.344   3.173 -0.2122 -0.0608  0.4419
13090TIP3    H260762   6.081   6.383   3.284  0.8418 -2.5252  2.3123
13091TIP3   OH260763   7.090   6.393   4.535  0.3265  0.2041  0.4544
13091TIP3    H160764   7.054   6.422   4.619 -1.2327  0.9884 -0.4307
13091TIP3    H260765   7.121   6.473   4.493  1.0751 -0.1774  0.2676
13092TIP3   OH260766   4.939   3.689   2.373  0.3173  0.6312  0.6706
13092TIP3    H160767   4.984   3.646   2.446  1.9367  1.1809  0.0465
13092TIP3    H260768   4.857   3.641   2.364  1.4191 -1.4534  0.9034
13093TIP3   OH260769   3.207   5.844   5.753  0.3410 -0.2924  0.0191
13093TIP3    H160770   3.250   5.872   5.834  2.0918  0.0962 -0.9867
13093TIP3    H260771   3.219   5.918   5.694 -0.3638 -0.8141 -0.7937
13094TIP3   OH260772   2.766   4.306   3.448 -0.5094 -0.6780  0.4305
13094TIP3    H160773   2.733   4.230   3.399  0.4131 -1.7457  1.4058
13094TIP3    H260774   2.773   4.275   3.538 -1.4779  1.0263  1.1468
13095TIP3   OH260775   6.589   6.255   4.066 -0.4141  0.1299 -0.2634
13095TIP3    H160776   6.501   6.225   4.089 -0.7845  1.7298  0.5815
13095TIP3    H260777   6.601   6.335   4.117  2.6007 -1.4096  1.7136
13096TIP3   OH260778   6.459   6.947   5.001 -0.4140  0.0961 -0.5928
13096TIP3    H160779   6.551   6.946   4.975  0.0167 -1.9951  0.8050
13096TIP3    H260780   6.446   7.035   5.037  0.5093  1.0278 -2.3774
13097TIP3   OH260781   4.773   4.486  10.109  0.2889  0.2049 -0.3351
13097TIP3    H160782   4.742   4.468  10.020  1.2104  1.8451 -1.0326
13097TIP3    H260783   4.796   4.578  10.108  0.4716  0.2182  1.5859
13098TIP3   OH260784   1.626   6.667  12.910 -0.1037 -0.2079  0.1917
13098TIP3    H160785   1.576   6.616  12.845  0.0811 -1.7483  1.2019
13098TIP3    H260786   1.559   6.705  12.967 -0.2110 -1.6682  1.1034
13099TIP3   OH260787   0.770   0.766   4.406 -0.1110 -0.1723  0.8009
13099TIP3    H160788   0.842   0.703   4.407  1.7981  1.8229 -0.4784
13099TIP3    H260789   0.758   0.787   4.313 -0.8963  1.0991  1.1666
13100TIP3   OH260790   0.882   5.865  15.391 -0.0428 -0.0634  0.5402
13100TIP3    H160791   0.963   5.912  15.408  0.1521 -0.6359  1.2539
13100TIP3    H260792   0.821   5.896  15.458  0.2685 -1.2191  1.4089
13101TIP3   OH260793   0.500   5.272   0.275  0.1077  0.1225  0.0707
13101TIP3    H160794   0.422   5.233   0.316  0.5812 -0.7973  0.1186
13101TIP3    H260795   0.465   5.340   0.218 -0.6538  0.5374  0.9971
13102TIP3   OH260796   0.995   4.924   1.135 -0.0370 -0.3718  0.1864
13102TIP3    H160797   0.908   4.958   1.156 -0.1497 -1.3213  1.4003
13102TIP3    H260798   0.979   4.841   1.091  0.2541 -0.2903 -0.0776
13103TIP3   OH260799   4.006   3.502   3.385 -0.0154 -0.1554  0.7447
13103TIP3    H160800   4.027   3.433   3.448 -3.0764 -2.3165 -0.3327
13103TIP3    H260801   4.043   3.471   3.302 -0.5967 -0.0582  0.4420
13104TIP3   OH260802   2.299   6.123   2.339  0.2650 -0.0135 -0.3803
13104TIP3    H160803   2.209   6.114   2.371  0.6555 -0.6188  0.5711
13104TIP3    H260804   2.289   6.145   2.246 -0.8805  1.1465 -0.0126
13105TIP3   OH260805   3.524   6.814  15.349 -0.2058  0.1047  1.0630
13105TIP3    H160806   3.549   6.861  15.269  0.0881  0.6367  1.4598
13105TIP3    H260807   3.471   6.741  15.318 -0.2530  0.4132  0.3929
13106TIP3   OH260808   3.729   6.522  14.900 -0.5948 -0.3042 -0.1487
13106TIP3    H160809   3.808   6.472  14.882 -0.0920  0.6374 -0.6279
13106TIP3    H260810   3.738   6.551  14.991 -1.0172 -1.2935  0.2184
13107TIP3   OH260811   3.420   0.658   4.026 -0.1771 -0.1404 -0.2428
13107TIP3    H160812   3.340   0.649   3.976 -0.1167 -2.5655 -0.0361
13107TIP3    H260813   3.390   0.667   4.117 -0.2330  0.2497 -0.3000
13108TIP3   OH260814   5.723   3.459   1.669 -0.4226 -0.6607  0.5027
13108TIP3    H160815   5.799   3.429   1.619 -0.3399 -0.5388  0.5552
13108TIP3    H260816   5.745   3.439   1.760 -0.8140 -1.4055  0.4388
13109TIP3   OH260817   4.478   4.450   2.338  0.6288 -0.6071  0.0216
13109TIP3    H160818   4.408   4.507   2.371  1.0654  0.6099 -1.0882
13109TIP3    H260819   4.558   4.486   2.376  0.8843 -0.6052 -0.5106
13110TIP3   OH260820   5.697   2.832   5.224  0.1131 -0.0086  0.2142
13110TIP3    H160821   5.624   2.889   5.251 -0.8800 -0.7773 -0.7780
13110TIP3    H260822   5.763   2.893   5.190 -1.4132  0.5513 -1.9540
13111TIP3   OH260823   6.485   3.883   2.601  0.6208 -0.3282 -0.2392
13111TIP3    H160824   6.516   3.969   2.573 -0.6847 -0.2433 -1.5236
13111TIP3    H260825   6.417   3.902   2.665 -1.0305 -0.2619 -1.9010
13112TIP3   OH260826   2.186   1.184  10.896 -0.7518  0.2182  0.1833
13112TIP3    H160827   2.269   1.136  10.902 -1.1160 -0.5648 -0.7252
13112TIP3    H260828   2.207   1.263  10.846 -0.8278 -0.7399 -1.4574
13113TIP3   OH260829   3.940   3.282  14.232  0.1318 -0.1090 -0.0782
13113TIP3    H160830   3.863   3.234  14.202 -0.9620  0.9887  0.8500
13113TIP3    H260831   4.009   3.259  14.170 -0.6404 -1.9928 -0.2814
13114TIP3   OH260832   1.310   3.209   2.386 -0.1028 -0.3698  0.5412
13114TIP3    H160833   1.317   3.273   2.315 -1.3492  0.4363  1.0977
13114TIP3    H260834   1.282   3.261   2.462  0.3550 -1.3440  1.4077
13115TIP3   OH260835   4.448   6.353   1.570  0.4455 -0.3449 -0.3311
13115TIP3    H160836   4.434   6.440   1.532 -1.0547 -0.4569 -0.0964
13115TIP3    H260837   4.442   6.367   1.664 -3.6353 -1.1991 -0.3129
13116TIP3   OH260838   1.663   6.983   1.458 -0.7194  0.5574 -0.1203
13116TIP3    H160839   1.750   6.988   1.419 -1.5424  1.2617 -1.9886
13116TIP3    H260840   1.675   6.934   1.539  1.4848  1.0600 -0.0952
13117TIP3   OH260841   2.172   6.976  13.147  0.5767  0.0207 -0.8811
13117TIP3    H160842   2.256   6.943  13.176  0.9464  0.3820 -1.5168
13117TIP3    H260843   2.184   6.995  13.054 -0.1978  0.0904 -0.9761
13118TIP3   OH260844   4.946   6.054   2.085 -0.1734 -0.1514  0.2211
13118TIP3    H160845   4.982   5.977   2.129  0.0375 -0.5507 -0.6370
13118TIP3    H260846   5.004   6.125   2.110  1.9427 -0.9707 -2.0038
13119TIP3   OH260847   6.952   6.571   3.494  0.1738  0.3426  0.0567
13119TIP3    H160848   6.895   6.581   3.570 -0.6052  0.7216 -0.5549
13119TIP3    H260849   7.021   6.512   3.523 -2.2728 -2.8958 -0.0764
13120TIP3   OH260850   1.946   4.846  14.922  0.0384 -0.3684  0.2414
13120TIP3    H160851   1.891   4.906  14.972  1.3432  0.9405  0.1492
13120TIP3    H260852   2.035   4.877  14.935  0.6662 -1.6931 -0.6310
13121TIP3   OH260853   5.611   4.388  10.324 -0.0773 -0.2500  0.6845
13121TIP3    H160854   5.536   4.442  10.348 -3.4994 -3.2199 -2.2028
13121TIP3    H260855   5.618   4.397  10.229  0.6350 -3.0130  0.3727
13122TIP3   OH260856   0.798   1.341   0.609  0.0591  0.1432  0.1328
13122TIP3    H160857   0.875   1.286   0.591  0.6844  0.5491  1.4688
13122TIP3    H260858   0.746   1.290   0.671 -0.3604  0.2098 -0.1638
13123TIP3   OH260859   4.300   5.624   0.609  0.0399 -0.4491 -0.1026
13123TIP3    H160860   4.268   5.685   0.675 -0.7669 -1.9744  0.9763
13123TIP3    H260861   4.244   5.639   0.533 -0.3624 -0.0814  0.2645
13124TIP3   OH260862   2.389   2.497   1.837  0.3085  0.2099  0.1170
13124TIP3    H160863   2.341   2.578   1.852  1.8668  1.2993 -0.4471
13124TIP3    H260864   2.460   2.522   1.777  1.7474 -1.2322  1.1310
13125TIP3   OH260865   5.265   1.859   2.065 -0.1389  0.5729 -0.4528
13125TIP3    H160866   5.245   1.778   2.111  0.2734 -0.0688 -1.3706
13125TIP3    H260867   5.323   1.906   2.124  1.5704 -0.8871 -0.8886
13126TIP3   OH260868   6.219   3.390   1.779  0.4649  0.1951 -0.5629
13126TIP3    H160869   6.293   3.426   1.730  1.9556  0.9037  2.0109
13126TIP3    H260870   6.148   3.451   1.764  1.0069  0.6121 -1.4840
13127TIP3   OH260871   6.854   2.082   5.981 -0.3104 -0.1976 -0.4981
13127TIP3    H160872   6.940   2.054   5.950  0.4992  1.3273  0.2253
13127TIP3    H260873   6.863   2.176   5.995 -2.3021  0.1262 -1.0058
13128TIP3   OH260874   7.114   1.767  12.355  0.2761 -0.1424 -0.1037
13128TIP3    H160875   7.203   1.782  12.388  0.2648 -0.9604  0.3037
13128TIP3    H260876   7.097   1.675  12.371  0.0490 -0.4423 -1.8876
13129TIP3   OH260877   6.054   6.740   9.665  0.2798 -0.5746 -0.4560
13129TIP3    H160878   6.112   6.815   9.650  1.8119 -1.4620  0.7287
13129TIP3    H260879   5.974   6.778   9.701  1.3150  0.4847  0.8472
13130TIP3   OH260880   3.731   2.715  14.126 -0.4373 -0.4830  0.2781
13130TIP3    H160881   3.799   2.670  14.176 -0.2280 -0.1607  0.2794
13130TIP3    H260882   3.762   2.805  14.118 -0.2502 -0.6288 -0.8143
13131TIP3   OH260883   2.141   3.029   0.767 -0.0654  0.4586 -0.4628
13131TIP3    H160884   2.113   3.090   0.835  0.1882 -1.9924  2.0173
13131TIP3    H260885   2.066   3.021   0.709 -0.7707  1.6789  0.2458
13132TIP3   OH260886   3.474   3.026   2.405 -0.1797 -0.2871  0.6224
13132TIP3    H160887   3.453   3.114   2.373 -0.4230 -0.4269  0.3971
13132TIP3    H260888   3.389   2.986   2.423 -0.0348  0.1170  2.3522
13133TIP3   OH260889   3.820   1.609   1.650  0.2911  0.0572  0.0249
13133TIP3    H160890   3.734   1.642   1.623  0.8757  0.1270 -1.9305
13133TIP3    H260891   3.819   1.516   1.627  1.2019  0.3595 -1.3502
13134TIP3   OH260892   5.881   0.214  10.462  0.1575 -0.4344  0.0977
13134TIP3    H160893   5.969   0.218  10.500  0.1797 -0.0314  0.0019
13134TIP3    H260894   5.842   0.135  10.502  1.0853 -1.4938 -1.0188
13135TIP3   OH260895   5.895   4.869  10.801  0.0080  0.1666  0.5175
13135TIP3    H160896   5.907   4.913  10.885 -2.1726  0.1124  0.9394
13135TIP3    H260897   5.884   4.941  10.738 -1.5106  0.2741  0.8603
13136TIP3   OH260898   5.635   6.621   3.029 -0.0598  0.1323  0.2750
13136TIP3    H160899   5.594   6.617   2.943 -0.6193  0.0524  0.5426
13136TIP3    H260900   5.702   6.553   3.027  0.6223  0.8159 -0.4501
13137TIP3   OH260901   2.643   3.851   0.654 -0.0624 -0.0177  0.1593
13137TIP3    H160902   2.569   3.911   0.651  0.2741  0.3674 -1.3348
13137TIP3    H260903   2.619   3.786   0.719 -0.7844  1.2818  1.2401
13138TIP3   OH260904   4.769   4.456   5.067 -0.0831 -0.3892  0.5330
13138TIP3    H160905   4.790   4.548   5.051 -2.2540 -0.2784 -2.6342
13138TIP3    H260906   4.854   4.412   5.065  0.8263  1.2724 -0.2578
13139TIP3   OH260907   5.174   6.102   5.109 -0.2514  0.0742  0.1171
13139TIP3    H160908   5.085   6.123   5.136 -0.5984  1.1373 -1.7341
13139TIP3    H260909   5.219   6.186   5.109  0.1419 -0.1304 -1.1109
13140TIP3   OH260910   2.547   6.783  12.542  0.4398  0.2209  0.0783
13140TIP3    H160911   2.530   6.850  12.476  1.9076 -0.5941 -1.1595
13140TIP3    H260912   2.463   6.738  12.553  0.0457  0.7252 -0.8124
13141TIP3   OH260913   2.185   4.061   9.768 -0.1719  0.3863 -0.2815
13141TIP3    H160914   2.222   4.142   9.732  0.3222 -0.0724 -0.8500
13141TIP3    H260915   2.243   3.992   9.734  0.5752 -0.0529  1.7568
13142TIP3   OH260916   6.288   3.082  13.190  0.1547 -0.1128 -0.5714
13142TIP3    H160917   6.355   3.087  13.121  0.2516  0.5554 -0.4397
13142TIP3    H260918   6.323   3.018  13.252  1.7502  1.7633  0.5930
13143TIP3   OH260919   3.366   1.069  13.779  0.5051 -0.4970 -0.0029
13143TIP3    H160920   3.313   1.002  13.823  2.0239 -1.2415  0.7816
13143TIP3    H260921   3.433   1.092  13.843 -1.3621  3.6718  0.7433
13144TIP3   OH260922   3.344   4.790   2.646 -0.0742 -0.2048  0.4284
13144TIP3    H160923   3.341   4.834   2.731  0.3173  3.4102 -1.2477
13144TIP3    H260924   3.429   4.748   2.644  0.3994  0.6573  1.4066
13145TIP3   OH260925   4.229   1.743   2.145 -0.0619  0.0322 -0.1634
13145TIP3    H160926   4.300   1.682   2.124 -1.8759 -2.2213 -0.1932
13145TIP3    H260927   4.210   1.726   2.238 -1.7678 -0.7939 -0.6343
13146TIP3   OH260928   6.352   5.073  11.978 -0.0159 -0.5103 -0.1001
13146TIP3    H160929   6.308   5.157  11.959  0.5354 -0.8942 -3.9790
13146TIP3    H260930   6.445   5.094  11.974  0.1256 -1.2753 -1.1597
13147TIP3   OH260931   2.889   1.499  14.753  0.3215  0.2823 -0.4761
13147TIP3    H160932   2.977   1.461  14.750  0.7154  0.8641  1.7726
13147TIP3    H260933   2.904   1.592  14.770 -0.7090  0.2819  0.5336
13148TIP3   OH260934   3.508   1.588   5.733  0.0435 -1.0744  0.9501
13148TIP3    H160935   3.579   1.542   5.778  1.5259 -1.4485 -1.5475
13148TIP3    H260936   3.540   1.678   5.724 -0.8169 -0.6731  1.7719
13149TIP3   OH260937   4.754   2.509  10.109 -0.6579  0.6259 -0.0394
13149TIP3    H160938   4.681   2.462  10.068 -0.0242 -0.2099 -0.2378
13149TIP3    H260939   4.759   2.473  10.197  0.4615 -0.4333 -0.5125
13150TIP3   OH260940   6.854   5.555  12.951 -0.2884 -0.1116 -0.0269
13150TIP3    H160941   6.827   5.524  13.037  0.9621 -1.0507  0.0558
13150TIP3    H260942   6.946   5.580  12.962 -0.0708 -0.3616 -1.1018
13151TIP3   OH260943   5.651   5.984   1.376  0.2377 -0.3280 -0.9625
13151TIP3    H160944   5.607   6.052   1.325 -1.2846  0.8083  1.6318
13151TIP3    H260945   5.715   6.032   1.429 -0.8868 -0.7947  0.9387
13152TIP3   OH260946   2.304   6.443   4.078  0.5225  1.0300  0.2360
13152TIP3    H160947   2.348   6.374   4.128 -0.7215  0.5802  0.7387
13152TIP3    H260948   2.259   6.397   4.008  0.0950  1.3935  0.2714
13153TIP3   OH260949   4.432   3.838   2.522 -0.1092 -0.0843 -0.0510
13153TIP3    H160950   4.393   3.903   2.581 -2.5084 -0.3743 -1.2297
13153TIP3    H260951   4.493   3.888   2.469  0.0758  0.6747  0.8459
13154TIP3   OH260952   1.372   6.643   2.789 -0.5302 -0.4993 -0.1072
13154TIP3    H160953   1.455   6.640   2.741 -0.7273  0.1274 -0.4982
13154TIP3    H260954   1.387   6.588   2.866  0.5410  0.3234  0.2917
13155TIP3   OH260955   6.384   1.190   2.345 -0.3962 -0.0602 -0.0848
13155TIP3    H160956   6.478   1.182   2.360 -0.7570 -2.1672  1.8411
13155TIP3    H260957   6.375   1.242   2.266  2.3326  1.3627  0.4448
13156TIP3   OH260958   3.746   4.075  15.060  0.3019 -0.6481 -0.2252
13156TIP3    H160959   3.827   4.026  15.045 -0.0297 -0.7775 -1.8220
13156TIP3    H260960   3.689   4.048  14.988 -0.1750  1.4912 -0.7095
13157TIP3   OH260961   2.917   4.261  12.540 -0.0968  0.3307  0.1361
13157TIP3    H160962   2.927   4.224  12.628  2.0073  0.3258 -0.0416
13157TIP3    H260963   2.922   4.186  12.482 -0.4784  0.4333 -0.0290
13158TIP3   OH260964   2.440   2.500  12.674  0.2280 -0.1978  0.1241
13158TIP3    H160965   2.450   2.416  12.628  0.4288 -0.6277  0.9302
13158TIP3    H260966   2.347   2.521  12.667  0.6997  1.4859 -3.4156
13159TIP3   OH260967   2.046   0.396   3.605 -0.5395 -0.0314 -0.3686
13159TIP3    H160968   2.098   0.386   3.685  1.0330  1.6248 -1.1233
13159TIP3    H260969   2.009   0.484   3.612  1.8843  1.3009 -2.6461
13160TIP3   OH260970   0.338   2.743   4.197  0.0291 -0.0119  0.3083
13160TIP3    H160971   0.279   2.682   4.242 -0.0622  0.3942  0.7501
13160TIP3    H260972   0.286   2.824   4.188  0.2585  0.1051  0.0184
13161TIP3   OH260973   0.484   4.524  11.909 -0.4723 -0.4163 -0.1769
13161TIP3    H160974   0.418   4.486  11.967  0.7623 -0.1945  1.4127
13161TIP3    H260975   0.556   4.461  11.909 -0.3644 -0.3324 -1.3677
13162TIP3   OH260976   0.407   2.512  12.524  0.1931  0.6192 -0.0216
13162TIP3    H160977   0.388   2.602  12.499  1.3876  1.0731  0.6361
13162TIP3    H260978   0.446   2.472  12.446  0.0006  0.7793 -0.1984
13163TIP3   OH260979   3.036   0.979  13.435  0.2240  0.0276 -0.2531
13163TIP3    H160980   3.105   0.916  13.413  0.9568  0.6845  0.1501
13163TIP3    H260981   3.078   1.044  13.491 -0.3476  1.2896 -1.2343
13164TIP3   OH260982   2.136   1.781  13.900  0.0935  0.4748  0.2038
13164TIP3    H160983   2.208   1.770  13.962  1.5333 -1.4207 -1.6649
13164TIP3    H260984   2.088   1.699  13.904 -1.0050  1.0988  0.2150
13165TIP3   OH260985   0.202   0.343  15.741 -0.2880 -0.8039  0.7669
13165TIP3    H160986   0.202   0.438  15.736  3.1972 -0.7673 -2.5690
13165TIP3    H260987   0.277   0.321  15.796  1.1042 -1.5428 -1.3421
13166TIP3   OH260988   6.205   1.459   4.769 -0.2963 -0.0030 -0.1327
13166TIP3    H160989   6.257   1.451   4.849 -0.6103  1.5360  0.2667
13166TIP3    H260990   6.163   1.545   4.777 -0.6094  0.0278 -1.7944
13167TIP3   OH260991   1.234   2.595  15.469 -0.3237  0.2433  0.1969
13167TIP3    H160992   1.242   2.630  15.558  1.6714 -0.3068  0.2750
13167TIP3    H260993   1.280   2.511  15.472 -1.8354 -0.6835 -0.9184
13168TIP3   OH260994   3.071   6.295   4.700 -0.1827  0.4167 -0.1951
13168TIP3    H160995   3.087   6.298   4.794  1.2952 -0.6358 -0.3815
13168TIP3    H260996   3.001   6.231   4.690 -0.5745  0.7721  0.1980
13169TIP3   OH260997   1.674   6.186  15.747  0.5421 -0.7997  0.3237
13169TIP3    H160998   1.668   6.226  15.834  2.5835  1.1640 -0.3333
13169TIP3    H260999   1.662   6.092  15.762  1.2282 -0.5578  2.7933
13170TIP3   OH261000   6.545   2.042   4.706  0.0194  0.9452  0.2172
13170TIP3    H161001   6.501   1.957   4.714  0.3221  0.6852 -0.7481
13170TIP3    H261002   6.504   2.096   4.773  0.4621 -0.2241  1.4916
13171TIP3   OH261003   5.144   3.553  10.882  0.5399  0.4616 -0.0961
13171TIP3    H161004   5.099   3.513  10.956  0.5293  1.6215  0.5573
13171TIP3    H261005   5.205   3.616  10.922  1.0928  0.5573 -1.0469
13172TIP3   OH261006   5.901   3.234   5.760  0.4455 -0.0696  0.8197
13172TIP3    H161007   5.877   3.180   5.684  0.7231  1.2389 -0.2303
13172TIP3    H261008   5.953   3.175   5.815  1.4152 -0.6612 -0.6707
13173TIP3   OH261009   0.791   6.042   2.565  0.2214  0.5258 -0.2391
13173TIP3    H161010   0.739   5.969   2.597  4.1157 -2.4968  0.0009
13173TIP3    H261011   0.761   6.056   2.475 -0.9714 -1.0361 -0.1170
13174TIP3   OH261012   2.307   1.321  12.269  0.0328  0.4047 -0.3979
13174TIP3    H161013   2.378   1.257  12.271  0.5906  1.0050  1.0690
13174TIP3    H261014   2.334   1.385  12.203  1.0430  0.8011  0.3710
13175TIP3   OH261015   2.298   6.183  15.383 -0.8121 -0.2196 -0.3932
13175TIP3    H161016   2.291   6.088  15.389  0.3447 -0.3691 -1.2348
13175TIP3    H261017   2.328   6.210  15.470  3.3944 -1.1394 -1.3307
13176TIP3   OH261018   4.370   4.405   1.547 -0.2296  0.0616  0.3040
13176TIP3    H161019   4.312   4.481   1.542  0.8976  0.9509  0.5389
13176TIP3    H261020   4.402   4.392   1.458  0.1553  0.3101  0.4084
13177TIP3   OH261021   5.591   3.185   4.998  0.3743  0.0338 -0.2263
13177TIP3    H161022   5.608   3.175   4.904  0.2300 -0.9300 -0.1620
13177TIP3    H261023   5.508   3.232   5.002  0.5512  0.3810 -0.5818
13178TIP3   OH261024   4.662   5.554   2.439  0.5997 -0.4401  0.0229
13178TIP3    H161025   4.667   5.463   2.407  1.5529  0.0328 -1.2675
13178TIP3    H261026   4.616   5.601   2.370 -1.4461 -0.2358  1.4624
13179TIP3   OH261027   4.738   6.659  14.292  0.0516 -0.3503 -0.3507
13179TIP3    H161028   4.705   6.641  14.204  2.1899  0.2718 -1.3597
13179TIP3    H261029   4.758   6.753  14.291 -1.1961 -0.0015  1.3195
13180TIP3   OH261030   5.448   1.033   3.260  0.3509 -0.2089  0.4645
13180TIP3    H161031   5.480   0.967   3.321  2.0428  1.0232  0.9958
13180TIP3    H261032   5.463   0.994   3.173 -1.4349 -1.6855  0.7551
13181TIP3   OH261033   4.282   1.666   4.211  0.0005 -0.6506 -0.2072
13181TIP3    H161034   4.282   1.684   4.117  0.3044 -0.9164 -0.2604
13181TIP3    H261035   4.198   1.623   4.227  0.0594 -0.8398 -0.4043
13182TIP3   OH261036   4.734   4.370   2.622 -0.1501  0.7956 -0.5036
13182TIP3    H161037   4.806   4.396   2.680 -0.8838  0.2291  0.7129
13182TIP3    H261038   4.682   4.449   2.611 -0.7805  0.5935  0.8060
13183TIP3   OH261039   0.076   7.031   0.511  0.1961 -0.6973 -0.3511
13183TIP3    H161040   0.142   7.087   0.469 -0.3124 -0.7549 -1.2520
13183TIP3    H261041   0.092   7.041   0.605 -0.3587  1.5211 -0.4487
13184TIP3   OH261042   5.169   3.021   0.625 -0.4111 -0.1937  0.1177
13184TIP3    H161043   5.146   2.950   0.685 -1.3383 -1.1521 -1.3056
13184TIP3    H261044   5.239   2.984   0.570 -0.0808  0.4170  0.1173
13185TIP3   OH261045   4.660   5.828   0.836 -0.0535  0.2541 -0.3414
13185TIP3    H161046   4.736   5.809   0.782 -0.0455  1.6521 -0.8525
13185TIP3    H261047   4.621   5.742   0.854  0.3963 -0.3038 -1.9029
13186TIP3   OH261048   2.956   3.650   4.657  0.0826 -0.1643  0.3013
13186TIP3    H161049   2.961   3.569   4.606  3.0027  1.2478 -1.9998
13186TIP3    H261050   3.044   3.686   4.652 -0.2919  1.6568  3.9428
13187TIP3   OH261051   4.202   4.938  10.504 -1.0096  0.3530  0.3454
13187TIP3    H161052   4.241   5.024  10.519 -0.5883  0.2661 -0.2486
13187TIP3    H261053   4.275   4.877  10.512 -0.7082  0.3035 -2.1745
13188TIP3   OH261054   3.825   5.395  12.319 -0.4667 -0.8266 -0.5949
13188TIP3    H161055   3.794   5.374  12.408 -0.1873 -1.0386 -0.5461
13188TIP3    H261056   3.811   5.314  12.270 -0.9508 -0.5989 -0.8387
13189TIP3   OH261057   2.255   5.237   1.986  0.7884 -0.0106 -0.7768
13189TIP3    H161058   2.335   5.185   1.982  2.5605  2.3980  0.9105
13189TIP3    H261059   2.193   5.181   2.033  2.4071 -0.8666  0.4285
13190TIP3   OH261060   5.991   2.803   2.534  0.4626 -0.1525 -0.0065
13190TIP3    H161061   5.945   2.731   2.577 -1.5391  0.5784 -0.8249
13190TIP3    H261062   6.083   2.789   2.556  0.0521 -2.5502  0.4279
13191TIP3   OH261063   5.180   0.056   4.039 -0.4268  0.2676  0.2960
13191TIP3    H161064   5.142   0.054   4.127 -1.3334  0.5732 -0.0751
13191TIP3    H261065   5.226  -0.028   4.032 -0.1330  0.3498  1.1514
13192TIP3   OH261066   2.641   0.239   2.962  0.0702 -0.0104 -0.0311
13192TIP3    H161067   2.730   0.244   2.926 -0.7637 -0.5449 -2.3330
13192TIP3    H261068   2.622   0.329   2.989  0.1635  0.8705 -2.6190
13193TIP3   OH261069   1.179   4.845  10.546  0.3917  0.6357 -0.2612
13193TIP3    H161070   1.091   4.864  10.514 -0.7389  0.1230  2.2832
13193TIP3    H261071   1.229   4.822  10.468 -0.9217  3.6840 -2.1407
13194TIP3   OH261072   5.157   3.452   3.780  0.1623  0.0507  0.7261
13194TIP3    H161073   5.203   3.532   3.804 -1.6367  0.9876  1.2069
13194TIP3    H261074   5.071   3.459   3.823  0.2332 -2.5228  1.4619
13195TIP3   OH261075   6.210   2.006  11.742 -0.4403  0.4542  0.2985
13195TIP3    H161076   6.139   2.060  11.705 -0.3463  0.8072  0.6278
13195TIP3    H261077   6.213   1.929  11.685 -1.6294  0.0381  0.7516
13196TIP3   OH261078   0.270   5.876   0.949  0.0111  0.0498  0.3284
13196TIP3    H161079   0.188   5.862   0.996 -0.0882 -0.7067 -0.0529
13196TIP3    H261080   0.301   5.961   0.980 -0.8536  0.2919  0.5663
13197TIP3   OH261081   6.487   3.210  13.651 -0.1459 -0.3936  0.1280
13197TIP3    H161082   6.438   3.269  13.594  1.9741 -0.4748 -1.9400
13197TIP3    H261083   6.487   3.253  13.737 -0.4192  1.5754 -0.8154
13198TIP3   OH261084   2.029   0.216   0.593 -0.1375  0.7574 -0.0991
13198TIP3    H161085   2.058   0.172   0.513 -0.7322  0.8704 -0.3789
13198TIP3    H261086   1.952   0.168   0.620 -0.8758  1.6954 -0.4839
13199TIP3   OH261087   2.631   5.961  10.783  0.4011 -0.2405  0.1305
13199TIP3    H161088   2.710   5.926  10.823 -0.2509  1.0246  2.7757
13199TIP3    H261089   2.567   5.890  10.788  0.8364 -0.6669 -0.3113
13200TIP3   OH261090   0.235   1.632   1.551 -0.5669 -0.7890  0.3443
13200TIP3    H161091   0.322   1.596   1.567 -1.2385 -2.6110  0.0606
13200TIP3    H261092   0.181   1.597   1.622 -0.9861  0.7499  0.8228
13201TIP3   OH261093   0.340   5.124   3.942 -0.2258 -0.4257 -0.3912
13201TIP3    H161094   0.294   5.085   4.016 -1.0826  0.2950 -0.5245
13201TIP3    H261095   0.346   5.053   3.878  1.0216 -1.2139  0.5631
13202TIP3   OH261096   1.513   2.266  10.541  0.0794 -0.1159  0.6726
13202TIP3    H161097   1.509   2.319  10.461  0.8946  0.2692  0.8785
13202TIP3    H261098   1.522   2.329  10.612  0.7922 -0.5160  0.9442
13203TIP3   OH261099   6.339   4.293   1.325 -0.2298  0.3786 -0.1383
13203TIP3    H161100   6.343   4.310   1.419  1.5046 -2.2415  0.3757
13203TIP3    H261101   6.428   4.310   1.294 -0.7790  1.2013 -1.3215
13204TIP3   OH261102   6.476   6.940   9.787 -0.2720 -0.0285  0.0341
13204TIP3    H161103   6.414   6.885   9.834  0.1182 -1.0443 -0.6057
13204TIP3    H261104   6.422   6.993   9.728 -0.6379  0.1576  0.5346
13205TIP3   OH261105   0.133   0.692  11.645  0.4780  0.0658  0.0199
13205TIP3    H161106   0.176   0.776  11.662  0.0283  0.4391 -0.6496
13205TIP3    H261107   0.205   0.631  11.631  0.8556  0.9984 -2.6741
13206TIP3   OH261108   2.410   3.599  11.780  0.5029  0.1331  0.0642
13206TIP3    H161109   2.435   3.687  11.754  2.9652 -0.1310  1.2767
13206TIP3    H261110   2.444   3.542  11.711 -0.4748  0.0421 -0.3638
13207TIP3   OH261111   6.658   5.198  12.921 -0.6916  0.2383  0.6410
13207TIP3    H161112   6.650   5.145  12.842  0.8801  0.3080  0.4020
13207TIP3    H261113   6.609   5.149  12.988 -2.0370  0.1842 -0.3572
13208TIP3   OH261114   6.349   1.026  14.720 -0.1316 -0.1973 -0.7106
13208TIP3    H161115   6.408   0.985  14.657 -0.4275 -0.7659 -0.6232
13208TIP3    H261116   6.377   0.992  14.805 -1.3237 -1.4219 -0.7705
13209TIP3   OH261117   5.858   3.719   2.820 -0.1473  0.3509 -0.2168
13209TIP3    H161118   5.821   3.706   2.908 -0.7961  0.0906 -0.5242
13209TIP3    H261119   5.922   3.648   2.810 -0.1247  0.3371  0.0142
13210TIP3   OH261120   2.661   6.098   2.642 -0.1196 -0.4523 -0.9607
13210TIP3    H161121   2.698   6.099   2.554 -0.5829  0.9529 -1.1656
13210TIP3    H261122   2.723   6.149   2.694  0.1342 -1.2459 -0.4710
13211TIP3   OH261123   4.930   3.677   1.925 -0.3528  0.3135 -0.2312
13211TIP3    H161124   4.978   3.608   1.878 -1.3689  0.3600 -1.3709
13211TIP3    H261125   4.842   3.641   1.937 -0.4767  0.8381  0.4889
13212TIP3   OH261126   4.109   2.475  15.267 -0.5230 -0.0122  0.3732
13212TIP3    H161127   4.043   2.500  15.203 -1.4630  0.7569  1.5805
13212TIP3    H261128   4.192   2.505  15.230 -0.4714 -2.8518 -2.1551
13213TIP3   OH261129   6.293   5.009   4.603 -1.0625 -0.4827 -0.3294
13213TIP3    H161130   6.217   5.056   4.567 -1.5408  0.1275  1.3894
13213TIP3    H261131   6.300   5.040   4.693  1.0118 -0.8294 -0.3254
13214TIP3   OH261132   4.092   3.514   1.844 -0.2618 -0.5809  0.1152
13214TIP3    H161133   4.137   3.463   1.910  1.7021  0.8653 -0.0148
13214TIP3    H261134   4.049   3.584   1.892  1.1791  0.4800 -0.0557
13215TIP3   OH261135   5.768   2.740   0.762  0.6849  0.4524  0.1676
13215TIP3    H161136   5.744   2.662   0.711  0.5583  1.3001 -1.1077
13215TIP3    H261137   5.711   2.809   0.727  2.1127  1.5496 -0.0483
13216TIP3   OH261138   7.146   3.207  15.405 -0.5632 -0.1814 -0.1040
13216TIP3    H161139   7.131   3.235  15.315 -3.3001 -2.0476 -0.3338
13216TIP3    H261140   7.133   3.113  15.404  0.1956 -0.3761  2.1162
13217TIP3   OH261141   1.297   1.513   4.243 -0.2464 -1.1177  0.0006
13217TIP3    H161142   1.369   1.527   4.304 -0.9901 -0.8969  0.8667
13217TIP3    H261143   1.277   1.420   4.251 -2.2030 -0.6090  2.3411
13218TIP3   OH261144   5.703   6.062  10.894 -0.2166 -0.1759 -0.0179
13218TIP3    H161145   5.692   6.145  10.849 -0.6758  0.2492  0.8509
13218TIP3    H261146   5.662   6.075  10.980  1.5368 -0.6040  0.9462
13219TIP3   OH261147   4.086   1.657  12.240 -0.3009 -0.2111 -0.1686
13219TIP3    H161148   4.171   1.676  12.202  0.6914 -1.7010  1.1797
13219TIP3    H261149   4.086   1.562  12.252 -1.2357 -0.0063  1.9043
13220TIP3   OH261150   3.297   0.647  14.201 -0.2914 -0.1321  0.4564
13220TIP3    H161151   3.282   0.606  14.116 -1.7392  2.1788 -0.5053
13220TIP3    H261152   3.353   0.722  14.182 -1.2138  0.8186  1.4078
13221TIP3   OH261153   2.397   2.584   5.177  0.1995 -0.0768  0.6500
13221TIP3    H161154   2.482   2.582   5.133 -0.4431 -0.3387 -0.6259
13221TIP3    H261155   2.383   2.494   5.206 -0.1306 -0.2785 -0.1217
13222TIP3   OH261156   2.508   4.139  11.811  0.7910  0.6793  0.0397
13222TIP3    H161157   2.518   4.218  11.759  0.4673  0.2891 -0.6311
13222TIP3    H261158   2.415   4.116  11.804  1.2695 -1.0132 -1.6766
13223TIP3   OH261159   3.185   6.809   3.433  0.2124  0.1031  0.0629
13223TIP3    H161160   3.165   6.902   3.423 -0.0166  0.1783  1.0684
13223TIP3    H261161   3.159   6.788   3.523 -1.2547 -1.3173 -0.6408
13224TIP3   OH261162   0.923   7.072   0.730 -0.3032 -0.3379  0.2794
13224TIP3    H161163   0.997   7.016   0.706 -0.9220 -0.4405 -1.6034
13224TIP3    H261164   0.962   7.158   0.744  0.1266 -0.1414 -1.7446
13225TIP3   OH261165   1.215   6.880   2.259  0.0926  0.0651  0.1622
13225TIP3    H161166   1.246   6.792   2.243  0.4020  0.1642  0.2185
13225TIP3    H261167   1.286   6.937   2.229  0.0460  0.2863  0.4660
13226TIP3   OH261168   5.867   3.778   0.975 -0.2744 -0.6968  0.0252
13226TIP3    H161169   5.919   3.708   1.013  0.0951 -0.5617 -0.2206
13226TIP3    H261170   5.776   3.749   0.983 -0.1093 -1.3173 -0.3003
13227TIP3   OH261171   5.819   6.937  11.699  0.2119 -0.2201  0.4162
13227TIP3    H161172   5.912   6.939  11.680  0.2568  0.7563  0.6522
13227TIP3    H261173   5.801   6.847  11.726  0.8564 -0.7114 -0.7141
13228TIP3   OH261174   5.211   6.294   3.073 -0.2669  0.2461 -0.7656
13228TIP3    H161175   5.121   6.302   3.105  0.3973 -0.5849  1.5186
13228TIP3    H261176   5.243   6.385   3.070 -0.7827  0.4558 -0.2940
13229TIP3   OH261177   5.875   3.904   1.259 -0.6286  0.3161  0.1096
13229TIP3    H161178   5.847   3.996   1.256  0.7417  0.7360 -0.6299
13229TIP3    H261179   5.833   3.864   1.183 -0.1323  0.6815 -0.3696
13230TIP3   OH261180   3.393   5.293  11.782 -0.2908 -0.4237 -0.2080
13230TIP3    H161181   3.390   5.205  11.745  1.4238 -1.4336  1.7919
13230TIP3    H261182   3.348   5.285  11.866 -0.4337  0.7169 -0.1579
13231TIP3   OH261183   3.831   2.462   5.284  0.6924  0.3741 -0.1570
13231TIP3    H161184   3.849   2.554   5.305  1.0678  0.1996  0.2982
13231TIP3    H261185   3.747   2.444   5.324  0.9777  0.3026  0.4122
13232TIP3   OH261186   6.848   6.328   2.680 -0.1253 -0.0159 -0.1469
13232TIP3    H161187   6.836   6.420   2.701  0.8190  0.0000  0.3969
13232TIP3    H261188   6.943   6.316   2.675 -0.2374 -0.8851 -0.5612
13233TIP3   OH261189   0.147   6.112  10.538  0.5168 -0.0134  0.4308
13233TIP3    H161190   0.094   6.174  10.588  0.6370  0.7034 -0.3006
13233TIP3    H261191   0.229   6.106  10.587  1.3949  2.1666 -0.6123
13234TIP3   OH261192   4.389   4.611   5.991 -0.1852  0.5851 -0.3157
13234TIP3    H161193   4.310   4.634   6.040  0.1066 -0.6638  0.7769
13234TIP3    H261194   4.423   4.695   5.962  1.0840  1.7618  3.9016
13235TIP3   OH261195   1.124   0.454   1.842  0.2255 -0.7113 -0.2264
13235TIP3    H161196   1.142   0.412   1.927 -1.8593 -0.4969  0.3613
13235TIP3    H261197   1.059   0.397   1.801  0.2738 -0.1192 -1.1410
13236TIP3   OH261198   1.559   0.315  10.224 -0.1366 -0.2222  0.0769
13236TIP3    H161199   1.558   0.386  10.159  0.5681  1.3195  1.6918
13236TIP3    H261200   1.646   0.275  10.214 -0.5215 -0.8809 -0.8092
13237TIP3   OH261201   1.926   6.651   2.321 -0.1521 -0.4310 -0.4232
13237TIP3    H161202   1.924   6.668   2.416 -0.0100 -2.0644 -0.0978
13237TIP3    H261203   1.940   6.556   2.314 -1.9500 -0.6472 -2.0672
13238TIP3   OH261204   0.991   0.420   3.664 -0.0615 -0.2312  0.7858
13238TIP3    H161205   0.899   0.442   3.647 -0.6031 -2.5922  0.2092
13238TIP3    H261206   1.007   0.450   3.753 -0.8310  1.7773  0.3031
13239TIP3   OH261207   5.801   1.513   1.476  0.3915 -0.0611 -0.2889
13239TIP3    H161208   5.752   1.466   1.409  0.4325 -0.0289 -0.3416
13239TIP3    H261209   5.848   1.581   1.428 -1.3813  1.4702  0.0312
13240TIP3   OH261210   3.933   5.155  13.764 -0.8974  0.6163  0.0593
13240TIP3    H161211   3.872   5.160  13.690  0.9155  0.1364 -1.5516
13240TIP3    H261212   3.950   5.246  13.787  0.7443  0.9288 -2.1117
13241TIP3   OH261213   2.389   4.839   3.304 -0.5968  0.1720 -0.2489
13241TIP3    H161214   2.469   4.866   3.348  0.5658 -2.3247 -0.6254
13241TIP3    H261215   2.342   4.787   3.369 -1.4036  0.7101 -0.3785
13242TIP3   OH261216   1.018   6.317   4.483  0.4813 -0.2460  0.0086
13242TIP3    H161217   0.965   6.355   4.554  1.6403 -1.6066  1.7015
13242TIP3    H261218   0.994   6.368   4.406 -0.6220  1.5428  1.4267
13243TIP3   OH261219   1.205   5.331  10.620 -0.0822  0.2495 -0.3308
13243TIP3    H161220   1.212   5.259  10.558  0.0623 -0.8531  0.9357
13243TIP3    H261221   1.112   5.336  10.642 -0.3264  1.4077 -1.4782
13244TIP3   OH261222   6.580   6.356   3.448 -0.2048 -0.3708  0.6608
13244TIP3    H161223   6.489   6.328   3.453 -0.3056 -0.6246 -1.5764
13244TIP3    H261224   6.585   6.404   3.366  0.9386  2.6217  2.3320
13245TIP3   OH261225   2.321   5.642   3.018 -0.2923 -0.0081 -0.0781
13245TIP3    H161226   2.394   5.703   3.027 -1.4949  1.4952 -0.1064
13245TIP3    H261227   2.332   5.581   3.091 -0.7676  2.1352  1.8957
13246TIP3   OH261228   6.512   2.786  12.932 -0.1169  0.0173  0.3777
13246TIP3    H161229   6.423   2.803  12.900 -0.1774 -0.0483  0.5138
13246TIP3    H261230   6.508   2.698  12.968 -0.5020  0.7245  2.1735
13247TIP3   OH261231   5.738   6.732   5.033 -0.1796  0.1481 -0.5950
13247TIP3    H161232   5.792   6.784   4.975  0.0441  0.4453 -0.1268
13247TIP3    H261233   5.678   6.796   5.073 -0.4702 -0.0836 -0.6596
13248TIP3   OH261234   5.417   7.028  11.159  0.6366  0.3898  1.0082
13248TIP3    H161235   5.507   7.058  11.168  1.6415 -2.6936  2.7090
13248TIP3    H261236   5.404   7.017  11.065  2.4010 -0.0957  0.7988
13249TIP3   OH261237   2.424   1.215   4.573  0.0596 -0.1170  0.4157
13249TIP3    H161238   2.484   1.245   4.505 -0.5008 -0.3660 -0.1959
13249TIP3    H261239   2.479   1.206   4.651  0.8121 -0.3303 -0.1302
13250TIP3   OH261240   4.228   0.895   4.692 -0.4013 -0.1398 -0.3859
13250TIP3    H161241   4.269   0.916   4.776 -1.0605  0.9438 -0.3190
13250TIP3    H261242   4.148   0.848   4.716  0.2399 -1.3219 -0.4830
13251TIP3   OH261243   4.669   3.489  10.112 -0.2322 -0.1636 -0.7305
13251TIP3    H161244   4.681   3.431  10.187 -0.2766 -0.0283 -0.6178
13251TIP3    H261245   4.754   3.487  10.067 -0.3058 -0.4913 -0.8563
13252TIP3   OH261246   4.871   2.906   2.536 -0.3956  0.9935  0.8433
13252TIP3    H161247   4.953   2.918   2.489  0.2650  1.0996  2.0007
13252TIP3    H261248   4.804   2.939   2.475  0.5066  1.8219  0.2657
13253TIP3   OH261249   0.894   4.807  14.642  0.2170 -0.5261  0.1583
13253TIP3    H161250   0.906   4.733  14.582  1.2969 -0.3119  0.0923
13253TIP3    H261251   0.971   4.862  14.627 -0.7582  0.8262 -0.0811
13254TIP3   OH261252   6.330   2.822   1.947 -0.1322  0.0088  0.1869
13254TIP3    H161253   6.258   2.870   1.907  0.4000  0.7669  0.1292
13254TIP3    H261254   6.302   2.808   2.038 -1.5675 -2.1618 -0.4992
13255TIP3   OH261255   0.324   0.890   4.164 -0.1287  0.1136 -0.4457
13255TIP3    H161256   0.419   0.901   4.161  0.0216 -1.0576 -0.4321
13255TIP3    H261257   0.293   0.964   4.217  1.0395 -0.8570  1.7166
13256TIP3   OH261258   2.863   4.888  14.844 -0.2157 -0.2675  0.6473
13256TIP3    H161259   2.806   4.940  14.786  0.5981  0.5109  0.5179
13256TIP3    H261260   2.951   4.919  14.824  0.1194 -0.2857  1.9955
13257TIP3   OH261261   6.207   7.150  10.249  0.2326 -0.1653 -0.3487
13257TIP3    H161262   6.272   7.166  10.181 -0.2163  0.5632 -0.6184
13257TIP3    H261263   6.174   7.062  10.232 -0.1376  0.1528 -1.2913
13258TIP3   OH261264   4.843   6.785  15.058 -0.3103  0.5893  0.0115
13258TIP3    H161265   4.797   6.722  15.002 -0.1474  0.7185 -0.2703
13258TIP3    H261266   4.773   6.837  15.097 -0.4233  0.5362 -0.1177
13259TIP3   OH261267   4.451   2.605  14.610  0.4568  0.0866  0.3070
13259TIP3    H161268   4.534   2.651  14.602  0.3587  0.4280  1.1335
13259TIP3    H261269   4.385   2.675  14.610  0.2129 -0.1398  0.3169
13260TIP3   OH261270   6.783   4.948   4.125 -0.5924  0.1994  0.4542
13260TIP3    H161271   6.787   5.043   4.132 -0.7927  0.2312  0.1463
13260TIP3    H261272   6.789   4.917   4.215 -2.1230  0.5512  0.7062
13261TIP3   OH261273   2.477   4.847  14.969 -0.4911  0.0084  0.2532
13261TIP3    H161274   2.421   4.829  15.044  0.4550 -0.1869  0.9226
13261TIP3    H261275   2.453   4.781  14.904 -0.9832 -0.1121  0.5548
13262TIP3   OH261276   2.252   5.759   0.414  0.5065 -0.1764  0.3187
13262TIP3    H161277   2.317   5.694   0.440  0.6794 -0.2766 -0.3281
13262TIP3    H261278   2.280   5.786   0.326  0.0260  0.2366  0.2907
13263TIP3   OH261279   3.465   5.259  12.604  0.3325  0.1611  0.4813
13263TIP3    H161280   3.423   5.338  12.638 -1.8951 -0.8477  0.2050
13263TIP3    H261281   3.540   5.246  12.662 -0.5107  1.2472  1.9034
13264TIP3   OH261282   1.989   5.730   0.017 -0.1005  0.1656  0.2958
13264TIP3    H161283   2.004   5.820   0.047 -1.0845  0.3408  0.3059
13264TIP3    H261284   1.938   5.689   0.088 -2.4087  0.5659 -1.0294
13265TIP3   OH261285   3.290   6.337   1.874 -0.0247 -0.8320 -0.0476
13265TIP3    H161286   3.197   6.353   1.883  0.0164 -1.3943  1.7214
13265TIP3    H261287   3.322   6.325   1.963  2.3564  2.4685 -0.2615
13266TIP3   OH261288   2.467   0.842  11.824 -0.0640 -0.2517  0.2636
13266TIP3    H161289   2.531   0.909  11.800 -1.4878  1.6942  1.5137
13266TIP3    H261290   2.431   0.812  11.741 -1.6644  2.9569 -0.3598
13267TIP3   OH261291   2.171   5.437   9.710 -0.1586  0.2506  0.3516
13267TIP3    H161292   2.232   5.384   9.762  0.1364  1.1871  0.9824
13267TIP3    H261293   2.169   5.522   9.755 -1.7536  0.3141  0.2190
13268TIP3   OH261294   7.057   0.847  12.485  0.1373  0.4649  0.0896
13268TIP3    H161295   7.072   0.804  12.569 -0.3295  2.8050  1.4507
13268TIP3    H261296   6.962   0.841  12.472  0.3230 -0.8860 -0.8956
13269TIP3   OH261297   2.135   6.442   9.658  0.4256  0.4277  0.5963
13269TIP3    H161298   2.118   6.354   9.692 -0.4243 -0.0872 -1.0224
13269TIP3    H261299   2.230   6.453   9.665  0.2915  0.5175  3.3409
13270TIP3   OH261300   5.328   2.200   1.026 -0.1294 -0.1295  0.3018
13270TIP3    H161301   5.290   2.247   0.951 -0.1284 -2.2301 -1.1053
13270TIP3    H261302   5.253   2.180   1.082 -0.2856  0.4934  0.3293
13271TIP3   OH261303   0.425   5.063  13.969  0.6738  0.6705  0.1489
13271TIP3    H161304   0.359   5.108  14.020  0.8979  2.3867 -1.0045
13271TIP3    H261305   0.433   4.977  14.010  0.0100  1.5532  2.2362
13272TIP3   OH261306   5.192   3.855  15.449 -0.3436  0.5003  0.5355
13272TIP3    H161307   5.131   3.786  15.478 -0.7628  1.2271  1.4636
13272TIP3    H261308   5.258   3.859  15.518 -1.2542  2.1412  1.4005
13273TIP3   OH261309   1.902   0.382  15.099  0.7512 -0.6161  0.0588
13273TIP3    H161310   1.933   0.389  15.009 -0.6231 -0.4109 -0.4250
13273TIP3    H261311   1.837   0.452  15.107  0.4841 -0.9630  1.0496
13274TIP3   OH261312   6.865   3.142  10.454 -0.6188 -0.3769  0.6127
13274TIP3    H161313   6.846   3.053  10.485 -0.2918 -0.5288  0.3904
13274TIP3    H261314   6.905   3.186  10.529  0.8033 -0.9520  0.2252
13275TIP3   OH261315   1.532   6.318  10.988 -0.2109  0.0600 -0.4023
13275TIP3    H161316   1.623   6.296  10.973  0.3156  2.4702 -1.1412
13275TIP3    H261317   1.525   6.329  11.083 -0.3117 -2.1569 -0.0902
13276TIP3   OH261318   0.428   4.975  13.696  0.1271  0.5069  0.5847
13276TIP3    H161319   0.334   4.991  13.689 -0.0284 -0.7474 -0.5625
13276TIP3    H261320   0.453   5.016  13.779 -1.5002  0.5169  1.1051
13277TIP3   OH261321   0.376   4.664   5.473  0.1208  0.3444 -0.0114
13277TIP3    H161322   0.465   4.634   5.451 -0.4253  0.0603 -2.0667
13277TIP3    H261323   0.390   4.748   5.516  1.3798  1.2303 -1.9609
13278TIP3   OH261324   1.913   6.956   4.924 -0.0396  0.3819 -0.2839
13278TIP3    H161325   1.965   6.960   4.844  0.0465 -0.4064 -0.2760
13278TIP3    H261326   1.961   6.896   4.981 -0.7145 -0.0019 -0.1032
13279TIP3   OH261327   0.446   1.918   3.522  0.3225  0.2966 -0.0607
13279TIP3    H161328   0.354   1.933   3.499  0.1079 -1.4518 -0.5047
13279TIP3    H261329   0.491   1.998   3.496 -0.7574  0.3897 -1.7872
13280TIP3   OH261330   6.590   0.811  15.501  0.1631  0.4079 -0.5846
13280TIP3    H161331   6.541   0.855  15.570  1.3095  0.1406  0.4330
13280TIP3    H261332   6.648   0.877  15.466  1.8048 -0.1789  0.8684
13281TIP3   OH261333   1.033   5.675   5.606 -0.1243  0.2396  0.0472
13281TIP3    H161334   1.083   5.678   5.523 -0.3832  2.3579 -0.0949
13281TIP3    H261335   1.097   5.700   5.672 -0.3755  0.4843  0.2007
13282TIP3   OH261336   0.561   6.101   2.194  0.2155  0.1224  0.4195
13282TIP3    H161337   0.622   6.174   2.198  3.4097 -2.2893 -0.1554
13282TIP3    H261338   0.591   6.040   2.261 -1.3970 -1.3312 -0.0928
13283TIP3   OH261339   0.503   1.411  14.321 -0.0518  0.5679 -0.4762
13283TIP3    H161340   0.485   1.469  14.394 -0.3076  0.6892 -0.6330
13283TIP3    H261341   0.473   1.459  14.244  1.6961  1.1223 -0.8471
13284TIP3   OH261342   2.074   5.335   1.234  0.2151  0.1694  0.0004
13284TIP3    H161343   2.076   5.244   1.266  0.1885  0.2699  0.2976
13284TIP3    H261344   2.022   5.331   1.154 -0.8451  0.1070  0.6629
13285TIP3   OH261345   4.626   2.991  11.817  0.5727 -0.7780 -0.4181
13285TIP3    H161346   4.532   2.999  11.834  0.3580 -2.3469 -0.7317
13285TIP3    H261347   4.655   3.081  11.800 -0.5403 -0.0507  1.2767
13286TIP3   OH261348   0.837   2.846   3.134  0.3811 -0.0561 -0.3123
13286TIP3    H161349   0.794   2.885   3.058  2.1056 -1.0504 -1.8810
13286TIP3    H261350   0.812   2.753   3.131  0.7745 -0.1818  0.0927
13287TIP3   OH261351   6.716   1.440   3.696  0.1221 -0.0557  0.0159
13287TIP3    H161352   6.631   1.425   3.656 -0.2264 -0.4850  0.8841
13287TIP3    H261353   6.759   1.355   3.694  0.6114  0.1990 -0.5836
13288TIP3   OH261354   1.934   1.281   0.785 -0.5607 -0.6235 -0.3119
13288TIP3    H161355   1.941   1.246   0.873  0.9033  2.5563  0.9775
13288TIP3    H261356   2.019   1.321   0.768 -1.1976 -0.0997 -2.7239
13289TIP3   OH261357   2.958   4.659   5.145  0.4815 -0.5299  0.2173
13289TIP3    H161358   2.976   4.571   5.112 -1.0101 -0.4281 -0.9826
13289TIP3    H261359   2.928   4.645   5.235 -0.3391 -1.3283 -0.1619
13290TIP3   OH261360   5.229   2.958   3.267 -0.0294 -0.5356  0.3167
13290TIP3    H161361   5.179   3.032   3.233 -1.4904 -2.0348 -1.0202
13290TIP3    H261362   5.251   2.982   3.357 -2.8844  0.3671  0.8617
13291TIP3   OH261363   4.514   1.413  12.846  0.2336 -0.5749 -0.3504
13291TIP3    H161364   4.521   1.502  12.880 -0.9940  0.9733 -3.7060
13291TIP3    H261365   4.576   1.410  12.773  1.8166 -3.2690  0.9542
13292TIP3   OH261366   5.147   6.095  11.686  0.1877  0.0363  0.0070
13292TIP3    H161367   5.181   6.117  11.773  0.7419 -1.0606  0.0843
13292TIP3    H261368   5.058   6.128  11.686  0.2759  0.2967  0.8955
13293TIP3   OH261369   0.002   4.407   5.469 -0.0580  1.0286  0.1386
13293TIP3    H161370   0.016   4.405   5.563 -0.7566 -0.4218  0.2319
13293TIP3    H261371   0.090   4.415   5.432  0.3589  0.0390  0.8813
13294TIP3   OH261372   1.584   3.795  14.597 -0.3938  0.2651  0.1703
13294TIP3    H161373   1.573   3.701  14.582  0.3804  0.0008  1.1488
13294TIP3    H261374   1.495   3.830  14.597 -0.6703 -0.4068 -0.5183
13295TIP3   OH261375   1.340   3.229   1.240  0.0778 -0.0458 -0.0580
13295TIP3    H161376   1.398   3.294   1.280  0.5008 -0.9501  0.8329
13295TIP3    H261377   1.330   3.258   1.150 -0.1484  1.5370  0.4488
13296TIP3   OH261378   4.236   3.199   1.085  0.2334 -0.1370 -0.4470
13296TIP3    H161379   4.201   3.288   1.087 -1.8519 -0.9092  0.1717
13296TIP3    H261380   4.327   3.209   1.059  0.7538  2.3928  1.9181
13297TIP3   OH261381   4.680   4.387   0.690 -0.2147 -0.0214 -0.1143
13297TIP3    H161382   4.646   4.465   0.734 -2.5541  0.3109 -2.2898
13297TIP3    H261383   4.721   4.420   0.610 -2.1071 -0.9885 -1.5610
13298TIP3   OH261384   1.740   2.834  11.845 -0.3111 -0.3178 -0.2147
13298TIP3    H161385   1.650   2.836  11.815 -0.2033  0.7677 -0.5107
13298TIP3    H261386   1.761   2.925  11.865  0.0661 -0.7981  1.8286
13299TIP3   OH261387   0.882   4.699   5.551 -0.0328 -0.6354 -0.4146
13299TIP3    H161388   0.971   4.666   5.559 -0.1299 -0.5975  1.1943
13299TIP3    H261389   0.868   4.750   5.631 -1.0534  0.4519 -1.2523
13300TIP3   OH261390   6.300   2.792  14.741 -0.0213  0.5814  0.1553
13300TIP3    H161391   6.301   2.697  14.725 -0.6452  0.6393 -0.2814
13300TIP3    H261392   6.214   2.820  14.708  0.3157  1.3554 -0.0712
13301TIP3   OH261393   6.081   2.294   3.738 -0.1486 -0.3488  0.3525
13301TIP3    H161394   6.057   2.217   3.686 -0.9819 -0.2780  0.6195
13301TIP3    H261395   6.152   2.335   3.689  1.7450 -2.3983  1.2421
13302TIP3   OH261396   3.801   6.390   1.915  0.0932  0.5125  0.0562
13302TIP3    H161397   3.728   6.374   1.974  0.6870  1.4808  1.0662
13302TIP3    H261398   3.777   6.343   1.835 -0.7119 -0.8366  1.0517
13303TIP3   OH261399   4.362   6.847   1.552 -0.3770  0.1239  0.2225
13303TIP3    H161400   4.269   6.834   1.531 -0.5020  1.4419 -0.0954
13303TIP3    H261401   4.363   6.866   1.646 -0.3097 -0.9446  0.4475
13304TIP3   OH261402   4.891   5.030   1.984  0.3093 -0.4771 -0.2966
13304TIP3    H161403   4.810   4.981   2.002 -0.0192 -0.3845 -1.4152
13304TIP3    H261404   4.958   4.963   1.976 -0.3395 -0.9517 -2.9626
13305TIP3   OH261405   1.744   5.612  13.984  0.6526 -0.2935 -0.0790
13305TIP3    H161406   1.666   5.584  14.032  0.3108  1.9369  0.8199
13305TIP3    H261407   1.720   5.604  13.892 -0.0772 -1.0622  0.1668
13306TIP3   OH261408   4.684   1.437  11.183  0.2574 -0.3626 -0.2464
13306TIP3    H161409   4.597   1.421  11.147 -1.2290  0.0459  2.7925
13306TIP3    H261410   4.699   1.531  11.168  1.8293 -1.0041 -3.7610
13307TIP3   OH261411   6.131   6.319  11.071 -0.0434  0.0662  0.4184
13307TIP3    H161412   6.194   6.391  11.076 -0.6157  0.6519 -0.5946
13307TIP3    H261413   6.186   6.240  11.074  0.9446  0.5611 -2.2169
13308TIP3   OH261414   1.694   3.906   3.374 -0.3832 -0.1363 -0.3547
13308TIP3    H161415   1.629   3.963   3.333  0.1599  0.3196 -0.5947
13308TIP3    H261416   1.738   3.961   3.438  0.0513 -0.3174 -0.4910
13309TIP3   OH261417   3.673   5.243  13.337  0.9720 -0.2086  0.7667
13309TIP3    H161418   3.683   5.184  13.263  1.6209  0.6028  0.1886
13309TIP3    H261419   3.594   5.294  13.317  0.5904 -0.6567  1.1138
13310TIP3   OH261420   3.867   0.754   3.999 -0.4734 -0.2155 -0.0796
13310TIP3    H161421   3.814   0.751   4.079 -1.5055 -0.5939 -0.7478
13310TIP3    H261422   3.938   0.692   4.014 -1.1242 -0.9056  0.2502
13311TIP3   OH261423   1.360   3.195   1.897  0.2700  0.7892  0.3987
13311TIP3    H161424   1.450   3.229   1.898  0.4915  0.8152 -3.4211
13311TIP3    H261425   1.320   3.238   1.821 -1.2863 -2.9596 -1.1449
13312TIP3   OH261426   1.538   0.587  11.411  0.2845  0.3425  0.3700
13312TIP3    H161427   1.547   0.521  11.480 -2.4740 -0.8222 -0.2593
13312TIP3    H261428   1.474   0.550  11.351  0.6027  2.5004 -1.4139
13313TIP3   OH261429   3.784   3.147   5.289 -0.1198 -0.2179 -0.2499
13313TIP3    H161430   3.787   3.217   5.224  1.2122 -0.7731 -0.8232
13313TIP3    H261431   3.874   3.140   5.320 -0.9598  1.1325  2.8912
13314TIP3   OH261432   3.754   3.471   3.251 -0.1926  0.0899 -0.1145
13314TIP3    H161433   3.750   3.375   3.249  1.1178  0.0186 -0.1055
13314TIP3    H261434   3.822   3.490   3.315 -0.2977  1.0337 -0.2749
13315TIP3   OH261435   0.683   1.064  12.056  0.1795  0.6938 -0.2266
13315TIP3    H161436   0.719   1.062  12.145  1.7754  1.1570 -0.8156
13315TIP3    H261437   0.596   1.025  12.065  0.6211 -0.0606  1.3903
13316TIP3   OH261438   6.494   2.144   3.199 -0.3241  0.7348 -0.0874
13316TIP3    H161439   6.494   2.188   3.284 -1.2077  0.4876  0.0535
13316TIP3    H261440   6.584   2.152   3.168 -0.2887  1.9808  0.2706
13317TIP3   OH261441   0.379   5.514  15.127  0.9557 -0.1487  0.1297
13317TIP3    H161442   0.315   5.509  15.197  0.9170 -2.1369  0.0231
13317TIP3    H261443   0.461   5.536  15.170  1.3489 -3.1946  1.2032
13318TIP3   OH261444   3.225   0.062   2.311 -0.2987  0.2752  0.0049
13318TIP3    H161445   3.206  -0.027   2.340 -0.0610  0.1800 -0.1305
13318TIP3    H261446   3.173   0.074   2.232 -0.2843  0.2345 -0.0108
13319TIP3   OH261447   4.240   2.882  15.624  0.0617 -0.0585 -0.6077
13319TIP3    H161448   4.325   2.839  15.612  0.4655  0.8578 -1.1345
13319TIP3    H261449   4.254   2.944  15.695  0.5284  1.7664 -2.2103
13320TIP3   OH261450   0.517   0.729  13.423  0.0636 -0.0669  0.7618
13320TIP3    H161451   0.505   0.788  13.349 -0.7686  0.0813  1.0052
13320TIP3    H261452   0.449   0.662  13.412  1.7569 -1.7447 -0.2014
13321TIP3   OH261453   5.897   6.668  11.769  0.4499  0.6415 -0.7313
13321TIP3    H161454   5.900   6.673  11.865 -1.2375 -0.1401 -0.6092
13321TIP3    H261455   5.951   6.593  11.747 -0.1926  0.0350 -0.2813
13322TIP3   OH261456   5.705   3.406   2.989 -0.3081  0.2545  0.0439
13322TIP3    H161457   5.677   3.318   3.012 -1.6539  0.2681 -1.4269
13322TIP3    H261458   5.676   3.460   3.063 -0.4087 -0.3610  0.4643
13323TIP3   OH261459   5.065   1.963   0.662 -0.5827  0.1992  0.0918
13323TIP3    H161460   5.149   1.997   0.692 -0.5964  0.5042 -0.2002
13323TIP3    H261461   5.044   2.017   0.585 -0.7238 -0.3123 -0.2336
13324TIP3   OH261462   3.023   0.958   3.558 -0.1034  0.2957 -0.1721
13324TIP3    H161463   2.958   0.950   3.628 -1.3032  0.6893 -1.2121
13324TIP3    H261464   2.972   0.967   3.478  1.2518 -0.7560 -1.1959
13325TIP3   OH261465   6.124   3.693  14.476 -0.2878 -0.0490  0.2737
13325TIP3    H161466   6.128   3.601  14.502  0.5302 -0.3812 -0.9598
13325TIP3    H261467   6.152   3.694  14.385 -0.2368  1.4367  0.2796
13326TIP3   OH261468   4.037   1.493   3.354 -0.3906  0.2368  0.3181
13326TIP3    H161469   4.018   1.472   3.262 -1.6983  3.1949 -0.1923
13326TIP3    H261470   4.129   1.518   3.354  0.1332 -1.5820  0.2243
13327TIP3   OH261471   0.117   3.126  11.311  0.5027 -0.3753  0.0053
13327TIP3    H161472   0.135   3.214  11.277 -0.5777 -0.4301 -0.7289
13327TIP3    H261473   0.124   3.069  11.235 -0.8361 -0.6486  0.0724
13328TIP3   OH261474   6.011   0.182  14.638 -0.0270 -0.1362 -0.1456
13328TIP3    H161475   6.074   0.179  14.566 -0.9907 -1.0910 -0.9691
13328TIP3    H261476   5.939   0.236  14.606 -0.0925  0.1104  0.4038
13329TIP3   OH261477   3.463   6.988   2.159  0.3087 -0.0066 -0.4528
13329TIP3    H161478   3.408   6.960   2.086 -0.7687  1.4660 -0.2512
13329TIP3    H261479   3.530   7.044   2.118 -0.9431  1.7186 -0.2475
13330TIP3   OH261480   0.419   4.249   5.058  0.0594 -0.7137 -0.6579
13330TIP3    H161481   0.335   4.243   5.013  0.4877 -0.5294 -1.5025
13330TIP3    H261482   0.458   4.162   5.048  0.2853 -0.5843 -0.8933
13331TIP3   OH261483   5.524   3.549  12.546  0.2135 -0.2020 -0.6137
13331TIP3    H161484   5.473   3.469  12.554  1.3625 -1.0058 -1.0214
13331TIP3    H261485   5.610   3.520  12.515  1.3088  0.9684  1.1498
13332TIP3   OH261486   3.344   7.126  10.242 -0.0842  0.3019  0.1642
13332TIP3    H161487   3.346   7.123  10.147 -1.4058  0.5905  0.0972
13332TIP3    H261488   3.425   7.170  10.267 -0.4127  1.5859 -0.9113
13333TIP3   OH261489   4.603   3.207   2.872 -0.3570 -0.4502 -0.3773
13333TIP3    H161490   4.682   3.205   2.927  0.2421 -0.3810 -1.2214
13333TIP3    H261491   4.628   3.257   2.795 -1.6760  0.8476 -0.0170
13334TIP3   OH261492   4.929   4.668  15.172 -0.4288  0.1404  0.6328
13334TIP3    H161493   4.916   4.642  15.081 -0.7626  0.4053  0.6012
13334TIP3    H261494   5.021   4.648  15.190  0.0554  1.4713 -0.2282
13335TIP3   OH261495   3.864   5.129   5.435 -0.1225 -0.4783  0.0168
13335TIP3    H161496   3.802   5.065   5.402 -1.1767  1.1307 -1.2561
13335TIP3    H261497   3.819   5.170   5.509 -1.6831  2.2295 -2.2231
13336TIP3   OH261498   3.790   1.954   5.134  0.0613  0.1345 -0.4884
13336TIP3    H161499   3.738   1.949   5.054 -1.2358  0.5674  0.2954
13336TIP3    H261500   3.809   2.048   5.145  0.5454  0.0372 -0.4885
13337TIP3   OH261501   3.118   3.228   3.733  0.1560 -0.3331 -0.1936
13337TIP3    H161502   3.066   3.255   3.809 -0.3913  0.5836 -0.8745
13337TIP3    H261503   3.055   3.227   3.661  1.0348  0.5463 -0.9912
13338TIP3   OH261504   0.315   2.365  11.539  0.6408 -0.0374  0.5282
13338TIP3    H161505   0.281   2.309  11.469 -0.0769 -0.1305  0.9403
13338TIP3    H261506   0.410   2.358  11.531  0.6060  0.6090 -0.9621
13339TIP3   OH261507   5.705   3.555   3.237 -0.0164  0.0249  0.2669
13339TIP3    H161508   5.642   3.491   3.270 -0.4193  0.6799  0.7940
13339TIP3    H261509   5.683   3.636   3.283  1.0113  0.3407  0.2220
13340TIP3   OH261510   2.557   4.449  11.836 -0.3811  0.4685  0.0799
13340TIP3    H161511   2.567   4.521  11.774 -0.8122  1.2565  0.9111
13340TIP3    H261512   2.474   4.467  11.880 -0.5183 -0.5694  0.2608
13341TIP3   OH261513   3.146   5.474   4.959  0.3204  0.3534  0.1772
13341TIP3    H161514   3.194   5.391   4.966 -0.5448 -0.1321  0.4991
13341TIP3    H261515   3.163   5.504   4.870 -0.4402 -0.8603 -0.4070
13342TIP3   OH261516   4.832   5.298  11.251 -0.0516 -0.0259  0.0451
13342TIP3    H161517   4.811   5.317  11.159  1.6880  0.6690 -0.2476
13342TIP3    H261518   4.778   5.222  11.273 -2.2177  1.1955 -0.8254
13343TIP3   OH261519   1.318   0.343   1.545  0.1141 -0.2312 -0.4733
13343TIP3    H161520   1.356   0.256   1.556 -1.7049 -0.9532  0.3568
13343TIP3    H261521   1.318   0.380   1.633 -2.6726 -0.9671 -0.0810
13344TIP3   OH261522   5.751   5.575   0.229 -0.0018 -0.0106 -0.2471
13344TIP3    H161523   5.818   5.576   0.160  0.9545 -0.4338  0.6392
13344TIP3    H261524   5.801   5.566   0.310 -1.1368 -0.0983  0.4616
13345TIP3   OH261525   0.731   1.307   4.223  0.1368 -0.1379  0.0259
13345TIP3    H161526   0.783   1.303   4.143  0.2856 -1.3990  0.1651
13345TIP3    H261527   0.794   1.323   4.292  0.2660 -0.9161  0.1020
13346TIP3   OH261528   3.221   4.323  13.242 -0.5435  0.0061 -0.8534
13346TIP3    H161529   3.209   4.377  13.321  0.1909 -1.8510  0.5944
13346TIP3    H261530   3.312   4.339  13.216 -0.1816 -0.8252 -0.1536
13347TIP3   OH261531   2.064   4.434   2.711  0.2835 -0.4256  0.0719
13347TIP3    H161532   2.065   4.378   2.633 -2.9262  0.1338 -0.5044
13347TIP3    H261533   2.082   4.522   2.677  0.1377 -0.3650  0.1502
13348TIP3   OH261534   0.474   3.873   5.723  0.5195 -0.1759 -0.2728
13348TIP3    H161535   0.472   3.913   5.809  1.7593  0.8098 -0.6705
13348TIP3    H261536   0.566   3.853   5.708  0.6131  1.2555 -2.0354
13349TIP3   OH261537   0.985   6.603   2.784 -0.1770  0.2287  0.1145
13349TIP3    H161538   1.051   6.589   2.717  1.0793 -3.1604  1.8284
13349TIP3    H261539   0.903   6.573   2.744  0.1755  0.1284 -0.5438
13350TIP3   OH261540   5.717   1.902  12.041 -0.0748  0.3779  0.3537
13350TIP3    H161541   5.723   1.959  11.964 -0.8676 -2.1353 -1.7201
13350TIP3    H261542   5.808   1.888  12.068  0.2348  1.0870 -0.3035
13351TIP3   OH261543   4.788   6.934  14.328  0.6218 -0.4336  0.5553
13351TIP3    H161544   4.835   6.924  14.411  1.2835  1.9298  0.5377
13351TIP3    H261545   4.767   7.027  14.323  2.1533 -0.1065 -2.7101
13352TIP3   OH261546   3.730   5.222  11.461 -0.6680 -0.5904 -0.0230
13352TIP3    H161547   3.778   5.281  11.519 -1.5438 -0.3548  0.4781
13352TIP3    H261548   3.714   5.144  11.514 -3.0412  0.3085  0.7399
13353TIP3   OH261549   1.426   4.197   0.455 -0.7089  0.0292  0.1065
13353TIP3    H161550   1.385   4.116   0.424  0.2227 -0.6026  0.4597
13353TIP3    H261551   1.409   4.198   0.549  0.9464 -0.8151  0.4650
13354TIP3   OH261552   4.257   0.036  12.256  0.2014  0.3529 -0.1411
13354TIP3    H161553   4.248   0.128  12.280  1.2963  0.4542 -0.0725
13354TIP3    H261554   4.349   0.016  12.271 -0.0607 -0.8148  0.0530
13355TIP3   OH261555   4.486   6.946  11.163  0.7981 -0.3612 -0.3120
13355TIP3    H161556   4.433   6.985  11.232 -0.1926  0.7623 -1.6692
13355TIP3    H261557   4.527   7.020  11.119 -0.2081 -0.8771 -2.2086
13356TIP3   OH261558   1.458   4.463   0.330 -0.5929 -0.0543  0.1541
13356TIP3    H161559   1.447   4.434   0.239 -0.5621  1.3692 -0.3238
13356TIP3    H261560   1.424   4.390   0.382 -1.5203 -0.4940 -1.0142
13357TIP3   OH261561   3.891   3.423   4.450 -0.0771  0.6133 -0.1618
13357TIP3    H161562   3.933   3.499   4.491 -1.7819  2.2874 -1.3048
13357TIP3    H261563   3.860   3.370   4.523  0.0710  1.6540  0.6815
13358TIP3   OH261564   0.050   4.674   2.489 -0.1221  0.3391  0.0213
13358TIP3    H161565  -0.043   4.664   2.472  0.0080 -1.6140  0.1626
13358TIP3    H261566   0.056   4.687   2.583 -0.2057 -0.8286  0.2016
13359TIP3   OH261567   1.429   2.049   2.401 -0.3206  0.2568 -0.5948
13359TIP3    H161568   1.364   2.022   2.466 -1.1354  0.4050 -1.3351
13359TIP3    H261569   1.490   1.975   2.396 -0.1973  0.2745  0.3870
13360TIP3   OH261570   1.810   4.407  15.429  0.0810  0.1406 -0.0997
13360TIP3    H161571   1.881   4.447  15.378  1.4703 -0.6918  1.1107
13360TIP3    H261572   1.848   4.391  15.515 -1.3411 -1.0679  0.3496
13361TIP3   OH261573   0.245   2.488   5.488 -0.0941 -0.3100 -0.2773
13361TIP3    H161574   0.151   2.503   5.492 -0.1243 -0.7085  1.0295
13361TIP3    H261575   0.281   2.571   5.457 -0.8467 -0.0116 -0.3729
13362TIP3   OH261576   2.115   4.066   5.657  0.5698 -0.1513  0.0708
13362TIP3    H161577   2.189   4.044   5.715  0.3712 -0.7565  0.1092
13362TIP3    H261578   2.155   4.116   5.586  1.5241 -2.6408 -1.3002
13363TIP3   OH261579   1.302   3.879  12.896 -0.7172  0.6990 -0.6104
13363TIP3    H161580   1.313   3.795  12.852  0.0906  0.7327 -0.4718
13363TIP3    H261581   1.316   3.944  12.826 -1.1014  0.7247 -0.6648
13364TIP3   OH261582   5.856   2.305  13.988 -0.0793  0.3028  0.5845
13364TIP3    H161583   5.846   2.243  13.916  1.9408  0.5340  0.0504
13364TIP3    H261584   5.777   2.293  14.041  0.9484 -3.9823  1.4987
13365TIP3   OH261585   3.507   7.036   4.722  0.0650  0.0365  0.0299
13365TIP3    H161586   3.590   7.077   4.745 -1.2734  1.8222  2.1186
13365TIP3    H261587   3.489   6.976   4.794 -0.9076  0.4466  0.1460
13366TIP3   OH261588   0.213   4.123  10.961 -0.0697  0.5605  0.0718
13366TIP3    H161589   0.250   4.036  10.953  2.3549  1.6358 -2.2613
13366TIP3    H261590   0.120   4.112  10.940  0.0602 -1.4997  0.3905
13367TIP3   OH261591   4.365   6.475   5.755  0.2868 -0.6160  0.4176
13367TIP3    H161592   4.364   6.560   5.799  0.5242 -0.9067  1.0053
13367TIP3    H261593   4.278   6.439   5.769  0.3201 -0.6513  0.5320
13368TIP3   OH261594   4.046   6.400   2.654 -0.6035 -0.0046 -0.1674
13368TIP3    H161595   4.088   6.325   2.696  0.0284  0.7616  0.6119
13368TIP3    H261596   4.006   6.364   2.575  0.5730 -0.9788 -0.3487
13369TIP3   OH261597   1.981   4.812   4.265  0.7501  0.1533 -0.3214
13369TIP3    H161598   2.055   4.792   4.208  2.3803  2.0050  1.0094
13369TIP3    H261599   2.018   4.811   4.354 -0.6356  1.8753  0.3307
13370TIP3   OH261600   4.528   1.170   1.907  0.3446 -0.3901  0.1635
13370TIP3    H161601   4.546   1.127   1.990  2.5376  0.0364 -0.0240
13370TIP3    H261602   4.436   1.151   1.889 -0.0578 -0.8755  2.4435
13371TIP3   OH261603   5.729   1.455  12.913  0.1677  0.4834 -0.6525
13371TIP3    H161604   5.699   1.537  12.953 -0.5216  0.8423 -1.8594
13371TIP3    H261605   5.708   1.465  12.820  0.9536 -0.6797 -0.9663
13372TIP3   OH261606   1.748   1.672  14.291 -0.3434 -0.3845  0.5227
13372TIP3    H161607   1.764   1.732  14.218 -2.1206  0.1630  0.5351
13372TIP3    H261608   1.719   1.591  14.250  0.6796 -0.7878  0.5652
13373TIP3   OH261609   3.341   1.231   2.293 -0.2175  0.6327  0.1990
13373TIP3    H161610   3.348   1.154   2.238 -2.9909  0.9731 -0.8002
13373TIP3    H261611   3.357   1.305   2.233 -0.9783  0.9308  0.3568
13374TIP3   OH261612   2.310   6.704   1.628 -0.0378  0.0975  0.0049
13374TIP3    H161613   2.353   6.770   1.682 -1.1222  0.9329 -0.1108
13374TIP3    H261614   2.246   6.664   1.686  1.1486 -1.4338  0.3015
13375TIP3   OH261615   0.177   6.579   2.157 -0.2775  0.1569  0.0533
13375TIP3    H161616   0.117   6.560   2.085 -0.3452  0.1886  0.1003
13375TIP3    H261617   0.169   6.504   2.215  0.5121 -0.3250 -0.4547
13376TIP3   OH261618   2.841   4.979  13.254  0.5943  0.4779  0.5136
13376TIP3    H161619   2.786   5.057  13.246 -1.2164 -0.8105 -0.1256
13376TIP3    H261620   2.854   4.949  13.164 -0.5215 -1.1233  0.8406
13377TIP3   OH261621   0.262   0.964  10.384  0.1126  0.6899 -0.5349
13377TIP3    H161622   0.201   0.976  10.456  0.8984 -1.6081  0.5989
13377TIP3    H261623   0.235   0.882  10.343  2.1442 -0.1914 -0.2246
13378TIP3   OH261624   1.375   6.598  14.304 -0.2839 -0.1659 -0.3115
13378TIP3    H161625   1.418   6.590  14.390 -0.0393  0.7287 -0.3413
13378TIP3    H261626   1.446   6.622  14.244 -1.0133  3.2241 -0.0391
13379TIP3   OH261627   6.268   2.502  14.924 -0.0348  0.4882  0.0158
13379TIP3    H161628   6.312   2.418  14.911  0.1980  0.7238 -0.8127
13379TIP3    H261629   6.304   2.536  15.006  1.8777  0.9895 -0.9694
13380TIP3   OH261630   1.774   6.183   0.315 -0.1142 -0.0351 -0.1420
13380TIP3    H161631   1.786   6.278   0.323  1.6089 -0.3017  1.0111
13380TIP3    H261632   1.685   6.168   0.347 -0.3902  1.1795 -0.2753
13381TIP3   OH261633   5.923   3.006   5.604 -0.1769  0.5610  0.1499
13381TIP3    H161634   5.933   2.974   5.515  1.2830  0.4063  0.3550
13381TIP3    H261635   5.884   2.933   5.652  1.1861 -0.2061  0.1387
13382TIP3   OH261636   6.733   5.759   4.874 -0.9239  0.1629  0.1488
13382TIP3    H161637   6.816   5.806   4.872 -0.1078 -1.1705  1.0029
13382TIP3    H261638   6.683   5.795   4.801  1.8414 -1.4746 -2.8404
13383TIP3   OH261639   0.920   4.955   5.700  0.2277  0.1454  0.1848
13383TIP3    H161640   0.847   5.013   5.677 -0.4166 -0.6493  0.2117
13383TIP3    H261641   0.981   4.964   5.626 -0.3559  0.0528 -0.3182
13384TIP3   OH261642   0.798   3.762  10.597  0.4463  0.5410  0.6265
13384TIP3    H161643   0.802   3.844  10.547  1.0410  0.2620  0.2055
13384TIP3    H261644   0.762   3.698  10.536  1.8192  0.0366  0.3075
13385TIP3   OH261645   3.816   2.118   1.916 -0.3008 -0.3284 -0.2226
13385TIP3    H161646   3.834   2.208   1.887  1.4718 -0.9353 -1.1618
13385TIP3    H261647   3.837   2.064   1.841  0.0110 -1.6390  0.7690
13386TIP3   OH261648   3.526   5.325  15.407  0.7352 -0.1992  0.0488
13386TIP3    H161649   3.515   5.295  15.317  1.1031  0.1546 -0.1160
13386TIP3    H261650   3.492   5.414  15.406  0.5851 -0.2522  0.3026
13387TIP3   OH261651   1.357   5.412  14.228 -0.3245 -0.0319 -0.6990
13387TIP3    H161652   1.362   5.506  14.212 -1.1769  0.3978  1.2177
13387TIP3    H261653   1.293   5.381  14.163  0.5147  0.5422 -1.8435
13388TIP3   OH261654   1.346   0.142  11.617 -0.2541 -0.2017 -0.4273
13388TIP3    H161655   1.379   0.227  11.587 -0.7490  0.6894  1.3413
13388TIP3    H261656   1.418   0.105  11.668  0.0395 -0.9638 -1.3806
13389TIP3   OH261657   1.250   3.588   0.715  0.3923 -0.0462 -0.3527
13389TIP3    H161658   1.251   3.614   0.807  0.6909 -2.1878  0.3061
13389TIP3    H261659   1.171   3.535   0.706  0.3386  0.1854 -1.3425
13390TIP3   OH261660   0.297   2.192  15.070 -0.0664  0.4548  0.2166
13390TIP3    H161661   0.349   2.198  14.989  2.5601  1.6376  1.8469
13390TIP3    H261662   0.207   2.208  15.041  0.7528  0.8244 -2.4730
13391TIP3   OH261663   1.842   5.232   4.534 -0.0494  0.0144 -0.0005
13391TIP3    H161664   1.866   5.305   4.478  0.1056 -0.2834 -0.3280
13391TIP3    H261665   1.823   5.160   4.473  1.5103 -0.7416  0.3473
13392TIP3   OH261666   5.714   5.044  13.596 -0.2255  0.7069 -0.1282
13392TIP3    H161667   5.674   5.004  13.673  0.4822  0.0800 -0.0838
13392TIP3    H261668   5.788   5.094  13.631 -0.2875  0.9531 -0.3408
13393TIP3   OH261669   2.500   0.472  11.407  0.4987  0.2089  0.2019
13393TIP3    H161670   2.482   0.385  11.369  1.6797 -0.2223  0.5869
13393TIP3    H261671   2.452   0.533  11.351 -0.2998 -0.6825 -0.1187
13394TIP3   OH261672   2.691   6.810  14.095  0.0099 -0.0081 -0.0762
13394TIP3    H161673   2.653   6.772  14.015  0.5859 -1.6773  0.4008
13394TIP3    H261674   2.749   6.879  14.063 -1.9343  1.3334 -0.9171
13395TIP3   OH261675   6.416   0.989   4.182 -0.2574  0.2978 -0.2417
13395TIP3    H161676   6.476   0.972   4.254 -0.7896  1.7891  0.5975
13395TIP3    H261677   6.472   1.013   4.108  0.2315  0.2651  0.1196
13396TIP3   OH261678   7.058   2.590   1.380 -0.1802  0.6269 -0.2753
13396TIP3    H161679   7.015   2.526   1.323 -0.0120 -2.4886  2.7836
13396TIP3    H261680   7.143   2.607   1.339 -1.0383  0.5112 -2.1775
13397TIP3   OH261681   4.947   4.858   4.412 -0.2863 -0.2891 -0.3363
13397TIP3    H161682   4.881   4.825   4.351 -0.2014 -0.2026 -0.4775
13397TIP3    H261683   4.991   4.928   4.364 -0.4542  0.0161 -0.0429
13398TIP3   OH261684   3.811   5.872   0.310  0.1123  0.0129 -0.3784
13398TIP3    H161685   3.795   5.836   0.397 -0.4115  0.5505 -0.2454
13398TIP3    H261686   3.725   5.870   0.267  0.4711 -0.7686 -1.0872
13399TIP3   OH261687   1.989   1.523   5.698 -0.1981 -0.4765  0.2151
13399TIP3    H161688   2.044   1.570   5.761  0.0972 -0.7874  0.1916
13399TIP3    H261689   1.932   1.468   5.751 -0.2606 -0.4029  0.2254
13400TIP3   OH261690   3.281   1.737  14.388  0.0975  0.4614  0.1102
13400TIP3    H161691   3.342   1.694  14.448 -0.9135 -1.9426 -0.4655
13400TIP3    H261692   3.320   1.723  14.301 -0.4485  0.3549 -0.1196
13401TIP3   OH261693   0.558   3.350   0.142 -0.1707 -0.1341 -0.4075
13401TIP3    H161694   0.463   3.353   0.130 -0.2892 -2.3030 -0.3225
13401TIP3    H261695   0.571   3.355   0.236 -0.1091  1.0962 -0.4583
13402TIP3   OH261696   0.483   3.118  12.966 -0.3621  0.1211  0.0032
13402TIP3    H161697   0.460   3.190  13.025  0.4489  0.1403  0.3073
13402TIP3    H261698   0.548   3.155  12.907  0.2993 -0.4450  0.3657
13403TIP3   OH261699   5.797   2.823   1.784 -0.0419  0.7247  0.5418
13403TIP3    H161700   5.780   2.796   1.693  0.3509 -2.1943  1.2511
13403TIP3    H261701   5.712   2.856   1.815 -0.3518  1.1001 -0.6391
13404TIP3   OH261702   5.588   1.693   1.263  0.0057  0.2429  0.2166
13404TIP3    H161703   5.674   1.698   1.306 -0.4848  2.5924  1.0421
13404TIP3    H261704   5.568   1.599   1.262  2.4058 -0.3465  0.3115
13405TIP3   OH261705   6.485   1.850   2.946  0.7354  0.0751 -0.3925
13405TIP3    H161706   6.577   1.875   2.944  0.5508  0.9083  0.5839
13405TIP3    H261707   6.439   1.927   2.910  0.6166 -1.7077 -4.6353
13406TIP3   OH261708   3.542   0.451   2.985  0.5210 -0.2801  0.1352
13406TIP3    H161709   3.475   0.429   2.920 -2.1201  0.2509  2.4933
13406TIP3    H261710   3.519   0.538   3.016  0.4889 -1.2118  3.0662
13407TIP3   OH261711   4.196   2.693   3.130  0.3741 -0.4042  0.4342
13407TIP3    H161712   4.282   2.713   3.093  1.0363 -0.8161  1.6953
13407TIP3    H261713   4.134   2.723   3.064  1.4926 -0.8056 -0.8516
13408TIP3   OH261714   2.729   3.915  11.023  0.2399  0.6019  0.4162
13408TIP3    H161715   2.670   3.839  11.022 -1.6601  1.9819 -1.3893
13408TIP3    H261716   2.796   3.893  11.088 -1.3555 -1.7485  1.3921
13409TIP3   OH261717   1.310   0.407  12.360  0.5134 -0.2400  0.4337
13409TIP3    H161718   1.399   0.432  12.388  0.2240 -1.8932  3.3081
13409TIP3    H261719   1.318   0.391  12.266  3.1176  0.2379  0.4857
13410TIP3   OH261720   3.724   3.546  10.462  0.1245 -0.4570 -0.0566
13410TIP3    H161721   3.723   3.557  10.367  0.9864  1.7216  0.1318
13410TIP3    H261722   3.750   3.455  10.475  1.1256 -0.4883 -1.9019
13411TIP3   OH261723   6.869   0.490  15.336  0.1720 -0.7942  0.6054
13411TIP3    H161724   6.936   0.439  15.382  0.4379 -1.1614 -0.1563
13411TIP3    H261725   6.843   0.558  15.398  0.5441 -1.2449  1.2726
13412TIP3   OH261726   1.481   4.900   2.069  0.1352 -0.2183  0.2339
13412TIP3    H161727   1.524   4.816   2.055  0.0790 -0.3510  0.8489
13412TIP3    H261728   1.552   4.964   2.064  0.2964 -0.3729  0.5379
13413TIP3   OH261729   4.296   1.932  12.937  0.2773  0.0553  0.2131
13413TIP3    H161730   4.370   1.900  12.886  1.5910 -0.4111  2.3005
13413TIP3    H261731   4.335   1.992  13.001 -1.1535 -0.1496  1.3195
13414TIP3   OH261732   0.713   5.507   1.873  0.1176  0.1593 -0.2153
13414TIP3    H161733   0.737   5.463   1.955  4.1358  2.6304  0.2035
13414TIP3    H261734   0.794   5.510   1.822 -1.1661  2.5400 -2.3671
13415TIP3   OH261735   3.077   4.637   4.656  0.3306 -0.2817 -0.3274
13415TIP3    H161736   3.093   4.656   4.748 -0.9830 -1.7662  0.2543
13415TIP3    H261737   3.162   4.652   4.613  0.8524  0.8492  1.0176
13416TIP3   OH261738   0.160   3.886  11.322  0.2217 -0.5051  0.0468
13416TIP3    H161739   0.212   3.864  11.399  0.2833  0.5627  0.3231
13416TIP3    H261740   0.069   3.876  11.350  0.2537 -1.5453 -0.1872
13417TIP3   OH261741   2.136   6.584   1.829  0.3706 -0.2607  0.4638
13417TIP3    H161742   2.065   6.543   1.878  1.8038 -2.5261  0.7979
13417TIP3    H261743   2.182   6.637   1.894  0.9456 -1.4988  1.1112
13418TIP3   OH261744   0.964   1.646  12.314  0.1060 -0.0520  0.3258
13418TIP3    H161745   0.872   1.635  12.338 -0.1139 -0.6528 -0.7230
13418TIP3    H261746   1.002   1.558  12.322  1.1204  0.5131  2.6911
13419TIP3   OH261747   3.975   4.389   1.404 -0.2332 -0.0705  0.1975
13419TIP3    H161748   3.924   4.334   1.464  2.3780  0.7547  3.4776
13419TIP3    H261749   3.914   4.457   1.376 -2.1086 -1.6562  0.2488
13420TIP3   OH261750   6.894   1.012   2.700  0.3425 -0.1548  0.0368
13420TIP3    H161751   6.936   0.966   2.628  0.9321  1.7119 -0.8852
13420TIP3    H261752   6.806   0.976   2.704  0.3453 -0.3988 -1.5489
13421TIP3   OH261753   0.853   4.392   0.370  0.2843  0.0783 -0.5225
13421TIP3    H161754   0.905   4.439   0.435 -0.0498  0.2552 -0.3814
13421TIP3    H261755   0.767   4.383   0.411 -0.2279  1.0839 -1.3530
13422TIP3   OH261756   5.617   0.117  12.731 -0.3686  0.3891  0.0193
13422TIP3    H161757   5.655   0.156  12.652  1.0220  0.1680  0.5464
13422TIP3    H261758   5.692   0.100  12.788 -1.3749  0.9055  1.5620
13423TIP3   OH261759   4.634   6.272   5.225 -0.2094  0.1312  0.5445
13423TIP3    H161760   4.544   6.265   5.258 -0.2823  0.7626  0.5007
13423TIP3    H261761   4.668   6.352   5.265  1.1708 -1.3444  2.4833
13424TIP3   OH261762   0.401   6.683   2.716  0.8816 -0.2245  0.2035
13424TIP3    H161763   0.381   6.769   2.751 -2.4431 -0.6394 -0.3179
13424TIP3    H261764   0.431   6.699   2.627 -2.8053  0.4545 -1.0962
13425TIP3   OH261765   4.557   4.231   3.566 -0.2354  0.3679 -0.1783
13425TIP3    H161766   4.612   4.153   3.568  1.2908  1.3049  3.2716
13425TIP3    H261767   4.608   4.295   3.516  1.5974  0.9525  2.2455
13426TIP3   OH261768   2.048   7.013   1.694 -0.0351 -0.3783  0.4836
13426TIP3    H161769   2.104   7.047   1.625  0.5213 -0.5645  0.8371
13426TIP3    H261770   2.043   7.084   1.758 -2.6850  0.8390 -0.9113
13427TIP3   OH261771   0.455   3.141   3.997 -0.1020 -0.1524  0.2570
13427TIP3    H161772   0.541   3.110   3.968  0.0159 -0.0669  0.5191
13427TIP3    H261773   0.444   3.225   3.954 -0.8298 -0.9691 -1.2272
13428TIP3   OH261774   3.488   0.850  14.144 -0.3095  0.0358 -0.0339
13428TIP3    H161775   3.469   0.935  14.183  1.2108 -0.0144  0.8887
13428TIP3    H261776   3.525   0.870  14.059  1.1848  0.3699  0.6755
13429TIP3   OH261777   0.877   0.042   2.266 -0.5966 -0.5897  0.8612
13429TIP3    H161778   0.922  -0.005   2.195 -2.2408  0.8254 -1.2559
13429TIP3    H261779   0.866  -0.023   2.335  2.8267 -1.5217  0.7022
13430TIP3   OH261780   3.133   0.316   5.190  0.9015  0.0746  0.2196
13430TIP3    H161781   3.133   0.408   5.165 -0.7591 -0.1276 -0.7135
13430TIP3    H261782   3.216   0.303   5.236  2.0160  1.5793 -1.2475
13431TIP3   OH261783   4.479   4.503   0.984  0.6232  0.5483  0.7011
13431TIP3    H161784   4.530   4.549   0.917 -0.0711 -3.3474 -2.9237
13431TIP3    H261785   4.388   4.528   0.967  0.5147  0.1715  0.7165
13432TIP3   OH261786   4.781   2.660  14.577  0.1579  0.1506  0.1378
13432TIP3    H161787   4.840   2.630  14.646 -0.8603 -0.7164  0.6644
13432TIP3    H261788   4.731   2.731  14.617 -0.1429 -0.0694  0.1512
13433TIP3   OH261789   2.760   5.817   2.502 -0.0220 -0.3977  0.4654
13433TIP3    H161790   2.672   5.779   2.503 -0.2236 -0.1507 -2.0864
13433TIP3    H261791   2.816   5.749   2.540 -1.2053 -0.7158  1.7418
13434TIP3   OH261792   2.105   2.650   0.492 -0.1140 -0.6995  0.3870
13434TIP3    H161793   2.168   2.661   0.421  0.3658 -2.3727  0.5112
13434TIP3    H261794   2.088   2.556   0.495 -1.9299 -0.3914  0.9673
13435TIP3   OH261795   0.183   3.021   9.538  0.4626 -0.3663  0.3717
13435TIP3    H161796   0.212   3.100   9.584  2.2868 -1.6036  1.4980
13435TIP3    H261797   0.130   2.974   9.602 -1.1472  0.1812 -0.5004
13436TIP3   OH261798   3.831   0.820  11.898 -0.3062  0.3503  0.4865
13436TIP3    H161799   3.883   0.765  11.839  0.9717  1.2311  0.7588
13436TIP3    H261800   3.812   0.763  11.973 -0.6900 -0.3159 -0.0964
13437TIP3   OH261801   6.555   6.959   3.341  0.1192 -0.3870  0.1918
13437TIP3    H161802   6.564   6.884   3.283  1.4023 -0.1646  0.0802
13437TIP3    H261803   6.628   7.016   3.319 -1.6598  1.6550 -0.7747
13438TIP3   OH261804   0.156   2.035   1.262  1.1887  0.5101  0.1437
13438TIP3    H161805   0.188   2.122   1.284  1.8989  0.3996 -0.4002
13438TIP3    H261806   0.178   1.980   1.337  0.7956  0.7796  0.4593
13439TIP3   OH261807   4.839   3.898   5.922 -0.5771  0.3171 -0.1236
13439TIP3    H161808   4.868   3.809   5.902 -1.4288 -0.2493  1.0340
13439TIP3    H261809   4.915   3.953   5.904 -0.5683 -0.3907 -2.5594
13440TIP3   OH261810   4.826   0.552   3.576  0.0843 -0.3220 -0.4626
13440TIP3    H161811   4.774   0.556   3.496 -1.5788  1.7482  0.6137
13440TIP3    H261812   4.831   0.459   3.598 -0.6386 -0.7966 -2.1726
13441TIP3   OH261813   5.992   5.488   2.963  0.2098  0.6844  0.1066
13441TIP3    H161814   5.904   5.523   2.959  0.6285  1.7547  0.0401
13441TIP3    H261815   6.042   5.553   3.012  0.5412 -0.8109  1.8543
13442TIP3   OH261816   3.279   4.019  14.566  0.0552  0.2834  0.2798
13442TIP3    H161817   3.296   4.033  14.473 -0.6476 -1.7716 -0.2261
13442TIP3    H261818   3.194   4.060  14.581 -1.1031 -1.5869 -0.7004
13443TIP3   OH261819   0.923   0.707   3.483  0.1479  0.1289  0.2763
13443TIP3    H161820   0.839   0.753   3.476  0.2212  0.3540  0.8483
13443TIP3    H261821   0.909   0.625   3.436 -1.6755 -1.6422  3.5490
13444TIP3   OH261822   0.573   5.813  14.953 -0.4055  0.3174 -0.1166
13444TIP3    H161823   0.580   5.899  14.913 -0.9319  0.3346 -0.1709
13444TIP3    H261824   0.607   5.825  15.042  2.7418 -0.1739 -1.1266
13445TIP3   OH261825   1.628   2.789   1.647 -0.3411  0.2789  0.4550
13445TIP3    H161826   1.613   2.717   1.708 -0.9221  0.3557  0.4146
13445TIP3    H261827   1.636   2.747   1.562  1.4650  0.0834  0.6917
13446TIP3   OH261828   7.129   0.465   1.948 -0.3948 -0.3784  0.3664
13446TIP3    H161829   7.112   0.524   1.875  0.9853  0.4324  0.6703
13446TIP3    H261830   7.045   0.457   1.993 -0.4855  1.8954  0.7077
13447TIP3   OH261831   2.141   4.259  14.791 -0.1839 -0.2188  0.6138
13447TIP3    H161832   2.091   4.284  14.713  1.3940  1.3720  0.0458
13447TIP3    H261833   2.166   4.168  14.775  1.5598  0.5486 -1.6489
13448TIP3   OH261834   0.714   0.169   5.107  0.1814 -0.2542 -0.0893
13448TIP3    H161835   0.773   0.203   5.174  0.5300 -0.0774 -0.4855
13448TIP3    H261836   0.687   0.246   5.057 -0.2208 -0.3612 -0.0428
13449TIP3   OH261837   4.598   1.084  13.821 -0.1046  0.2628 -0.5269
13449TIP3    H161838   4.586   1.062  13.728 -2.2521  0.2203 -0.2883
13449TIP3    H261839   4.535   1.028  13.867  2.0899 -0.9812  1.1774
13450TIP3   OH261840   4.647   6.361  12.841  0.3004 -0.2133  0.1344
13450TIP3    H161841   4.728   6.406  12.864  0.4880  0.4545 -1.6282
13450TIP3    H261842   4.650   6.279  12.890  2.1306 -0.2836 -0.0222
13451TIP3   OH261843   0.510   0.952   3.927  0.1036  0.4773 -0.3271
13451TIP3    H161844   0.582   0.920   3.872 -0.0975  1.9768 -1.5533
13451TIP3    H261845   0.555   1.000   3.997  0.3301 -0.3620  0.1182
13452TIP3   OH261846   1.689   2.869  13.984  0.5567  0.3479 -0.0857
13452TIP3    H161847   1.646   2.929  13.922  0.1806  0.4226  0.2452
13452TIP3    H261848   1.646   2.887  14.067  0.4071 -0.4265  0.0048
13453TIP3   OH261849   7.071   5.656   4.640  0.0341 -0.5533  0.0664
13453TIP3    H161850   6.993   5.642   4.587 -0.1952 -1.1544  0.5653
13453TIP3    H261851   7.083   5.575   4.688  0.1094  0.0728  1.1253
13454TIP3   OH261852   5.200   1.094  15.441  0.3403  0.3162  0.1157
13454TIP3    H161853   5.277   1.140  15.406 -1.0635  0.8862 -2.5440
13454TIP3    H261854   5.210   1.004  15.410  0.8205 -0.0780  1.3724
13455TIP3   OH261855   6.160   3.612  15.654  0.4517  0.0679  0.7771
13455TIP3    H161856   6.203   3.558  15.588 -0.9965 -1.5581  1.0899
13455TIP3    H261857   6.217   3.605  15.731  0.6704 -0.4173  0.5790
13456TIP3   OH261858   4.574   1.685   1.331  0.3743 -0.4524 -0.1818
13456TIP3    H161859   4.651   1.704   1.384 -0.6199 -0.8422  1.4596
13456TIP3    H261860   4.591   1.729   1.248  1.2785  1.5647  0.9967
13457TIP3   OH261861   5.512   6.934   2.856  0.3993 -0.1208  0.6641
13457TIP3    H161862   5.435   6.891   2.819  0.3723 -0.7353  1.4244
13457TIP3    H261863   5.586   6.881   2.826  0.5136  0.3372  0.1240
13458TIP3   OH261864   6.084   2.693   3.757 -0.2140 -0.0233  0.4351
13458TIP3    H161865   6.127   2.683   3.672 -1.7488  1.3205 -0.5716
13458TIP3    H261866   6.053   2.605   3.778 -0.0040 -0.3349 -0.5145
13459TIP3   OH261867   0.336   6.227   2.203 -0.1911 -0.1361 -0.4795
13459TIP3    H161868   0.405   6.161   2.198  0.9506  1.0157 -0.7969
13459TIP3    H261869   0.336   6.255   2.294 -0.5465 -0.4490 -0.3841
13460TIP3   OH261870   2.017   4.589   9.664  0.2360 -0.7358  0.6788
13460TIP3    H161871   2.052   4.670   9.626 -2.5789  0.2957  0.0380
13460TIP3    H261872   2.073   4.520   9.629  1.4324  0.7314 -0.4481
13461TIP3   OH261873   0.452   0.644   4.827 -0.1062  0.2209  0.0708
13461TIP3    H161874   0.488   0.571   4.876 -0.5616  1.7424  2.9407
13461TIP3    H261875   0.516   0.662   4.759  2.7883  0.4933  2.6595
13462TIP3   OH261876   1.702   1.806   2.143  0.5910  0.0936 -0.3892
13462TIP3    H161877   1.713   1.890   2.098  0.0415 -1.0536 -2.8407
13462TIP3    H261878   1.755   1.745   2.092  0.2551 -1.2314  0.8017
13463TIP3   OH261879   6.224   4.900   0.992 -0.1430 -0.6583 -0.2642
13463TIP3    H161880   6.211   4.992   0.971  0.4717 -0.4373  0.2927
13463TIP3    H261881   6.276   4.866   0.919  3.7983  0.5942  1.6585
13464TIP3   OH261882   1.442   4.896  10.981  0.6789 -0.1300 -0.1138
13464TIP3    H161883   1.418   4.987  10.997  1.8232  0.4851 -1.7264
13464TIP3    H261884   1.382   4.867  10.913 -0.1585 -0.8525  0.8866
13465TIP3   OH261885   3.938   1.964  14.753  0.2798 -0.6029 -0.5832
13465TIP3    H161886   3.982   1.903  14.694  4.2246  0.3393  1.0636
13465TIP3    H261887   3.850   1.927  14.764  1.9006 -5.2101 -0.7810
13466TIP3   OH261888   2.650   6.475   3.733  0.2151 -0.2977 -0.4956
13466TIP3    H161889   2.687   6.509   3.652  0.7247 -0.5990 -0.3964
13466TIP3    H261890   2.619   6.552   3.780  0.3400 -0.0797 -0.7732
13467TIP3   OH261891   5.088   5.192   2.359 -0.4985  0.6610  0.2947
13467TIP3    H161892   5.022   5.245   2.314 -2.7492  1.3537  3.9664
13467TIP3    H261893   5.043   5.111   2.381 -0.3877  1.2446  3.1175
13468TIP3   OH261894   0.803   5.790  10.767 -0.5063  0.2591 -0.4076
13468TIP3    H161895   0.891   5.825  10.775 -0.7336  0.9589 -0.8973
13468TIP3    H261896   0.795   5.766  10.675 -1.1737  1.1685 -0.6005
13469TIP3   OH261897   2.014   6.013   0.289 -0.5132 -0.0934  0.2047
13469TIP3    H161898   1.943   6.077   0.295  0.9030  1.9175 -2.3511
13469TIP3    H261899   2.040   6.014   0.197  1.3769 -2.4158  0.5956
13470TIP3   OH261900   2.839   0.681   1.245 -0.5119 -0.3420  0.6997
13470TIP3    H161901   2.875   0.679   1.156  0.9102  1.6201  1.1586
13470TIP3    H261902   2.868   0.598   1.283  2.2539  0.4212  0.4922
13471TIP3   OH261903   3.850   5.930  12.040  0.0299 -0.4709 -0.0995
13471TIP3    H161904   3.821   5.849  11.998  0.0815 -0.5266 -0.0276
13471TIP3    H261905   3.945   5.923  12.042  0.3347  1.0854 -3.1436
13472TIP3   OH261906   4.153   4.277   0.115  0.3197 -0.5480  0.5160
13472TIP3    H161907   4.111   4.286   0.030  0.4095 -0.7420  0.4491
13472TIP3    H261908   4.242   4.311   0.102  1.4425 -3.5202 -0.3667
13473TIP3   OH261909   2.847   0.039  14.454 -0.1462 -0.9633  0.1753
13473TIP3    H161910   2.889   0.124  14.441 -0.9599 -0.9161 -3.2962
13473TIP3    H261911   2.891   0.002  14.530  0.2774  2.4803  1.8170
13474TIP3   OH261912   3.827   3.008  15.165  0.1166 -0.0274 -0.4226
13474TIP3    H161913   3.901   2.949  15.149  1.2035  1.1337  0.1424
13474TIP3    H261914   3.821   3.060  15.084  2.7448  2.7874  0.9739
13475TIP3   OH261915   0.300   2.815   1.759 -0.4023  0.0779 -0.5256
13475TIP3    H161916   0.251   2.776   1.687 -0.7668  0.2592 -0.3741
13475TIP3    H261917   0.391   2.810   1.730 -0.3183 -1.8039 -0.1048
13476TIP3   OH261918   5.463   1.711   4.819 -0.3331 -0.2239  0.0221
13476TIP3    H161919   5.406   1.747   4.751 -0.7440 -0.0553  0.4459
13476TIP3    H261920   5.408   1.648   4.866  0.1375 -0.7919 -0.1955
13477TIP3   OH261921   6.627   0.884   6.028  0.0392 -0.4806 -0.5849
13477TIP3    H161922   6.584   0.802   6.051  0.0457  0.3203  2.7637
13477TIP3    H261923   6.555   0.947   6.020  0.1897 -0.3650 -1.0753
13478TIP3   OH261924   5.997   2.262   2.445 -0.3903 -0.9298 -0.2862
13478TIP3    H161925   5.973   2.183   2.493  0.3375 -2.1739 -1.8798
13478TIP3    H261926   5.937   2.264   2.370  0.0930 -0.4026 -0.6679
13479TIP3   OH261927   5.396   1.110   0.822  0.5674 -0.1003 -0.2841
13479TIP3    H161928   5.335   1.073   0.886 -0.1991 -0.6935 -1.3364
13479TIP3    H261929   5.435   1.184   0.868 -1.5190  0.7999  0.1909
13480TIP3   OH261930   6.684   0.183  15.559 -0.0583  0.1051 -0.7093
13480TIP3    H161931   6.716   0.273  15.563  1.5229 -0.3234 -2.4619
13480TIP3    H261932   6.756   0.131  15.597 -0.0249 -0.5913 -1.6981
13481TIP3   OH261933   5.026   3.164   4.605  0.3249  0.6004  0.2365
13481TIP3    H161934   4.991   3.181   4.517 -3.2329 -0.3496  1.2834
13481TIP3    H261935   5.078   3.085   4.596 -0.7291  0.0030 -0.9252
13482TIP3   OH261936   2.288   4.621   0.500  0.7231 -0.1758  0.1691
13482TIP3    H161937   2.277   4.635   0.594 -0.3888  2.8749 -0.3082
13482TIP3    H261938   2.354   4.686   0.474  2.1811 -2.0030 -0.9774
13483TIP3   OH261939   4.972   6.723  13.080  0.0971 -0.0238  0.1257
13483TIP3    H161940   4.984   6.796  13.142  0.3882 -0.0273  0.0756
13483TIP3    H261941   5.018   6.751  13.001  0.4293 -0.3716  0.1947
13484TIP3   OH261942   1.745   0.851  10.993  0.3380  0.2429  0.1845
13484TIP3    H161943   1.812   0.919  10.994  1.1544 -0.5055 -0.7664
13484TIP3    H261944   1.766   0.796  11.069 -0.6019  1.2821  1.2239
13485TIP3   OH261945   5.489   5.079  14.384 -0.4654 -0.3025  0.2993
13485TIP3    H161946   5.416   5.112  14.436 -0.1069  0.5327  0.2983
13485TIP3    H261947   5.542   5.029  14.446  0.9473  2.1984  1.2668
13486TIP3   OH261948   4.051   2.402   1.101  0.2540 -0.2936  0.0169
13486TIP3    H161949   3.958   2.398   1.122  0.1585  0.5913 -0.2288
13486TIP3    H261950   4.088   2.324   1.144 -0.5031 -0.3598  0.5715
13487TIP3   OH261951   3.928   5.763  13.824 -0.1096  0.5221 -0.4980
13487TIP3    H161952   3.921   5.728  13.735 -1.2669 -1.0197  0.1562
13487TIP3    H261953   3.882   5.699  13.878  3.8373 -0.7339  1.8057
13488TIP3   OH261954   2.166   6.569  13.104  0.1350 -0.3600  0.3353
13488TIP3    H161955   2.124   6.617  13.176 -0.6479  1.9772 -1.5830
13488TIP3    H261956   2.254   6.549  13.137 -0.9270 -1.5308  2.7983
13489TIP3   OH261957   6.297   6.319  13.557 -0.4317 -0.1311  0.4083
13489TIP3    H161958   6.202   6.303  13.559 -0.4601  0.0114  2.4341
13489TIP3    H261959   6.311   6.384  13.627  0.8045  2.1183 -1.7556
13490TIP3   OH261960   0.588   3.359  15.606 -0.2504 -0.1393 -0.0170
13490TIP3    H161961   0.603   3.421  15.678  1.1662  0.2567 -0.6210
13490TIP3    H261962   0.493   3.344  15.608 -0.4651  1.0634  0.9448
13491TIP3   OH261963   6.645   3.393   9.549  0.0660 -0.1008  0.4410
13491TIP3    H161964   6.637   3.485   9.525 -0.5945 -0.9525 -3.1808
13491TIP3    H261965   6.571   3.377   9.608 -2.3167  0.8623 -2.1076
13492TIP3   OH261966   2.192   1.245   2.660  0.3166 -0.1856  0.0807
13492TIP3    H161967   2.188   1.319   2.599  0.6809 -1.9449 -2.2164
13492TIP3    H261968   2.101   1.216   2.668  0.5073 -1.3281 -1.4956
13493TIP3   OH261969   4.578   4.689  10.682  0.1402  0.6706  0.0576
13493TIP3    H161970   4.616   4.761  10.631 -0.8068  0.7546 -0.5541
13493TIP3    H261971   4.580   4.721  10.772 -0.0089  1.3641 -0.1742
13494TIP3   OH261972   1.143   6.819   3.909 -0.2107 -0.0214 -0.0516
13494TIP3    H161973   1.213   6.881   3.886 -1.8463  1.5892 -0.9529
13494TIP3    H261974   1.155   6.746   3.848 -0.4022  1.1031 -1.4944
13495TIP3   OH261975   0.343   6.761  14.346  0.0623  0.7442 -0.0553
13495TIP3    H161976   0.345   6.695  14.415  4.1978 -1.1000 -1.6037
13495TIP3    H261977   0.271   6.734  14.289  0.4146 -1.3239  0.4065
13496TIP3   OH261978   6.746   5.014   5.613 -0.6800  0.6096 -0.3985
13496TIP3    H161979   6.817   5.072   5.642 -0.7424  0.4925 -0.0053
13496TIP3    H261980   6.781   4.972   5.534 -0.2778  0.4880 -0.1568
13497TIP3   OH261981   1.941   2.604   2.989  0.1478  0.0646 -0.4164
13497TIP3    H161982   1.956   2.617   2.896 -1.4932 -1.1719 -0.8875
13497TIP3    H261983   1.996   2.530   3.013 -0.4538 -0.4898 -0.7269
13498TIP3   OH261984   5.290   6.895   1.726  0.3009 -0.1813 -0.0959
13498TIP3    H161985   5.227   6.968   1.723  1.7705  1.1453 -0.5289
13498TIP3    H261986   5.359   6.922   1.666  1.3486 -1.5364  0.4546
13499TIP3   OH261987   2.950   6.206   0.407 -0.0920  0.0262  0.8717
13499TIP3    H161988   2.908   6.292   0.412 -1.5909 -0.5332 -0.9265
13499TIP3    H261989   3.033   6.223   0.362 -0.5055  0.5071  0.2755
13500TIP3   OH261990   2.038   3.785  12.693 -0.0394  0.8607 -0.0686
13500TIP3    H161991   2.046   3.838  12.614 -0.6714  0.9634 -0.0687
13500TIP3    H261992   1.944   3.771  12.703  0.1367 -0.6157 -0.3053
13501TIP3   OH261993   6.710   4.281   3.526 -0.4892 -0.0212  0.3952
13501TIP3    H161994   6.710   4.376   3.535 -2.2026  0.4001 -2.5284
13501TIP3    H261995   6.798   4.260   3.493  0.2497  0.3632  2.0511
13502TIP3   OH261996   1.197   4.283  10.855 -0.1984 -0.2575 -0.4181
13502TIP3    H161997   1.148   4.337  10.917  2.5473  1.9926 -0.0056
13502TIP3    H261998   1.288   4.310  10.867  0.6202 -0.5858 -4.5750
13503TIP3   OH261999   0.571   2.668  12.270  0.5059 -0.5449 -0.5022
13503TIP3    H162000   0.560   2.659  12.175  0.1539 -2.9071 -0.3012
13503TIP3    H262001   0.537   2.755  12.290 -3.5331 -1.5602 -1.9860
13504TIP3   OH262002   0.229   5.660   1.867  0.4246 -0.0150  0.1915
13504TIP3    H162003   0.306   5.677   1.812 -0.3745 -1.0597 -1.3018
13504TIP3    H262004   0.253   5.582   1.917  0.0174 -0.9315 -0.9894
13505TIP3   OH262005   5.666   1.060   9.764 -0.3030 -0.0002  0.0974
13505TIP3    H162006   5.646   1.130   9.702 -0.4692 -0.0554  0.0884
13505TIP3    H262007   5.694   0.987   9.709 -1.0291 -0.2486  0.0451
13506TIP3   OH262008   1.070   5.002   0.538 -0.1319 -0.4889 -0.0150
13506TIP3    H162009   1.018   5.073   0.576  1.5334  0.4097  0.6702
13506TIP3    H262010   1.157   5.039   0.525  0.6153 -2.2014 -0.2800
13507TIP3   OH262011   1.069   0.493  12.086 -0.4438 -0.0180 -0.3940
13507TIP3    H162012   1.033   0.424  12.141  1.5680  1.5110  3.1428
13507TIP3    H262013   1.157   0.462  12.064 -0.4057  0.4162 -0.8671
13508TIP3   OH262014   2.494   5.712   5.673  0.0520 -0.0866 -0.5382
13508TIP3    H162015   2.563   5.652   5.702 -1.1961 -0.6473  1.4216
13508TIP3    H262016   2.504   5.789   5.729 -0.6308  0.0159 -0.5489
13509TIP3   OH262017   1.707   1.006   3.230  0.3388  0.2382  0.1469
13509TIP3    H162018   1.717   1.032   3.322  1.0606 -0.3136  0.2362
13509TIP3    H262019   1.634   1.058   3.198 -0.8172 -0.5523  1.4080
13510TIP3   OH262020   6.531   1.543  11.046  0.0352 -0.2916 -0.0462
13510TIP3    H162021   6.547   1.472  11.108  0.4493  0.0633  0.2594
13510TIP3    H262022   6.512   1.499  10.963 -2.3625 -0.8384  0.7153
13511TIP3   OH262023   4.635   6.260  14.143  0.2699 -0.3685  0.1728
13511TIP3    H162024   4.715   6.214  14.169  1.4185  1.5363  0.2402
13511TIP3    H262025   4.650   6.350  14.171 -0.2930  0.8716 -3.0611
13512TIP3   OH262026   1.779   4.243   4.350 -0.0573 -0.4292 -0.1260
13512TIP3    H162027   1.828   4.261   4.431  1.9076 -0.8763 -1.1545
13512TIP3    H262028   1.687   4.249   4.376  0.4574  2.6133  1.4310
13513TIP3   OH262029   1.500   3.625  10.347  0.2036 -0.0455 -0.1338
13513TIP3    H162030   1.409   3.607  10.322 -0.3080  0.3475  1.3214
13513TIP3    H262031   1.502   3.720  10.362  0.6135 -0.1683  0.6740
13514TIP3   OH262032   6.765   5.380   0.587  0.0728  0.2233  0.3618
13514TIP3    H162033   6.772   5.372   0.491  1.3494  0.4572  0.4094
13514TIP3    H262034   6.676   5.410   0.602 -0.3279 -0.3650 -0.7193
13515TIP3   OH262035   6.540   3.551   0.679  0.2963 -0.4026  0.0941
13515TIP3    H162036   6.604   3.507   0.623 -0.0697 -1.9115  0.7916
13515TIP3    H262037   6.577   3.638   0.695  1.7336 -0.9320 -0.2220
13516TIP3   OH262038   6.581   5.455  11.066 -1.2345  0.2408  0.7232
13516TIP3    H162039   6.577   5.484  11.157 -1.3725 -1.5573  1.3475
13516TIP3    H262040   6.658   5.398  11.062  0.2978  2.2529 -0.9628
13517TIP3   OH262041   4.408   6.489   5.497 -0.3514  0.2276  0.6022
13517TIP3    H162042   4.371   6.522   5.579 -1.7835  1.1256 -0.3471
13517TIP3    H262043   4.350   6.418   5.472  0.8094 -0.8775  0.9695
13518TIP3   OH262044   4.786   2.833  12.409  0.1461 -0.2707  0.4030
13518TIP3    H162045   4.871   2.791  12.399  0.7818  0.7068  1.5054
13518TIP3    H262046   4.770   2.834  12.503 -0.3102  1.0535  0.3331
13519TIP3   OH262047   3.716   6.227  14.097 -0.4597 -0.1571 -0.1494
13519TIP3    H162048   3.712   6.282  14.176  1.6378  1.1987 -0.9057
13519TIP3    H262049   3.744   6.141  14.129  0.9217  0.5313  0.5559
13520TIP3   OH262050   5.562   1.643   1.754  0.6484  0.4418  0.8668
13520TIP3    H162051   5.578   1.734   1.780  1.3731  0.5423  0.1191
13520TIP3    H262052   5.473   1.625   1.783  1.2848  0.6267  3.1140
13521TIP3   OH262053   0.684   4.628  10.376 -0.0941  0.2560  0.5163
13521TIP3    H162054   0.661   4.715  10.410  0.6017  0.6208  0.0850
13521TIP3    H262055   0.760   4.603  10.428  0.0487  0.1522  0.2574
13522TIP3   OH262056   0.875   4.212  12.815 -0.7153 -0.6522 -0.0354
13522TIP3    H162057   0.840   4.290  12.772 -1.6441 -0.6184  0.7452
13522TIP3    H262058   0.814   4.142  12.791 -0.8029 -0.7923  0.5905
13523TIP3   OH262059   5.872   5.191  12.777 -0.7718 -0.4630 -0.6323
13523TIP3    H162060   5.890   5.175  12.685 -1.6621 -2.1305 -0.5651
13523TIP3    H262061   5.893   5.107  12.820  2.2852  1.0048  1.1470
13524TIP3   OH262062   3.534   5.178   4.979 -0.2771 -0.4726 -0.7427
13524TIP3    H162063   3.564   5.087   4.978 -0.6131 -0.5975 -0.0231
13524TIP3    H262064   3.580   5.219   4.905  0.1375 -1.1373 -0.8645
13525TIP3   OH262065   4.669   3.598   1.920  0.2119 -0.6411 -0.4273
13525TIP3    H162066   4.631   3.685   1.906 -1.5076 -0.7304  2.6340
13525TIP3    H262067   4.599   3.537   1.898 -0.1357 -0.9830  1.4160
13526TIP3   OH262068   6.433   6.700  14.970 -0.2210  0.1062 -0.0240
13526TIP3    H162069   6.358   6.657  15.013 -0.1796  0.6725  0.6206
13526TIP3    H262070   6.436   6.660  14.883 -0.1817 -1.2187  0.5564
13527TIP3   OH262071   6.996   4.060  15.286  0.2354 -0.3823 -0.1631
13527TIP3    H162072   7.066   3.998  15.266  0.9389  0.4191 -0.2674
13527TIP3    H262073   7.028   4.144  15.252  0.0834  0.3950  1.4889
13528TIP3   OH262074   3.331   1.859  14.127 -0.2483  0.0972 -0.0928
13528TIP3    H162075   3.278   1.938  14.120 -1.7814 -0.7437  1.6104
13528TIP3    H262076   3.405   1.876  14.068 -1.3605  2.1036 -1.0276
13529TIP3   OH262077   3.310   0.983   0.054 -0.4124 -0.5285 -0.2050
13529TIP3    H162078   3.265   1.039   0.118  2.0354 -0.0182  1.1771
13529TIP3    H262079   3.350   1.044  -0.008  0.7289 -0.8093  0.2386
13530TIP3   OH262080   2.527   5.292   0.719  0.3105 -0.4870 -0.5352
13530TIP3    H162081   2.545   5.240   0.797  1.2327  0.5294 -0.0405
13530TIP3    H262082   2.432   5.292   0.711 -0.0828  1.8987  2.3868
13531TIP3   OH262083   3.802   0.122  13.073 -0.1449  0.0280 -0.0034
13531TIP3    H162084   3.737   0.057  13.046  1.0402 -0.7748 -1.0738
13531TIP3    H262085   3.829   0.094  13.161 -1.2559  0.3894  0.4606
13532TIP3   OH262086   3.968   5.871   4.640 -0.0859  0.3617 -0.1026
13532TIP3    H162087   4.021   5.793   4.622 -0.9158 -0.3095  0.2744
13532TIP3    H262088   3.961   5.916   4.556 -0.7551 -0.7113 -0.6332
13533TIP3   OH262089   4.264   2.892   4.281 -0.0639 -0.7793 -0.0039
13533TIP3    H162090   4.309   2.839   4.346  0.5452  0.7349  0.8760
13533TIP3    H262091   4.171   2.878   4.298  0.0306 -2.8482 -0.9194
13534TIP3   OH262092   4.491   4.857   5.097  0.4026  0.1639 -0.4229
13534TIP3    H162093   4.569   4.902   5.068  0.2984  0.3756 -0.3736
13534TIP3    H262094   4.522   4.770   5.125  0.8219  0.6892  0.8154
13535TIP3   OH262095   0.350   3.870   0.779  0.1222  0.5887  0.3314
13535TIP3    H162096   0.396   3.792   0.812 -0.5092 -0.5048 -1.2469
13535TIP3    H262097   0.416   3.919   0.730  0.4417  0.8858  1.0492
13536TIP3   OH262098   7.110   6.644  11.967 -0.2602 -0.2445 -0.3477
13536TIP3    H162099   7.154   6.646  12.052  1.4227  1.0145 -1.1727
13536TIP3    H262100   7.182   6.647  11.903 -1.4179 -2.4514 -1.8615
13537TIP3   OH262101   4.310   6.193  15.370 -0.5582 -0.0039  0.6143
13537TIP3    H162102   4.329   6.203  15.277  0.1377 -0.6851  0.6819
13537TIP3    H262103   4.289   6.282  15.400 -2.2285  0.0235 -0.4900
13538TIP3   OH262104   5.386   6.508  11.659 -0.0642  0.4829 -1.0392
13538TIP3    H162105   5.297   6.542  11.669 -0.3855 -0.7542  0.9995
13538TIP3    H262106   5.386   6.427  11.709  1.7304 -0.5202 -2.5393
13539TIP3   OH262107   7.143   1.172   2.076 -0.6589  0.6752  0.5537
13539TIP3    H162108   7.104   1.132   2.153  0.7426  1.9359  1.9982
13539TIP3    H262109   7.143   1.103   2.010 -2.3056 -0.3084  1.5278
13540TIP3   OH262110   6.733   6.591   5.839  0.1018  0.1591  0.2640
13540TIP3    H162111   6.666   6.656   5.819 -0.6506 -0.3873  0.9446
13540TIP3    H262112   6.815   6.632   5.811 -0.4178  1.1629  0.1613
13541TIP3   OH262113   5.854   3.579  15.668 -0.4728  0.1358  0.0463
13541TIP3    H162114   5.847   3.660  15.718  0.6932  0.6972 -0.6674
13541TIP3    H262115   5.944   3.578  15.636 -0.3178 -1.6697  0.4176
13542TIP3   OH262116   6.490   4.294   3.354  0.7566  0.2409 -0.2483
13542TIP3    H162117   6.572   4.276   3.401  0.2773  0.5921  0.7580
13542TIP3    H262118   6.502   4.381   3.316  0.3091  0.9708  1.1937
13543TIP3   OH262119   0.169   5.001   3.037 -0.4573 -0.2841 -0.0487
13543TIP3    H162120   0.260   4.977   3.052  0.3990  1.7340 -1.5274
13543TIP3    H262121   0.119   4.930   3.077  1.7350 -1.4785  0.7784
13544TIP3   OH262122   4.859   2.958  11.385  0.5422 -0.0166  0.1639
13544TIP3    H162123   4.847   2.910  11.466  1.4713 -1.1814 -0.3638
13544TIP3    H262124   4.920   3.028  11.407 -0.5264  0.7301  0.8467
13545TIP3   OH262125   5.830   4.424   6.109 -0.1879 -0.2886  0.1988
13545TIP3    H162126   5.838   4.488   6.180 -2.3140 -0.0448  0.2845
13545TIP3    H262127   5.804   4.343   6.154  1.8222 -1.0834  0.0186
13546TIP3   OH262128   0.662   4.584  12.296 -0.0529 -0.3708  0.1379
13546TIP3    H162129   0.585   4.641  12.289 -1.2242 -2.0086 -1.4231
13546TIP3    H262130   0.737   4.643  12.284 -1.2506  0.7240 -3.1419
13547TIP3   OH262131   5.091   2.626   4.298  0.0002  0.2822  0.2736
13547TIP3    H162132   5.046   2.593   4.220  1.6610  0.5485 -0.8609
13547TIP3    H262133   5.106   2.548   4.351  0.7749 -0.2691 -0.7174
13548TIP3   OH262134   5.664   5.676   2.673 -0.3528 -0.3849  0.1704
13548TIP3    H162135   5.694   5.690   2.584 -1.3472  0.5774 -0.0355
13548TIP3    H262136   5.610   5.597   2.668 -0.5971 -0.2001 -0.1292
13549TIP3   OH262137   4.794   5.102   4.612 -0.1387  0.3249  0.2396
13549TIP3    H162138   4.797   5.180   4.667 -0.5414  0.8943 -0.5289
13549TIP3    H262139   4.766   5.032   4.671 -2.8239  1.3445  0.3457
13550TIP3   OH262140   1.229   3.748   4.396  0.0062 -0.0231  0.6666
13550TIP3    H162141   1.290   3.679   4.370 -0.5997 -0.2004 -0.3631
13550TIP3    H262142   1.157   3.740   4.333  0.3604  2.1617 -0.1002
13551TIP3   OH262143   6.295   1.922  14.783 -0.0353  0.2488 -0.2993
13551TIP3    H162144   6.345   1.956  14.709  2.0232 -3.0584 -0.6133
13551TIP3    H262145   6.255   1.841  14.750 -0.2484 -0.5677  1.8007
13552TIP3   OH262146   3.234   1.216   2.863 -0.4704  0.0740 -0.1218
13552TIP3    H162147   3.285   1.274   2.807  1.0169 -1.4632 -0.4484
13552TIP3    H262148   3.145   1.249   2.858  0.1710  1.7643 -1.0021
13553TIP3   OH262149   3.125   5.831  14.097 -0.1714  0.1345  0.3168
13553TIP3    H162150   3.136   5.752  14.150 -0.0175 -0.8626 -1.1507
13553TIP3    H262151   3.061   5.884  14.146 -0.9367 -1.2809  0.9086
13554TIP3   OH262152   1.857   1.322   3.372 -0.2882 -0.6908  0.4613
13554TIP3    H162153   1.770   1.361   3.364  0.3274  1.2006  2.2013
13554TIP3    H262154   1.896   1.332   3.285 -0.7360  1.2545  0.4459
13555TIP3   OH262155   3.636   5.737  12.652 -0.0471  0.3240 -0.1170
13555TIP3    H162156   3.604   5.773  12.569 -0.0782 -1.6896 -1.0338
13555TIP3    H262157   3.559   5.737  12.709 -0.9627 -1.4400 -1.2509
13556TIP3   OH262158   5.601   0.152  13.515  0.0773 -0.1417  0.0663
13556TIP3    H162159   5.688   0.153  13.555 -0.0385  0.0822  0.3117
13556TIP3    H262160   5.548   0.209  13.570 -1.1169 -2.8266  1.8950
13557TIP3   OH262161   2.546   0.035   4.389 -0.3124 -0.0155  0.1310
13557TIP3    H162162   2.608  -0.013   4.444 -0.5576  1.3392  1.6973
13557TIP3    H262163   2.460   0.008   4.422 -0.4624  2.0117  1.6522
13558TIP3   OH262164   4.275   2.052   9.932 -0.2295  0.0802  0.2432
13558TIP3    H162165   4.336   2.126   9.930  0.6631 -0.6391 -1.3566
13558TIP3    H262166   4.194   2.086   9.894 -0.8055  0.9776  2.1537
13559TIP3   OH262167   1.283   1.354   2.607 -0.2541  0.1840 -0.4891
13559TIP3    H162168   1.327   1.400   2.678 -0.1730 -0.5106 -0.0766
13559TIP3    H262169   1.269   1.265   2.641  0.7080 -0.4671 -1.7057
13560TIP3   OH262170   3.552   2.361  10.719 -0.0264  0.3468 -0.5160
13560TIP3    H162171   3.636   2.382  10.760 -0.8339  1.5348  0.5994
13560TIP3    H262172   3.513   2.295  10.776 -0.5999  1.0769 -0.0468
13561TIP3   OH262173   2.814   0.706   0.638  0.1333  0.0828 -0.9489
13561TIP3    H162174   2.817   0.610   0.645 -1.8368  0.0755  0.5241
13561TIP3    H262175   2.906   0.732   0.625  0.8334 -1.9239 -0.3976
13562TIP3   OH262176   5.578   3.868  13.247  0.0461  0.1109 -0.2676
13562TIP3    H162177   5.520   3.921  13.301 -0.8769  1.7209 -2.6486
13562TIP3    H262178   5.520   3.812  13.197  0.6535  0.2822 -1.2069
13563TIP3   OH262179   0.418   2.475   5.915  0.6128  0.2335 -0.0554
13563TIP3    H162180   0.404   2.540   5.846  0.4099 -0.5638 -0.7872
13563TIP3    H262181   0.431   2.393   5.868 -0.8205 -0.5766  0.8853
13564TIP3   OH262182   1.013   3.337   2.730 -0.2243 -0.4906  0.3504
13564TIP3    H162183   0.956   3.337   2.653 -0.0298 -0.2032  0.2008
13564TIP3    H262184   0.972   3.399   2.790  0.2707  0.2232 -0.0259
13565TIP3   OH262185   1.147   5.916   1.749  0.5677  0.3442 -0.2202
13565TIP3    H162186   1.096   5.860   1.691  1.2284 -2.9882  2.1266
13565TIP3    H262187   1.093   5.994   1.759 -2.0088 -1.1701 -1.2457
13566TIP3   OH262188   0.405   6.544  13.170  0.3832  0.1285 -0.2054
13566TIP3    H162189   0.425   6.637  13.180  0.7323 -0.0098  0.4174
13566TIP3    H262190   0.362   6.538  13.085 -0.5947  1.0110  0.1992
13567TIP3   OH262191   3.989   3.792   3.292 -0.9728 -0.0340  0.1923
13567TIP3    H162192   4.013   3.821   3.380 -1.3173  0.9934 -0.0432
13567TIP3    H262193   3.979   3.697   3.300 -0.8410  0.0295  1.2214
13568TIP3   OH262194   0.164   3.513  10.296 -0.1233  0.0907  0.8308
13568TIP3    H162195   0.100   3.445  10.316  0.8241 -1.1843 -0.2960
13568TIP3    H262196   0.192   3.546  10.381 -0.4561 -1.0601  1.4028
13569TIP3   OH262197   4.507   4.481  14.523 -0.3774 -0.1912  0.3418
13569TIP3    H162198   4.585   4.496  14.469  0.0403  0.0217  0.9921
13569TIP3    H262199   4.438   4.458  14.461  0.2992 -0.7569 -0.2104
13570TIP3   OH262200   3.762   5.881   4.832  0.2115  0.1625 -0.1622
13570TIP3    H162201   3.679   5.850   4.795  1.1826 -3.5138  0.3345
13570TIP3    H262202   3.819   5.894   4.756 -0.1789  0.6651 -0.3751
13571TIP3   OH262203   3.612   4.415   2.805 -0.8055 -0.3246  0.2168
13571TIP3    H162204   3.626   4.327   2.839  0.5704 -0.2193  0.0128
13571TIP3    H262205   3.646   4.411   2.716 -0.6534  0.4179  0.2356
13572TIP3   OH262206   1.503   4.202  10.896  0.2662 -0.5247  0.3561
13572TIP3    H162207   1.585   4.213  10.848  0.7583 -0.6212  1.1655
13572TIP3    H262208   1.513   4.254  10.975  0.1631 -1.7593  1.2129
13573TIP3   OH262209   1.183   3.470   3.165 -0.2885  0.2102 -0.6072
13573TIP3    H162210   1.246   3.401   3.145 -0.0916  0.1722  0.1133
13573TIP3    H262211   1.103   3.423   3.189 -0.5654  0.2571 -1.4096
13574TIP3   OH262212   3.990   5.875  15.110  0.5759 -0.8938 -0.2176
13574TIP3    H162213   3.943   5.903  15.188 -1.4914 -1.7263 -1.1023
13574TIP3    H262214   4.068   5.830  15.144  0.8204  0.5806  1.2895
13575TIP3   OH262215   7.032   4.261   2.194 -0.0077 -0.4027 -0.2749
13575TIP3    H162216   7.051   4.334   2.135 -0.3693  0.9783  1.2301
13575TIP3    H262217   7.010   4.303   2.277 -0.0108 -2.2548  0.7133
13576TIP3   OH262218   1.481   2.997  11.195 -0.1041  0.5710 -0.1758
13576TIP3    H162219   1.484   2.974  11.102 -4.3935  0.2625 -0.4446
13576TIP3    H262220   1.474   2.913  11.240  0.8065  0.7676  0.3433
13577TIP3   OH262221   1.559   3.484   1.607  1.4777  0.5995  0.2326
13577TIP3    H162222   1.546   3.396   1.572  1.3044 -0.0424  1.8318
13577TIP3    H262223   1.636   3.517   1.560 -0.6013  1.1179 -3.1167
13578TIP3   OH262224   2.410   3.992   0.640 -0.7702 -0.5689 -0.2022
13578TIP3    H162225   2.391   4.074   0.686  1.1493 -1.2707  2.0706
13578TIP3    H262226   2.326   3.949   0.633 -1.5603  0.8559  0.0779
13579TIP3   OH262227   1.171   5.990   4.922 -0.3662 -0.2274  0.1607
13579TIP3    H162228   1.100   6.022   4.867  0.3400  1.3154  0.0868
13579TIP3    H262229   1.250   6.028   4.884  0.3604 -0.8100  1.0286
13580TIP3   OH262230   5.025   1.949   5.753  0.1298 -0.4351 -0.0686
13580TIP3    H162231   4.943   1.908   5.780 -0.0874 -0.1395 -0.2811
13580TIP3    H262232   5.049   1.903   5.672 -0.4252  0.2565 -0.6357
13581TIP3   OH262233   0.438   3.834   0.063 -0.2922  0.5739  0.0732
13581TIP3    H162234   0.405   3.765   0.006  0.7988 -0.5828  0.7696
13581TIP3    H262235   0.525   3.803   0.090 -0.0910  1.8660  1.0130
13582TIP3   OH262236   4.594   6.904  15.489  0.1557  0.2731  0.3874
13582TIP3    H162237   4.624   6.814  15.480 -0.0562  0.2718 -0.4379
13582TIP3    H262238   4.673   6.957  15.486  0.3070  0.1058  1.1776
13583TIP3   OH262239   4.683   6.640  15.536 -0.0288 -0.3048  0.5583
13583TIP3    H162240   4.624   6.644  15.611  0.4085  0.1631  0.8797
13583TIP3    H262241   4.770   6.645  15.574  0.3678 -3.3766  0.3273
13584TIP3   OH262242   0.822   6.860  10.184 -0.0610  0.1159 -0.5091
13584TIP3    H162243   0.806   6.828  10.096  1.1800 -1.7441 -0.1038
13584TIP3    H262244   0.739   6.847  10.230 -0.0624 -1.0054 -0.8171
13585TIP3   OH262245   1.659   3.079   1.450  0.0210  0.4733 -0.0220
13585TIP3    H162246   1.620   2.996   1.424  4.1040 -1.9541  0.6674
13585TIP3    H262247   1.700   3.113   1.371  2.6640 -0.9563  0.6218
13586TIP3   OH262248   5.417   0.706   2.367  0.2869 -0.1953 -0.1083
13586TIP3    H162249   5.402   0.796   2.339 -1.3616 -0.8316 -1.4304
13586TIP3    H262250   5.458   0.664   2.292 -0.0185 -0.8362  0.0757
13587TIP3   OH262251   6.346   6.943   5.421 -0.0343 -0.4945 -0.3753
13587TIP3    H162252   6.402   6.868   5.442 -2.0745 -2.0419 -0.1543
13587TIP3    H262253   6.267   6.930   5.474 -1.5857  0.3390 -2.3422
13588TIP3   OH262254   0.037   4.346  15.057  0.4118 -0.3195 -0.2755
13588TIP3    H162255   0.061   4.258  15.088  1.5751  0.8021  2.3000
13588TIP3    H262256   0.097   4.363  14.985  0.6702 -1.3443 -0.3207
13589TIP3   OH262257   6.069   0.887  15.243  0.0768 -0.1529  0.1708
13589TIP3    H162258   6.073   0.835  15.163  0.3192  0.2408 -0.0747
13589TIP3    H262259   6.114   0.834  15.309  0.1297 -0.3496 -0.0239
13590TIP3   OH262260   5.064   4.713   0.438  0.1215 -0.1222 -0.0904
13590TIP3    H162261   4.995   4.706   0.504  0.1591 -0.6692 -0.1063
13590TIP3    H262262   5.075   4.624   0.405  1.8791 -0.3646  0.9845
13591TIP3   OH262263   3.383   5.308   4.607 -0.1584  0.2691  0.1366
13591TIP3    H162264   3.478   5.311   4.617 -0.1452 -0.4063  0.2793
13591TIP3    H262265   3.360   5.217   4.623 -0.7997  0.3621 -0.1979
13592TIP3   OH262266   1.331   2.678   3.000  0.0468  0.4685 -0.0186
13592TIP3    H162267   1.374   2.693   3.084 -1.1672  1.8710  0.3893
13592TIP3    H262268   1.345   2.758   2.950 -0.4866  0.2234 -0.5870
13593TIP3   OH262269   1.007   6.046   4.369  0.3921 -0.0911 -0.2649
13593TIP3    H162270   0.986   6.138   4.384  1.9486  1.2555 -4.6920
13593TIP3    H262271   0.923   6.000   4.374 -0.6187  1.7489  0.7012
13594TIP3   OH262272   7.070   6.409  12.826  0.6643  0.2126  0.1890
13594TIP3    H162273   7.134   6.448  12.884 -1.4483  0.3188  2.6375
13594TIP3    H262274   6.990   6.461  12.839 -0.8617 -1.8805 -0.1664
13595TIP3   OH262275   2.659   2.659  10.754  0.3502  0.3888 -0.2875
13595TIP3    H162276   2.703   2.696  10.678  0.3646 -0.8725 -0.9183
13595TIP3    H262277   2.701   2.702  10.829  3.3436 -1.3568 -0.8023
13596TIP3   OH262278   2.667   4.506   6.126 -0.2790 -0.5397 -0.7368
13596TIP3    H162279   2.643   4.583   6.179 -0.6360 -2.1430  1.5759
13596TIP3    H262280   2.762   4.508   6.123 -0.2959  0.2060 -1.0594
13597TIP3   OH262281   6.064   6.799  14.336 -0.2835 -0.1949  0.2180
13597TIP3    H162282   6.016   6.819  14.416  0.9640 -1.0125  1.2229
13597TIP3    H262283   6.030   6.860  14.271 -3.7882 -1.7680  0.3902
13598TIP3   OH262284   6.267   0.487  11.774 -0.1446 -0.0564 -0.1797
13598TIP3    H162285   6.323   0.565  11.768 -0.0179 -0.1465 -0.1909
13598TIP3    H262286   6.279   0.444  11.689 -0.3817  0.0236 -0.2547
13599TIP3   OH262287   6.317   1.839   5.949  0.1953  0.2567  0.8081
13599TIP3    H162288   6.229   1.801   5.955  0.4874 -0.4792  0.5891
13599TIP3    H262289   6.302   1.932   5.935 -0.5595  0.0585  0.2254
13600TIP3   OH262290   5.123   6.097  13.488  0.3394 -0.1371  0.4777
13600TIP3    H162291   5.180   6.163  13.448  0.1416 -0.0072  0.4107
13600TIP3    H262292   5.045   6.145  13.514 -0.3396 -0.5615 -0.6774
13601TIP3   OH262293   6.413   0.577   1.400  0.1381  0.3807  0.4627
13601TIP3    H162294   6.361   0.505   1.365  1.8893 -0.4895 -0.4641
13601TIP3    H262295   6.394   0.578   1.494 -0.4371 -0.8408  0.3749
13602TIP3   OH262296   5.741   1.128   1.177 -0.3748  0.7511 -0.1544
13602TIP3    H162297   5.756   1.050   1.230  1.3645  0.0489 -1.5826
13602TIP3    H262298   5.709   1.094   1.093  1.4629  1.4303 -1.1814
13603TIP3   OH262299   6.709   5.492   6.099  0.4072  0.3561 -0.2254
13603TIP3    H162300   6.675   5.522   6.015  1.2608  1.2584 -0.2742
13603TIP3    H262301   6.799   5.466   6.080  0.5137  0.2992  0.3511
13604TIP3   OH262302   2.871   0.336  13.460 -0.1286  0.1714 -0.5686
13604TIP3    H162303   2.939   0.309  13.398  1.6636  1.8426  0.5319
13604TIP3    H262304   2.853   0.427  13.437 -0.0976  0.5343  0.7429
13605TIP3   OH262305   3.643   6.682  10.932  0.2130 -0.7098  0.1389
13605TIP3    H162306   3.657   6.717  10.845  1.6953 -2.4799 -0.4162
13605TIP3    H262307   3.551   6.656  10.934 -0.3550  1.1337 -0.1466
13606TIP3   OH262308   2.753   1.298   4.149  0.5165 -0.1025  0.3167
13606TIP3    H162309   2.674   1.323   4.198  1.6552  0.2290  2.0823
13606TIP3    H262310   2.786   1.380   4.112  1.0397  0.0753  1.1582
13607TIP3   OH262311   4.535   2.376   2.498 -0.5267 -0.1678 -0.2279
13607TIP3    H162312   4.587   2.383   2.578 -0.3205 -0.7365 -0.3100
13607TIP3    H262313   4.464   2.316   2.520  0.9897 -2.4725 -1.1961
13608TIP3   OH262314   6.756   6.860   1.062 -0.0549  1.0477 -0.6078
13608TIP3    H162315   6.761   6.768   1.038  1.5349  1.1730 -0.8606
13608TIP3    H262316   6.783   6.863   1.154 -0.1397  1.2635 -0.5872
13609TIP3   OH262317   5.892   3.145   4.845 -0.4212 -0.0964  0.4290
13609TIP3    H162318   5.806   3.152   4.803 -0.2282 -0.2068  0.0059
13609TIP3    H262319   5.954   3.144   4.772 -0.0591 -0.0066  0.7313
13610TIP3   OH262320   6.406   4.820   1.203  0.4066  0.0658 -0.3739
13610TIP3    H162321   6.325   4.848   1.160 -0.4391  1.9021  2.1673
13610TIP3    H262322   6.465   4.894   1.192  0.4736  0.2005  0.7785
13611TIP3   OH262323   2.843   5.613   4.037  0.6397  0.5693 -0.0625
13611TIP3    H162324   2.842   5.517   4.038  2.4221  0.5064 -0.0559
13611TIP3    H262325   2.850   5.636   3.945 -1.8052  0.7955 -0.2355
13612TIP3   OH262326   6.193   1.747   4.857 -0.1157  0.5150  0.2280
13612TIP3    H162327   6.282   1.752   4.822  0.0328  1.3924  0.7069
13612TIP3    H262328   6.191   1.814   4.926 -1.5243  1.4090 -0.6430
13613TIP3   OH262329   1.127   3.653   3.366 -0.4376 -0.2883  0.1857
13613TIP3    H162330   1.039   3.617   3.372  0.3673 -2.3435  0.6659
13613TIP3    H262331   1.147   3.654   3.273 -0.4957 -1.1413  0.1527
13614TIP3   OH262332   2.386   2.675  14.982  0.6053  0.2549 -0.4336
13614TIP3    H162333   2.388   2.669  15.078  0.7311  3.0535 -0.1869
13614TIP3    H262334   2.301   2.639  14.957  1.1609 -1.9082  0.5294
13615TIP3   OH262335   1.445   5.715   2.925  0.3656  0.5622 -0.5251
13615TIP3    H162336   1.463   5.624   2.902  1.6599  0.8630 -0.7880
13615TIP3    H262337   1.403   5.711   3.011  0.2141 -0.2938 -0.6384
13616TIP3   OH262338   3.339   4.675   4.156  0.5932 -0.0555 -0.6568
13616TIP3    H162339   3.382   4.615   4.217  0.4624  1.8269  1.4243
13616TIP3    H262340   3.404   4.690   4.087  0.2703 -3.2280 -1.7942
13617TIP3   OH262341   5.014   4.456  13.849 -0.2080 -0.4831  0.0076
13617TIP3    H162342   4.963   4.537  13.849 -1.4880 -1.2452  1.0446
13617TIP3    H262343   5.104   4.485  13.863 -0.5016  0.8108 -0.5651
13618TIP3   OH262344   3.618   0.730  13.773 -0.3812 -0.0028  0.3675
13618TIP3    H162345   3.660   0.657  13.819 -0.5551  0.6019  1.5291
13618TIP3    H262346   3.616   0.702  13.681 -1.2003 -1.8288  0.8780
13619TIP3   OH262347   4.091   0.938  14.446 -0.2806 -0.0830  0.1061
13619TIP3    H162348   4.118   0.867  14.504  2.1325 -0.9990 -1.9625
13619TIP3    H262349   4.060   0.894  14.367  0.4320  1.1179 -0.8842
13620TIP3   OH262350   7.119   5.917   2.004  0.4347 -0.0339 -0.6120
13620TIP3    H162351   7.183   5.925   1.933  3.7095 -2.4040  1.7328
13620TIP3    H262352   7.131   5.996   2.057  0.7319 -0.0150 -0.7055
13621TIP3   OH262353   5.975   4.548  14.803  0.9135  0.4544 -0.3715
13621TIP3    H162354   5.936   4.486  14.741 -1.5922 -1.0087  2.3999
13621TIP3    H262355   5.940   4.633  14.777  2.1268  0.3515 -2.5285
13622TIP3   OH262356   1.202   6.231   5.266 -0.1479 -0.6978 -0.8349
13622TIP3    H162357   1.216   6.324   5.247 -0.9004 -0.3771  0.0488
13622TIP3    H262358   1.286   6.190   5.250  0.8852  0.5478  1.0061
13623TIP3   OH262359   3.859   3.160   3.817  0.3401  0.3517  0.0172
13623TIP3    H162360   3.784   3.214   3.841 -0.4539 -0.5273 -0.4298
13623TIP3    H262361   3.852   3.151   3.722  0.6290 -0.2901  0.0504
13624TIP3   OH262362   3.835   6.573  12.823 -0.3494  0.0563  0.6616
13624TIP3    H162363   3.847   6.657  12.868  1.0125  0.0377  0.3892
13624TIP3    H262364   3.867   6.508  12.885  2.6956  0.1160 -0.6356
13625TIP3   OH262365   2.229   0.977  15.657  0.2419 -0.6488 -0.1043
13625TIP3    H162366   2.260   0.887  15.652  1.7805 -0.3075  1.8729
13625TIP3    H262367   2.296   1.027  15.610 -0.2680 -0.4690 -0.6411
13626TIP3   OH262368   3.209   4.930   9.969  0.2624 -0.2505  0.0722
13626TIP3    H162369   3.223   4.885   9.886  0.7269  0.2389 -0.1179
13626TIP3    H262370   3.114   4.943   9.973 -0.0452 -2.2265  0.6584
13627TIP3   OH262371   1.888   2.321   0.636 -0.6259  0.1494 -0.2404
13627TIP3    H162372   1.952   2.262   0.597 -1.6049 -0.0163 -1.6715
13627TIP3    H262373   1.851   2.271   0.709  0.4663  0.0474  0.2618
13628TIP3   OH262374   3.515   1.435   4.682  0.7879 -0.2418 -0.3393
13628TIP3    H162375   3.513   1.504   4.748 -1.6992  0.2030 -0.7832
13628TIP3    H262376   3.423   1.421   4.659  1.3909 -2.1784 -1.8627
13629TIP3   OH262377   5.095   6.505   5.180  0.2473  0.5350  0.4160
13629TIP3    H162378   5.121   6.551   5.260 -0.4617  0.0543  0.9373
13629TIP3    H262379   5.094   6.413   5.205 -0.8129  0.4462  0.1007
13630TIP3   OH262380   2.083   4.091  10.757 -0.4286  0.1330  0.1460
13630TIP3    H162381   2.114   4.121  10.672  0.5621 -1.1414  0.0267
13630TIP3    H262382   2.099   4.165  10.816  0.4746  0.4197 -0.4460
13631TIP3   OH262383   2.585   6.458   4.100  0.1760 -0.4774 -0.2215
13631TIP3    H162384   2.502   6.499   4.074  0.1580  0.3898  1.1461
13631TIP3    H262385   2.651   6.525   4.084  0.2984 -0.3158  0.9013
13632TIP3   OH262386   6.985   4.075  12.660 -0.5485  0.1174  0.0956
13632TIP3    H162387   6.908   4.131  12.647  1.4401  2.9560 -0.4236
13632TIP3    H262388   7.050   4.108  12.597  1.3186 -1.7826  0.8819
13633TIP3   OH262389   0.868   4.957   1.642 -0.1092 -0.0752 -0.1027
13633TIP3    H162390   0.780   4.939   1.674  0.3816 -1.4255  0.5472
13633TIP3    H262391   0.857   5.031   1.582 -1.5890  0.1336  0.3934
13634TIP3   OH262392   0.573   1.706  12.756 -0.1713  0.5904  0.4694
13634TIP3    H162393   0.527   1.769  12.701 -0.5396 -0.0068  0.0916
13634TIP3    H262394   0.504   1.661  12.804  0.0159 -0.2539 -0.0401
13635TIP3   OH262395   1.204   6.716   4.551 -0.4838  0.2981 -0.6395
13635TIP3    H162396   1.243   6.729   4.637 -2.3834 -1.6718  0.6505
13635TIP3    H262397   1.128   6.774   4.550 -0.3679  0.4439 -1.0584
13636TIP3   OH262398   2.817   0.058   4.734 -0.0370  0.3194  0.4961
13636TIP3    H162399   2.862   0.100   4.807 -0.9352  0.3305  1.0499
13636TIP3    H262400   2.845   0.108   4.657  0.9052  0.3146  0.8180
13637TIP3   OH262401   2.870   5.662   2.912  0.5278 -0.0436 -0.0390
13637TIP3    H162402   2.784   5.680   2.952 -1.2351 -2.8537 -2.1791
13637TIP3    H262403   2.927   5.645   2.987 -1.2430  0.1153  1.4333
13638TIP3   OH262404   0.806   2.031   1.441  0.0434  0.0220 -0.1351
13638TIP3    H162405   0.750   2.078   1.379  0.1640 -0.4647 -0.6268
13638TIP3    H262406   0.767   2.048   1.526 -0.3360  0.4151 -0.3809
13639TIP3   OH262407   5.005   5.993  10.724 -0.0428  0.5659 -0.1681
13639TIP3    H162408   5.048   5.919  10.682 -1.7329  0.0311 -1.0315
13639TIP3    H262409   5.057   6.069  10.698  1.1158 -0.1960 -0.1100
13640TIP3   OH262410   5.249   2.712  14.499 -0.2727  0.1819 -0.2439
13640TIP3    H162411   5.231   2.761  14.580 -1.1186  0.7188 -0.7420
13640TIP3    H262412   5.253   2.779  14.431  1.2495 -0.1734 -0.5483
13641TIP3   OH262413   0.544   2.902   2.035  0.4355 -0.0684 -0.5325
13641TIP3    H162414   0.599   2.872   1.963  1.9358  1.8974 -0.2932
13641TIP3    H262415   0.597   2.889   2.114  0.2532  1.1030 -0.1983
13642TIP3   OH262416   0.297   6.088   2.568 -0.3010 -0.0193  0.2957
13642TIP3    H162417   0.338   6.169   2.539 -0.3970  0.6011  1.8096
13642TIP3    H262418   0.209   6.090   2.528 -0.0995  0.3360 -0.1344
13643TIP3   OH262419   1.978   6.891   3.140  0.3572 -0.4225  0.7529
13643TIP3    H162420   2.000   6.882   3.048 -0.2293  1.3203  0.4152
13643TIP3    H262421   1.940   6.806   3.164 -1.1689 -0.3056 -1.0913
13644TIP3   OH262422   2.889   6.419  13.631 -0.1162 -0.5950  0.5423
13644TIP3    H162423   2.822   6.410  13.699 -0.1213 -1.7062  0.4246
13644TIP3    H262424   2.881   6.337  13.581  0.2972 -0.0616 -0.4118
13645TIP3   OH262425   6.291   5.701   1.521 -0.2257  0.9630 -0.2229
13645TIP3    H162426   6.279   5.742   1.606 -1.8577  0.6656 -0.2604
13645TIP3    H262427   6.368   5.742   1.484 -0.4773  2.3175  0.6970
13646TIP3   OH262428   1.333   2.990   0.520 -0.0429 -0.0750 -0.4723
13646TIP3    H162429   1.367   3.067   0.474 -1.2419  1.8343  1.6403
13646TIP3    H262430   1.398   2.970   0.587  0.1413 -0.7952 -0.8472
13647TIP3   OH262431   1.331   0.363  10.758 -0.5025 -0.4196 -0.3341
13647TIP3    H162432   1.396   0.432  10.745  0.3165 -1.1912 -0.4247
13647TIP3    H262433   1.285   0.358  10.674 -2.8445  2.2134  0.6049
13648TIP3   OH262434   0.144   2.136  12.379  0.1685  0.0902  0.0089
13648TIP3    H162435   0.172   2.227  12.391  0.8256 -0.1357  0.2196
13648TIP3    H262436   0.101   2.113  12.461 -0.6361  0.4282 -0.3036
13649TIP3   OH262437   4.391   2.497   3.622  0.0060  0.5197  0.3725
13649TIP3    H162438   4.361   2.545   3.699 -1.3223 -1.2846  1.0489
13649TIP3    H262439   4.355   2.547   3.548  0.7508  1.9033  0.8974
13650TIP3   OH262440   2.305   4.726   2.192  0.1688  0.1750  0.1817
13650TIP3    H162441   2.350   4.781   2.255 -0.7838  0.0343  1.0006
13650TIP3    H262442   2.275   4.651   2.242  1.2483 -1.0158 -0.8707
13651TIP3   OH262443   1.630   0.432   0.518 -0.2038 -0.5054 -0.8403
13651TIP3    H162444   1.611   0.349   0.561 -0.2580 -1.1547 -2.0452
13651TIP3    H262445   1.686   0.479   0.579  0.1685 -1.6084 -0.2955
13652TIP3   OH262446   0.196   1.547  14.327 -0.3470 -0.5227  0.1607
13652TIP3    H162447   0.269   1.597  14.292 -2.9981  2.7370 -1.3299
13652TIP3    H262448   0.199   1.562  14.421  0.0346  0.9279 -0.0586
13653TIP3   OH262449   2.020   2.661  15.203 -0.1968 -0.1556  0.4337
13653TIP3    H162450   1.943   2.611  15.178 -0.4206  0.2176  0.3677
13653TIP3    H262451   2.093   2.617  15.159 -0.5384  0.2658 -0.5793
13654TIP3   OH262452   4.585   4.115  15.489  0.2479  0.5039 -0.1328
13654TIP3    H162453   4.581   4.150  15.400  1.0965 -0.5548 -0.6217
13654TIP3    H262454   4.551   4.185  15.544 -2.3818  0.4296 -1.4682
13655TIP3   OH262455   5.130   5.913   3.984  0.0304 -0.4893  0.1954
13655TIP3    H162456   5.189   5.959   3.924 -0.0852 -0.9216 -0.2444
13655TIP3    H262457   5.165   5.825   3.990 -0.4159 -0.6725  0.1486
13656TIP3   OH262458   1.193   0.626  14.963  0.2059  0.8721  0.0152
13656TIP3    H162459   1.219   0.704  14.915  2.1349  2.6184  3.4376
13656TIP3    H262460   1.104   0.643  14.992  0.0668  1.0916 -0.5391
13657TIP3   OH262461   3.308   5.469   2.970 -0.2351 -0.5860 -0.2000
13657TIP3    H162462   3.332   5.488   2.879  1.4137 -2.3517 -0.2211
13657TIP3    H262463   3.314   5.553   3.015  1.7493 -0.1192 -1.1952
13658TIP3   OH262464   6.106   3.740  11.686 -0.2116 -0.0936 -0.4217
13658TIP3    H162465   6.157   3.714  11.763  0.3335  2.7546  0.2681
13658TIP3    H262466   6.171   3.772  11.623 -0.8625 -0.0104 -1.0656
13659TIP3   OH262467   6.620   6.399  15.632  0.3956  0.7312  0.2057
13659TIP3    H162468   6.678   6.323  15.626 -3.5940 -2.8343  1.6141
13659TIP3    H262469   6.575   6.402  15.548 -1.1009 -0.0536  0.9392
13660TIP3   OH262470   7.068   7.022   1.717  0.1866 -0.0085  0.1225
13660TIP3    H162471   7.134   6.978   1.663  0.8460  2.5474 -1.3013
13660TIP3    H262472   7.115   7.095   1.757 -1.6622  1.6819 -0.6428
13661TIP3   OH262473   1.281   6.418   5.659 -0.1414  0.2111 -0.1070
13661TIP3    H162474   1.211   6.370   5.614  0.1611 -0.1246 -0.2282
13661TIP3    H262475   1.308   6.360   5.730 -0.1259  0.4272  0.0626
13662TIP3   OH262476   1.326   2.547   5.115  0.3837  0.3068  0.6787
13662TIP3    H162477   1.418   2.573   5.107  0.3560  0.3220  0.3836
13662TIP3    H262478   1.286   2.578   5.034 -0.0524  1.0054  1.1440
13663TIP3   OH262479   2.210   6.537  10.428 -0.3920 -0.0856  0.7463
13663TIP3    H162480   2.117   6.560  10.425  0.0088  1.8056  1.7968
13663TIP3    H262481   2.242   6.576  10.509  1.0106 -2.0698  1.2164
13664TIP3   OH262482   2.219   0.253   0.320  0.1730  0.4024 -0.3437
13664TIP3    H162483   2.193   0.162   0.337 -1.0409  0.6922 -0.6198
13664TIP3    H262484   2.231   0.257   0.226  2.0700  0.0774 -0.1646
13665TIP3   OH262485   6.782   3.944  11.302  0.3833 -0.2478 -0.0856
13665TIP3    H162486   6.759   3.900  11.383  1.9313  0.1378  0.5972
13665TIP3    H262487   6.708   4.001  11.283  0.2794  0.1284  1.3990
13666TIP3   OH262488   1.166   2.237   5.659 -0.1073  0.6485 -0.1534
13666TIP3    H162489   1.194   2.227   5.568 -1.3382  2.0925 -0.7425
13666TIP3    H262490   1.161   2.332   5.672  0.8573  0.4815  1.7063
13667TIP3   OH262491   3.278   2.553   3.142 -1.0712  0.1113 -0.3693
13667TIP3    H162492   3.366   2.529   3.113 -0.9579  1.6727 -1.4707
13667TIP3    H262493   3.288   2.580   3.233 -0.6147 -0.6921 -0.1734
13668TIP3   OH262494   5.721   3.218   1.346  0.5986  0.1707 -0.0751
13668TIP3    H162495   5.801   3.165   1.351  0.6858  0.1891 -1.1422
13668TIP3    H262496   5.727   3.262   1.262 -0.9808 -0.5141 -0.5702
13669TIP3   OH262497   4.559   4.173   2.584 -0.2977 -0.0162  0.0015
13669TIP3    H162498   4.628   4.106   2.592 -0.8495 -0.5729  0.2135
13669TIP3    H262499   4.605   4.256   2.589  0.2220 -0.3737  1.4964
13670TIP3   OH262500   4.302   3.704   5.188 -0.4272  0.0865 -0.3753
13670TIP3    H162501   4.307   3.690   5.283 -0.2655  1.0977 -0.2297
13670TIP3    H262502   4.235   3.771   5.177  1.4313  1.9765 -0.7507
13671TIP3   OH262503   3.949   5.799   1.910  0.2923  0.6269 -0.3370
13671TIP3    H162504   3.905   5.851   1.977  2.3990  0.3163  1.3987
13671TIP3    H262505   4.005   5.861   1.864 -0.2118  0.6058 -0.9953
13672TIP3   OH262506   0.405   4.993   1.318  0.4007 -0.3375 -0.6150
13672TIP3    H162507   0.423   5.087   1.305  3.0100 -0.6131  0.5390
13672TIP3    H262508   0.410   4.980   1.412 -3.6158 -1.0811 -0.3077
13673TIP3   OH262509   6.862   4.124  11.535 -0.2405  0.1705 -0.1735
13673TIP3    H162510   6.850   4.037  11.574  3.2425 -0.6865 -0.6160
13673TIP3    H262511   6.820   4.118  11.449 -1.4286 -0.4975  0.4247
13674TIP3   OH262512   2.693   3.470   0.930  0.4687  0.0372  0.3929
13674TIP3    H162513   2.607   3.467   0.974  1.1488 -0.1258  1.7716
13674TIP3    H262514   2.686   3.544   0.870 -0.6731 -0.0435  0.3940
13675TIP3   OH262515   5.496   2.154  14.320 -0.4147  0.1074  0.2405
13675TIP3    H162516   5.556   2.142  14.247  0.0855  0.9690  0.4932
13675TIP3    H262517   5.421   2.200  14.282  0.4769  1.9027  0.5027
13676TIP3   OH262518   2.157   0.285  12.190 -0.1514  0.1003  0.4058
13676TIP3    H162519   2.104   0.365  12.194  0.7925  0.9055 -1.5887
13676TIP3    H262520   2.248   0.316  12.183  0.4362 -1.2067  1.6138
13677TIP3   OH262521   5.305   0.794   2.807 -0.1323  0.0557  0.0635
13677TIP3    H162522   5.265   0.766   2.725 -0.0840 -0.6101  0.2631
13677TIP3    H262523   5.271   0.882   2.821  0.5555  0.5440 -1.1242
13678TIP3   OH262524   1.211   4.636   3.619 -0.6307 -0.0054  0.5519
13678TIP3    H162525   1.192   4.543   3.627 -0.7054 -0.1231 -0.9062
13678TIP3    H262526   1.302   4.641   3.592 -0.5288  0.3728  0.9360
13679TIP3   OH262527   1.444   2.156   0.055 -0.4891 -0.6076  0.6824
13679TIP3    H162528   1.445   2.241   0.098 -0.0072 -0.3894  0.2507
13679TIP3    H262529   1.477   2.173  -0.033 -1.9232 -0.9575  0.0468
13680TIP3   OH262530   3.606   6.569   4.545 -0.3564 -0.0851 -0.6328
13680TIP3    H162531   3.684   6.620   4.527 -1.0718  1.7999  1.1920
13680TIP3    H262532   3.606   6.500   4.479  3.0936 -0.4797 -0.3688
13681TIP3   OH262533   1.803   3.646  15.701 -0.5138 -0.2061  0.2556
13681TIP3    H162534   1.809   3.551  15.711 -1.1146 -0.3859 -0.8963
13681TIP3    H262535   1.877   3.669  15.644  0.5456  0.2450  1.7723
13682TIP3   OH262536   1.062   5.089   3.667  0.1113 -0.0067 -0.2416
13682TIP3    H162537   0.986   5.147   3.665 -0.4692 -0.7705 -1.4619
13682TIP3    H262538   1.095   5.096   3.756 -2.2320 -0.7030  0.7580
13683TIP3   OH262539   0.771   4.408   2.940  0.3007  0.1272 -0.2525
13683TIP3    H162540   0.721   4.333   2.910  1.3482 -0.2039 -1.2436
13683TIP3    H262541   0.803   4.449   2.859 -0.0662  1.5069  0.2776
13684TIP3   OH262542   4.226   6.210   2.745 -0.1241  0.2876  0.2021
13684TIP3    H162543   4.208   6.137   2.804  2.1088 -0.5271 -0.0490
13684TIP3    H262544   4.218   6.172   2.658  1.8372  0.0919  0.0764
13685TIP3   OH262545   0.411   7.061  11.102 -0.3014 -0.0754 -0.0549
13685TIP3    H162546   0.485   7.084  11.158  0.7718  1.0298 -1.8251
13685TIP3    H262547   0.380   6.977  11.136  3.1985 -1.7317 -0.5684
13686TIP3   OH262548   7.138   2.093   4.643  0.2784  0.2599  0.1737
13686TIP3    H162549   7.079   2.031   4.600  0.3926  0.8223 -0.8357
13686TIP3    H262550   7.198   2.120   4.573  2.0048 -0.6061  1.2546
13687TIP3   OH262551   7.059   3.457   0.915 -0.1718 -0.0036 -0.6288
13687TIP3    H162552   6.981   3.493   0.957 -0.3216  0.2240 -1.1031
13687TIP3    H262553   7.033   3.368   0.889  0.2410 -0.5363  0.6654
13688TIP3   OH262554   3.502   1.854   2.548 -0.2136 -0.0345 -0.0336
13688TIP3    H162555   3.517   1.904   2.468  1.0824 -0.0583  0.1611
13688TIP3    H262556   3.412   1.822   2.540 -0.1304  0.0056 -1.4517
13689TIP3   OH262557   7.104   0.832   4.738 -0.1517 -0.1837  0.1237
13689TIP3    H162558   7.195   0.810   4.721 -0.0624 -1.3752  1.8810
13689TIP3    H262559   7.053   0.764   4.694 -0.1899  0.3274 -0.6300
13690TIP3   OH262560   1.009   3.544   0.865 -0.0863 -0.4488  0.0267
13690TIP3    H162561   1.011   3.455   0.900  0.4011 -0.6611 -0.5129
13690TIP3    H262562   0.960   3.594   0.929  1.5807 -0.6043  1.4704
13691TIP3   OH262563   3.689   2.778   2.576 -0.5016 -0.3779 -0.5243
13691TIP3    H162564   3.655   2.820   2.655 -0.3659 -1.9208  0.3983
13691TIP3    H262565   3.784   2.785   2.584 -0.4957 -0.2284 -0.7263
13692TIP3   OH262566   0.786   0.145   4.814 -0.1979  1.0137 -0.2285
13692TIP3    H162567   0.799   0.057   4.850  1.1073  0.3664 -2.1378
13692TIP3    H262568   0.734   0.190   4.881 -2.7187 -1.8004 -0.0569
13693TIP3   OH262569   2.748   2.259   1.802 -0.1863 -0.8985 -0.0199
13693TIP3    H162570   2.680   2.229   1.742 -1.3048 -0.8263  1.1583
13693TIP3    H262571   2.826   2.267   1.748 -1.4386  0.4348 -1.7435
13694TIP3   OH262572   5.628   4.960   4.301 -0.0930  0.1637  0.0054
13694TIP3    H162573   5.680   5.023   4.252 -0.4092 -0.3973 -1.0926
13694TIP3    H262574   5.643   4.877   4.256  0.1852 -0.5308  1.3171
13695TIP3   OH262575   3.216   4.559   0.840  0.1524  0.3616 -0.6665
13695TIP3    H162576   3.185   4.562   0.749 -1.6305  0.6895 -0.0883
13695TIP3    H262577   3.136   4.563   0.892  0.9626 -1.9679  0.9284
13696TIP3   OH262578   1.075   3.666   4.177 -0.0334  0.1682 -0.2214
13696TIP3    H162579   1.051   3.583   4.217  1.7578 -0.0098  0.5697
13696TIP3    H262580   1.125   3.642   4.099 -0.9267  0.5263 -0.9248
13697TIP3   OH262581   1.003   4.575  14.461 -0.7304 -0.2744 -0.2829
13697TIP3    H162582   1.024   4.504  14.400 -1.9543  0.3565 -1.4933
13697TIP3    H262583   1.035   4.654  14.419  0.0044 -0.0035  0.7410
13698TIP3   OH262584   2.601   1.759   4.086 -0.3448  0.1302 -0.1701
13698TIP3    H162585   2.696   1.750   4.076 -0.3103 -1.0139  0.8658
13698TIP3    H262586   2.566   1.678   4.048 -0.8172  0.0494  0.4310
13699TIP3   OH262587   0.937   2.582  14.313  0.1276  0.5679 -0.0258
13699TIP3    H162588   0.874   2.600  14.243 -0.3989 -0.8242  0.0668
13699TIP3    H262589   1.009   2.537  14.270  0.6057  1.2431  0.0491
13700TIP3   OH262590   3.323   4.929   1.936 -0.2727  0.1566  0.0757
13700TIP3    H162591   3.412   4.964   1.928  1.7537 -3.8626  2.1256
13700TIP3    H262592   3.320   4.891   2.023 -3.8772 -0.4046 -0.1637
13701TIP3   OH262593   3.718   2.704   4.627  0.0755 -0.0782  0.0410
13701TIP3    H162594   3.627   2.698   4.598 -0.0477 -0.6849  0.5404
13701TIP3    H262595   3.761   2.630   4.585  0.7602  1.1964 -1.6267
13702TIP3   OH262596   4.258   0.285   0.608 -0.1016  0.3103 -0.1438
13702TIP3    H162597   4.173   0.321   0.635  0.0739 -0.4241  1.5470
13702TIP3    H262598   4.317   0.307   0.680  1.3461  1.4159 -1.6077
13703TIP3   OH262599   2.651   0.947  10.508 -0.3326 -0.1298  0.0450
13703TIP3    H162600   2.695   0.917  10.588 -0.9758  0.9384  0.8189
13703TIP3    H262601   2.720   0.946  10.441 -0.1300 -2.5346  0.1919
13704TIP3   OH262602   0.471   7.131   1.055 -0.5616 -0.2982  0.0091
13704TIP3    H162603   0.488   7.113   1.148 -0.9369  0.8534  0.3118
13704TIP3    H262604   0.422   7.055   1.025  0.6472 -1.2791  0.4270
13705TIP3   OH262605   2.364   0.323   4.658  0.0153  0.1220  0.3712
13705TIP3    H162606   2.365   0.269   4.578  0.3698 -0.7384  0.9408
13705TIP3    H262607   2.294   0.386   4.643 -0.8512 -0.9050 -0.0562
13706TIP3   OH262608   1.674   3.954  14.304  0.3372 -0.1592  0.4037
13706TIP3    H162609   1.649   3.862  14.293 -1.9125  0.3207  1.0414
13706TIP3    H262610   1.615   4.001  14.244 -1.2961  1.1492  2.8850
13707TIP3   OH262611   5.672   1.151  13.854  0.0963  0.1996 -0.5920
13707TIP3    H162612   5.642   1.135  13.944  2.0875 -3.3520 -0.3715
13707TIP3    H262613   5.592   1.154  13.803 -1.0121 -0.3294  1.0150
13708TIP3   OH262614   3.001   4.539  15.230 -0.4494 -0.3540  0.3990
13708TIP3    H162615   2.926   4.488  15.262 -0.8257  0.3587  0.6760
13708TIP3    H262616   2.962   4.610  15.178  0.0780 -0.4961 -0.2050
13709TIP3   OH262617   4.815   4.261   0.174  0.1268  0.1274  0.4653
13709TIP3    H162618   4.784   4.345   0.207  2.5378  0.7802  1.3415
13709TIP3    H262619   4.872   4.228   0.244  0.2116 -1.6331 -0.3888
13710TIP3   OH262620   6.779   1.308  15.313  0.1992 -0.1235  0.0951
13710TIP3    H162621   6.865   1.350  15.321 -0.1663  0.3455  1.9972
13710TIP3    H262622   6.727   1.346  15.384 -1.4819 -0.6622 -0.7985
13711TIP3   OH262623   6.035   0.709  10.445  0.2997 -0.2398  0.0549
13711TIP3    H162624   5.956   0.665  10.477 -0.2291  0.6136 -0.0506
13711TIP3    H262625   6.094   0.709  10.520 -0.7426  1.3042  0.9139
13712TIP3   OH262626   5.916   5.419  11.652 -0.1245 -0.0099  0.3123
13712TIP3    H162627   5.904   5.333  11.613  2.4104 -0.2677 -0.1012
13712TIP3    H262628   5.910   5.480  11.579  0.7361 -0.1245  0.1309
13713TIP3   OH262629   2.694   1.517   2.448 -0.0101  0.4187 -0.5301
13713TIP3    H162630   2.618   1.570   2.472 -0.6468 -0.7345  0.1308
13713TIP3    H262631   2.668   1.473   2.367 -0.6747 -1.0778  0.4324
13714TIP3   OH262632   3.243   0.686   5.462 -0.0516  0.1250  0.4528
13714TIP3    H162633   3.243   0.638   5.545 -0.9887 -0.1797  0.2950
13714TIP3    H262634   3.264   0.776   5.487 -0.0547 -0.0144  0.9860
13715TIP3   OH262635   6.592   1.122   3.092  0.7452 -0.6056  0.4365
13715TIP3    H162636   6.553   1.038   3.072 -2.3706  0.8152 -0.0382
13715TIP3    H262637   6.646   1.143   3.016  1.7461 -2.2200  0.6670
13716TIP3   OH262638   4.008   4.429   5.545 -0.2871 -0.2324 -0.5158
13716TIP3    H162639   4.025   4.402   5.455 -0.7561 -0.8669 -0.4168
13716TIP3    H262640   3.949   4.504   5.537 -1.0843 -0.8730 -0.7119
13717TIP3   OH262641   0.500   4.664   1.966 -0.0292  0.0246 -0.4575
13717TIP3    H162642   0.405   4.653   1.966  0.2319 -3.0111 -0.8587
13717TIP3    H262643   0.528   4.633   1.880  1.2797  2.3274 -0.9680
13718TIP3   OH262644   2.851   5.263   3.371  0.0597  0.3045  0.1132
13718TIP3    H162645   2.824   5.173   3.384  1.9967 -0.2665  0.4966
13718TIP3    H262646   2.922   5.258   3.307  0.1633  1.5613  0.0956
13719TIP3   OH262647   1.497   5.942   3.474 -0.4681  0.2492  0.7740
13719TIP3    H162648   1.444   5.914   3.399 -1.0009  0.5742  1.0253
13719TIP3    H262649   1.536   5.862   3.507 -0.2932  0.0910  0.1968
13720TIP3   OH262650   1.230   1.358   5.637  0.1518 -0.4244  0.7315
13720TIP3    H162651   1.150   1.372   5.687  1.1024  2.0371  1.7270
13720TIP3    H262652   1.291   1.318   5.700  0.2606 -0.5902  0.5219
13721TIP3   OH262653   2.771   2.984  15.007 -0.0584 -0.1858  0.2389
13721TIP3    H162654   2.805   3.013  14.922  1.3882 -1.7586  0.2261
13721TIP3    H262655   2.786   3.059  15.065 -0.4284  0.6514 -0.7185
13722TIP3   OH262656   0.070   2.218   4.847 -0.6319  0.4694 -0.0743
13722TIP3    H162657   0.022   2.184   4.771 -1.7291  0.8936  0.4060
13722TIP3    H262658   0.159   2.232   4.815 -1.2191  1.2425 -1.4758
13723TIP3   OH262659   0.441   0.700  12.640  0.2435 -0.8378  0.2500
13723TIP3    H162660   0.369   0.664  12.693  1.0456 -2.3766  0.3684
13723TIP3    H262661   0.514   0.706  12.702  0.2673  0.6039  0.1036
13724TIP3   OH262662   2.402   7.034  15.299  0.0788  0.0676  0.1620
13724TIP3    H162663   2.496   7.014  15.304 -0.0989 -0.4405  2.0193
13724TIP3    H262664   2.383   7.080  15.381 -1.7607 -1.9445  0.9312
13725TIP3   OH262665   1.669   5.156   3.024 -0.6660  0.2278  0.1267
13725TIP3    H162666   1.613   5.123   3.094 -2.3640  1.3246 -0.6507
13725TIP3    H262667   1.685   5.079   2.969  2.2150 -1.0951  2.5673
13726TIP3   OH262668   0.376   3.489  11.041  0.5810 -0.0249 -0.0611
13726TIP3    H162669   0.304   3.534  11.086  2.4970  1.9589  1.2317
13726TIP3    H262670   0.336   3.454  10.962 -1.9757  0.2523  1.0015
13727TIP3   OH262671   1.106   6.197   3.966 -0.5540 -1.0171  0.1645
13727TIP3    H162672   1.133   6.169   4.053  0.1651 -0.8447  0.0010
13727TIP3    H262673   1.184   6.236   3.927 -1.1723 -0.0145 -0.1202
13728TIP3   OH262674   4.839   3.157   2.661  0.0858  0.6386  0.2565
13728TIP3    H162675   4.813   3.225   2.599 -0.5760  0.6917  0.5755
13728TIP3    H262676   4.854   3.079   2.608  2.3206  1.3767 -0.3033
13729TIP3   OH262677   1.376   3.612   1.998  0.1618 -0.1582 -0.6610
13729TIP3    H162678   1.420   3.666   1.932 -0.0869 -1.5932 -2.0587
13729TIP3    H262679   1.342   3.537   1.949 -1.9740 -0.1879  0.7353
13730TIP3   OH262680   6.228   6.239   5.909 -0.1815  0.2225 -0.0239
13730TIP3    H162681   6.215   6.333   5.895 -2.3552  0.1757  1.2281
13730TIP3    H262682   6.323   6.228   5.907  0.1033  2.3111 -0.9307
13731TIP3   OH262683   3.951   4.507   1.066 -0.1708 -0.1422  0.0874
13731TIP3    H162684   3.972   4.575   1.003 -0.9048 -0.7749 -0.8633
13731TIP3    H262685   4.035   4.484   1.106  0.0692  1.4422  0.5905
13732TIP3   OH262686   7.127   4.663  14.639  0.1582  0.1147 -0.7175
13732TIP3    H162687   7.077   4.606  14.697  2.4770 -0.6442  0.6636
13732TIP3    H262688   7.119   4.622  14.553  0.1631 -1.1823 -0.1164
13733TIP3   OH262689   4.972   1.533  12.537  0.0573  0.1266 -0.7926
13733TIP3    H162690   4.924   1.605  12.497 -0.2518 -0.1866 -0.9821
13733TIP3    H262691   4.934   1.454  12.500  0.3884 -0.1391 -0.5775
13734TIP3   OH262692   3.935   6.448  12.454  0.3706 -0.1672  0.4271
13734TIP3    H162693   3.857   6.481  12.410  1.9054 -0.0706 -2.4297
13734TIP3    H262694   3.908   6.362  12.489 -0.9978 -0.1701 -0.5616
13735TIP3   OH262695   3.945   4.104   4.702  0.5626  0.0437  0.3216
13735TIP3    H162696   3.951   4.199   4.712  0.0497  0.4216 -2.1937
13735TIP3    H262697   3.861   4.081   4.743  0.4914  0.7401  0.5839
13736TIP3   OH262698   1.358   0.628   4.289 -0.4760  0.4880 -0.4284
13736TIP3    H162699   1.433   0.599   4.340 -2.1645 -1.5599  1.0122
13736TIP3    H262700   1.352   0.722   4.308  1.9391  0.8272 -0.9677
13737TIP3   OH262701   4.373   2.189  12.357  0.1724 -0.1426 -0.0699
13737TIP3    H162702   4.402   2.213  12.445  0.2699 -1.0099  0.1409
13737TIP3    H262703   4.448   2.145  12.318 -0.2534 -0.8149 -0.1523
13738TIP3   OH262704   0.134   7.111  13.222  0.2356 -0.5795 -0.8378
13738TIP3    H162705   0.041   7.113  13.199  0.1865 -0.3437 -0.6275
13738TIP3    H262706   0.136   7.142  13.313  0.5402 -0.3962 -0.9081
13739TIP3   OH262707   4.824   3.117   4.809 -0.3107 -0.7196 -0.5219
13739TIP3    H162708   4.893   3.130   4.743 -0.9826  3.0146 -0.7155
13739TIP3    H262709   4.765   3.053   4.769  1.7719 -2.2999 -1.3231
13740TIP3   OH262710   1.129   7.100   5.182  0.0069 -0.0777 -0.2907
13740TIP3    H162711   1.129   7.195   5.169 -1.0786 -0.2966 -2.0363
13740TIP3    H262712   1.220   7.074   5.168  0.1394  0.5931 -0.7032
13741TIP3   OH262713   5.240   6.871   2.323  0.2558  0.7888 -0.3548
13741TIP3    H162714   5.262   6.879   2.230 -0.1588  1.6898 -0.3807
13741TIP3    H262715   5.234   6.961   2.355  0.6230  0.4901  0.6062
13742TIP3   OH262716   4.931   4.139   2.780 -0.1995  0.3234 -0.7610
13742TIP3    H162717   5.014   4.160   2.822 -0.3986  0.4543 -0.4309
13742TIP3    H262718   4.935   4.184   2.695 -1.2212  3.0730  0.5005
13743TIP3   OH262719   1.286   2.291   2.258  0.2015  0.4492 -0.6495
13743TIP3    H162720   1.358   2.325   2.311 -0.9127 -0.2937  1.4921
13743TIP3    H262721   1.267   2.205   2.296 -1.9593  0.7399 -0.9416
13744TIP3   OH262722   2.869   5.631   3.751 -0.0929  0.2612  0.2405
13744TIP3    H162723   2.868   5.695   3.680  0.8028  0.2389  0.1894
13744TIP3    H262724   2.833   5.551   3.713  0.6131  0.1798 -0.2714
13745TIP3   OH262725   3.526   2.943   3.884 -0.6773  0.6902 -0.4078
13745TIP3    H162726   3.544   3.010   3.950  2.0394  0.5886 -0.9037
13745TIP3    H262727   3.562   2.863   3.922 -0.5535  0.2978 -1.3212
13746TIP3   OH262728   1.973   2.308  13.309 -0.3720 -0.2454 -0.0595
13746TIP3    H162729   1.911   2.255  13.260 -1.4369 -0.0202  1.0120
13746TIP3    H262730   2.056   2.260  13.302 -1.1650 -1.7413  0.3808
13747TIP3   OH262731   3.188   5.519  13.275 -0.0449  0.1208 -0.1962
13747TIP3    H162732   3.173   5.612  13.256 -1.4081  0.1304  0.8033
13747TIP3    H262733   3.127   5.499  13.345  0.0962 -1.5954 -0.5297
13748TIP3   OH262734   4.105   2.992  14.495 -0.5971  0.0538 -0.1868
13748TIP3    H162735   4.026   3.040  14.470 -0.0282  2.0030  1.5188
13748TIP3    H262736   4.176   3.055  14.488  0.4461 -0.9666  0.6411
13749TIP3   OH262737   0.833   5.065   3.050  0.4023 -0.3908  0.2530
13749TIP3    H162738   0.757   5.040   2.997  1.1542 -2.9696  0.2429
13749TIP3    H262739   0.897   5.095   2.986 -0.5563  1.9780  0.2738
13750TIP3   OH262740   0.405   4.587  15.401  0.3271  0.2065 -0.1715
13750TIP3    H162741   0.453   4.506  15.414 -0.1253  0.2422  2.0037
13750TIP3    H262742   0.474   4.655  15.399  0.5895 -0.0628 -0.5210
13751TIP3   OH262743   6.551   6.734   4.187 -0.0675 -0.8149  0.3771
13751TIP3    H162744   6.511   6.700   4.106  0.7183 -2.7297  0.7627
13751TIP3    H262745   6.479   6.734   4.250 -0.3596 -0.5740  0.0559
13752TIP3   OH262746   6.184   7.117   5.138 -0.3576  0.0675  0.0390
13752TIP3    H162747   6.188   7.057   5.064  1.0549 -0.4460  0.4976
13752TIP3    H262748   6.144   7.066   5.209  0.7100 -0.3119  0.3860
13753TIP3   OH262749   5.385   1.615  13.329 -0.3430  0.0186  0.0824
13753TIP3    H162750   5.354   1.533  13.291  0.3825  0.0731 -0.6506
13753TIP3    H262751   5.320   1.680  13.302 -0.3375 -0.1169 -0.2528
13754TIP3   OH262752   6.691   5.954  15.059 -0.3938 -0.1931 -0.5186
13754TIP3    H162753   6.728   5.873  15.024  0.7052 -0.7512  1.7375
13754TIP3    H262754   6.737   6.023  15.012  0.0828 -0.8696 -1.0742
13755TIP3   OH262755   0.356   1.152   0.076 -0.4326  0.1257 -0.4661
13755TIP3    H162756   0.307   1.232   0.059 -0.1879  0.0700 -1.4925
13755TIP3    H262757   0.379   1.157   0.169 -0.9234  0.9589 -0.3834
13756TIP3   OH262758   1.886   1.207  15.038 -0.1440 -0.2584 -0.3554
13756TIP3    H162759   1.962   1.167  15.080 -0.4097  0.8574  1.3032
13756TIP3    H262760   1.914   1.225  14.948  0.6787 -2.1364 -0.5194
13757TIP3   OH262761   5.366   4.357  15.455  0.1545  0.3093 -0.2397
13757TIP3    H162762   5.460   4.363  15.439  0.0220  1.5330 -0.7488
13757TIP3    H262763   5.356   4.376  15.548  0.6003 -2.5632  0.4674
13758TIP3   OH262764   1.399   6.291  15.680  0.1672 -0.0179 -0.2569
13758TIP3    H162765   1.368   6.210  15.721  0.8070  1.5096  3.6840
13758TIP3    H262766   1.335   6.357  15.705  1.6762  1.3974  0.0175
13759TIP3   OH262767   1.755   4.423   0.979 -0.1380 -0.0722  0.2297
13759TIP3    H162768   1.762   4.328   0.969 -0.9068 -0.0041 -1.3745
13759TIP3    H262769   1.662   4.441   0.965 -0.0729  0.8706  1.0036
13760TIP3   OH262770   3.479   3.343   1.248  0.2474 -0.8769 -0.7605
13760TIP3    H162771   3.562   3.367   1.207 -0.1214 -1.0637 -1.6258
13760TIP3    H262772   3.503   3.322   1.339  0.9979 -0.0294 -0.7537
13761TIP3   OH262773   1.663   2.389   2.939 -0.2147  0.9688 -0.1170
13761TIP3    H162774   1.724   2.454   2.974  0.0713  0.2760  0.6906
13761TIP3    H262775   1.713   2.308   2.937 -1.3013  0.2433  1.1624
13762TIP3   OH262776   0.014   0.877   1.648 -0.7446 -0.8017 -0.6524
13762TIP3    H162777   0.065   0.859   1.727 -0.7797  0.6028 -0.2815
13762TIP3    H262778  -0.027   0.793   1.627  3.7861 -2.8620 -2.5973
13763TIP3   OH262779   1.449   2.669  15.703  0.0147  0.1728 -0.0498
13763TIP3    H162780   1.437   2.741  15.764  0.8738  2.5849 -2.5356
13763TIP3    H262781   1.542   2.645  15.711 -0.3546 -1.0239  1.0555
13764TIP3   OH262782   3.175   6.899  15.173  0.3161 -0.1769  0.5339
13764TIP3    H162783   3.131   6.946  15.102 -0.3938  0.7970  1.5891
13764TIP3    H262784   3.262   6.881  15.139  0.9388  2.6832  0.3744
13765TIP3   OH262785   5.713   2.733   2.964  0.0655 -0.2730  0.3412
13765TIP3    H162786   5.660   2.738   3.044  0.3222 -1.1681  0.5805
13765TIP3    H262787   5.654   2.760   2.895 -0.8282 -1.5519  0.5648
13766TIP3   OH262788   3.584   0.155   4.921 -0.1923  0.0143  0.5436
13766TIP3    H162789   3.490   0.156   4.902 -0.0414  0.0097 -0.2658
13766TIP3    H262790   3.614   0.071   4.886  0.4311  0.8130 -0.9702
13767TIP3   OH262791   3.034   4.709  13.158 -0.6596 -0.6167 -0.4581
13767TIP3    H162792   3.046   4.672  13.246  0.0997  0.1729 -0.2090
13767TIP3    H262793   3.041   4.633  13.099  1.3096 -0.8655  0.0045
13768TIP3   OH262794   3.683   2.558   0.032  0.0262  0.3147  0.1936
13768TIP3    H162795   3.769   2.552  -0.009  1.3249  0.7907  2.6471
13768TIP3    H262796   3.694   2.621   0.103 -2.1218 -0.2622  1.1514
13769TIP3   OH262797   4.641   6.094   0.059 -0.1640  0.2032  0.8175
13769TIP3    H162798   4.548   6.075   0.052 -0.1877  0.0789  1.4842
13769TIP3    H262799   4.657   6.161  -0.008 -0.9057  0.8634  1.2871
13770TIP3   OH262800   2.730   5.450  15.278 -0.5950 -0.1333  0.3939
13770TIP3    H162801   2.801   5.426  15.337 -1.7056 -1.1303  1.3884
13770TIP3    H262802   2.663   5.382  15.292 -1.4553  0.3776 -1.0112
13771TIP3   OH262803   6.287   3.141   2.456  0.2327  0.0127  0.1912
13771TIP3    H162804   6.292   3.047   2.438 -1.7677  0.0469 -0.8750
13771TIP3    H262805   6.209   3.151   2.511  0.6001  1.0289  0.5617
13772TIP3   OH262806   4.454   7.092   4.976 -0.3945  0.6075 -0.1024
13772TIP3    H162807   4.540   7.123   5.003  0.5654 -0.8044 -1.3869
13772TIP3    H262808   4.426   7.033   5.047  0.5682 -0.4085 -0.5405
13773TIP3   OH262809   1.517   6.673  12.269  0.0053 -0.2651  0.8411
13773TIP3    H162810   1.567   6.699  12.192 -0.0371 -0.1706  0.8459
13773TIP3    H262811   1.459   6.603  12.237 -0.2787  0.0306  0.7004
13774TIP3   OH262812   5.078   6.208   0.374  0.1300  0.0614 -0.4134
13774TIP3    H162813   5.033   6.124   0.364  0.8846 -0.0788 -3.6383
13774TIP3    H262814   5.008   6.271   0.390 -0.4255 -1.1198  2.3956
13775TIP3   OH262815   6.287   3.666   2.100  0.3337  0.4331  0.2555
13775TIP3    H162816   6.244   3.713   2.028  0.7866 -0.6447 -0.7483
13775TIP3    H262817   6.257   3.575   2.091  1.4670  0.0092  0.5888
13776TIP3   OH262818   3.766   6.622   3.876  0.0610  0.0246  0.3104
13776TIP3    H162819   3.845   6.580   3.911 -0.7097 -1.6853  0.0847
13776TIP3    H262820   3.796   6.668   3.797  0.9972  0.2640  0.7800
13777TIP3   OH262821   1.232   2.978   2.035 -0.8569 -0.1498 -0.1684
13777TIP3    H162822   1.270   3.007   2.117 -0.6897  0.2281 -0.3798
13777TIP3    H262823   1.246   3.051   1.974 -2.1080  0.0902 -0.1888
13778TIP3   OH262824   2.575   1.350   3.799 -0.6037 -0.5029 -0.2306
13778TIP3    H162825   2.642   1.378   3.737  0.5299  0.1619  1.2103
13778TIP3    H262826   2.624   1.299   3.864 -0.9632  2.0159  2.1993
13779TIP3   OH262827   6.980   6.090  11.459 -0.1223 -0.2112  0.7029
13779TIP3    H162828   6.919   6.029  11.419 -0.4794  0.7071 -0.1813
13779TIP3    H262829   6.927   6.143  11.518  0.4254 -1.6614  2.5966
13780TIP3   OH262830   4.276   1.586   3.437 -0.3818  0.6288  0.6540
13780TIP3    H162831   4.270   1.585   3.533  0.4270 -1.5343  0.7515
13780TIP3    H262832   4.366   1.613   3.419 -0.3386  0.4167  0.5446
13781TIP3   OH262833   3.958   5.415   4.359  0.1244 -0.6838  0.9625
13781TIP3    H162834   3.926   5.420   4.269  1.2977 -0.3193  0.5451
13781TIP3    H262835   3.991   5.502   4.378 -1.1353 -0.4489  2.1628
13782TIP3   OH262836   2.480   5.142   0.951  0.4522 -0.1611  0.3033
13782TIP3    H162837   2.427   5.111   1.025 -0.5102  1.9235  0.5490
13782TIP3    H262838   2.489   5.064   0.895 -0.7522 -1.2142  1.4796
13783TIP3   OH262839   2.549   0.699  14.798 -0.9531 -0.3614  0.1456
13783TIP3    H162840   2.601   0.628  14.836  0.1483 -0.2170 -1.0273
13783TIP3    H262841   2.468   0.657  14.769  0.5678 -1.6823 -2.5677
13784TIP3   OH262842   3.349   6.194  10.113 -0.9093 -0.2580 -0.3356
13784TIP3    H162843   3.341   6.287  10.093 -0.9024 -0.2674 -0.3819
13784TIP3    H262844   3.436   6.185  10.154 -1.2008 -0.1237  0.3337
13785TIP3   OH262845   4.301   5.814   2.867 -0.2828 -0.0505 -0.1339
13785TIP3    H162846   4.345   5.853   2.943 -0.7806 -1.0708  0.7153
13785TIP3    H262847   4.231   5.875   2.846 -0.3551  0.0784  0.4578
13786TIP3   OH262848   6.034   3.257  11.028  0.2025  0.7070  0.2901
13786TIP3    H162849   6.088   3.192  10.983 -0.0501  1.0772 -0.5658
13786TIP3    H262850   5.957   3.267  10.972 -0.2299  1.0102  0.9261
13787TIP3   OH262851   4.374   6.387   4.647  0.7952  0.6494  0.0192
13787TIP3    H162852   4.323   6.379   4.567  1.6055  0.5275 -0.4946
13787TIP3    H262853   4.315   6.356   4.716  0.2465  0.3246 -0.5833
13788TIP3   OH262854   6.821   7.003  15.242  0.2082  0.1820 -0.4887
13788TIP3    H162855   6.746   7.062  15.232 -0.2849 -0.2347  0.6018
13788TIP3    H262856   6.835   6.997  15.337  1.3289 -0.1205 -0.6550
13789TIP3   OH262857   6.563   5.242   3.113 -0.8776 -0.0624  0.1659
13789TIP3    H162858   6.536   5.220   3.202  3.3411 -0.0174  1.7076
13789TIP3    H262859   6.636   5.303   3.125 -2.1354  2.4931 -3.5175
13790TIP3   OH262860   2.905   2.815   5.074  0.0186 -0.2942 -0.1606
13790TIP3    H162861   2.980   2.835   5.130  0.4220 -1.3852 -0.2937
13790TIP3    H262862   2.901   2.888   5.013  1.1696 -0.3632 -0.3499
13791TIP3   OH262863   5.749   4.946   5.096  0.6958 -0.4295 -0.3711
13791TIP3    H162864   5.690   4.949   5.171  0.1539 -2.0691 -0.6845
13791TIP3    H262865   5.692   4.962   5.021  1.1139  0.5066 -0.5003
13792TIP3   OH262866   2.142   0.789  11.808  0.4108  0.2339  0.3755
13792TIP3    H162867   2.087   0.827  11.739 -0.1251  0.9003  1.1516
13792TIP3    H262868   2.195   0.863  11.838  2.4378 -0.5802 -0.9804
13793TIP3   OH262869   6.210   3.740   2.350  0.1643  0.2422  0.2228
13793TIP3    H162870   6.246   3.716   2.265 -0.9164 -1.8412  0.2996
13793TIP3    H262871   6.181   3.831   2.339 -0.2830 -0.1012 -1.7247
13794TIP3   OH262872   6.703   4.679  13.637  0.3804 -0.1747 -0.0445
13794TIP3    H162873   6.639   4.619  13.675  1.1625 -0.0079  1.6194
13794TIP3    H262874   6.661   4.713  13.559 -1.2063 -0.7335  0.5362
13795TIP3   OH262875   6.513   5.232  10.604 -0.4255  0.0980 -0.0252
13795TIP3    H162876   6.590   5.218  10.659 -0.6759  0.8474  0.5288
13795TIP3    H262877   6.439   5.230  10.665 -0.8744 -0.7768 -0.5674
13796TIP3   OH262878   3.843   1.554  15.371  0.1137 -0.0174 -0.2628
13796TIP3    H162879   3.834   1.551  15.466  1.5428  0.6550 -0.0779
13796TIP3    H262880   3.778   1.619  15.343  2.9763  3.6688  0.8414
13797TIP3   OH262881   6.060   0.127   1.261 -0.3552 -0.2172  0.4900
13797TIP3    H162882   6.027   0.129   1.171  0.9122  1.2189 -0.0010
13797TIP3    H262883   6.131   0.064   1.258  0.2799  0.4886  0.2226
13798TIP3   OH262884   4.868   4.894   1.613 -0.2307 -0.0811  0.3219
13798TIP3    H162885   4.828   4.849   1.539  0.2752  1.1378 -0.7329
13798TIP3    H262886   4.820   4.862   1.690 -2.6566  0.6881 -0.7833
13799TIP3   OH262887   3.607   4.666   5.780  0.0586 -0.2452  0.0439
13799TIP3    H162888   3.593   4.721   5.856  2.1328  1.4300 -0.6869
13799TIP3    H262889   3.624   4.579   5.816 -0.6601  0.1367  1.3669
13800TIP3   OH262890   0.589   5.001   0.989  0.2629 -0.1278 -0.0978
13800TIP3    H162891   0.583   4.906   1.001 -1.2661  0.0352  0.7253
13800TIP3    H262892   0.652   5.013   0.918  0.4936 -1.7580 -0.1912
13801TIP3   OH262893   5.563   1.666   4.191  0.6070 -0.4160  0.8737
13801TIP3    H162894   5.532   1.651   4.280 -0.5981  0.5396  0.6385
13801TIP3    H262895   5.596   1.581   4.162 -2.0679 -1.6137  1.0635
13802TIP3   OH262896   6.979   6.038  11.150  0.0952  0.3065 -0.3862
13802TIP3    H162897   6.963   5.957  11.198 -0.2314 -0.0284 -1.0436
13802TIP3    H262898   7.067   6.028  11.115  0.5831  0.8205  0.6451
13803TIP3   OH262899   1.818   4.891   1.426 -0.2836 -0.3295 -0.0708
13803TIP3    H162900   1.760   4.897   1.502  0.1153 -1.4379  0.3378
13803TIP3    H262901   1.795   4.967   1.372 -3.4531 -1.6669 -0.8614
13804TIP3   OH262902   5.551   0.670  13.386 -0.0173 -0.0404 -0.3760
13804TIP3    H162903   5.479   0.681  13.323  0.0429  0.2870 -0.3880
13804TIP3    H262904   5.617   0.733  13.358  1.1018 -1.6158 -1.5212
13805TIP3   OH262905   5.135   5.333   4.095 -0.4118  0.2252  0.1448
13805TIP3    H162906   5.083   5.357   4.171  0.2812  0.1484  0.6539
13805TIP3    H262907   5.195   5.265   4.127 -0.2705  0.0239 -0.5236
13806TIP3   OH262908   2.153   5.784   5.026  0.4370 -0.1616  0.5149
13806TIP3    H162909   2.132   5.836   4.949  0.6429 -0.6590  0.1225
13806TIP3    H262910   2.231   5.735   5.002 -0.5484 -1.7251  0.3840
13807TIP3   OH262911   6.990   6.069   3.403 -0.3949  0.4376  0.1141
13807TIP3    H162912   6.919   6.120   3.441 -1.2910 -1.3771  1.0302
13807TIP3    H262913   7.008   6.001   3.469 -0.6974 -1.6899 -1.8765
13808TIP3   OH262914   5.379   4.159   5.470  0.5943  0.6135 -0.4154
13808TIP3    H162915   5.369   4.251   5.445  1.0176  0.7571 -0.0702
13808TIP3    H262916   5.289   4.127   5.477  0.4375  1.0681 -0.2828
13809TIP3   OH262917   5.513   1.938   5.526  0.2917 -0.3330 -0.3781
13809TIP3    H162918   5.543   1.848   5.514 -0.1212 -0.7036  1.1778
13809TIP3    H262919   5.448   1.933   5.595  0.1130  1.1480 -0.4050
13810TIP3   OH262920   0.727   0.008   2.623  0.3314 -0.8139  0.6145
13810TIP3    H162921   0.737   0.001   2.718 -1.5134  0.3664  0.9415
13810TIP3    H262922   0.646  -0.041   2.604 -0.1617  0.2527 -0.1161
13811TIP3   OH262923   4.402   5.912  11.637  0.1435 -0.3059 -0.2147
13811TIP3    H162924   4.337   5.959  11.585 -0.9616 -1.0041  0.4751
13811TIP3    H262925   4.468   5.885  11.574 -0.7970 -0.5260 -1.1470
13812TIP3   OH262926   4.839   6.216   5.486 -0.4004 -0.4789 -0.4707
13812TIP3    H162927   4.795   6.159   5.550 -1.4771  0.9196  0.1021
13812TIP3    H262928   4.888   6.278   5.540  3.0052 -2.4195 -1.0976
13813TIP3   OH262929   3.639   6.164   5.482  0.2212  0.1091  0.1689
13813TIP3    H162930   3.600   6.215   5.553 -1.5275  0.6251 -1.1148
13813TIP3    H262931   3.718   6.213   5.458  0.3757  0.3736  1.1492
13814TIP3   OH262932   6.142   5.528   5.355 -0.3612  0.6004  0.2219
13814TIP3    H162933   6.188   5.565   5.280  0.5190 -1.3791 -0.2881
13814TIP3    H262934   6.087   5.459   5.317 -2.6456  1.9070  1.0143
13815TIP3   OH262935   1.090   3.541   1.608 -0.2593 -0.0217 -0.3319
13815TIP3    H162936   1.171   3.562   1.561  0.0189 -1.2767 -0.4511
13815TIP3    H262937   1.021   3.550   1.542  0.0714 -1.2678 -0.8781
13816TIP3   OH262938   0.085   0.455   5.678  0.1792  0.1782  0.2539
13816TIP3    H162939   0.164   0.508   5.683  0.1351  0.5156 -1.7410
13816TIP3    H262940   0.094   0.406   5.596 -0.9646 -0.9795  0.7779
13817TIP3   OH262941   4.709   2.170   3.306  0.0054 -0.0845  0.0250
13817TIP3    H162942   4.758   2.195   3.227 -0.0297  2.6026  0.7352
13817TIP3    H262943   4.640   2.236   3.313 -1.2296 -1.4358  1.2533
13818TIP3   OH262944   0.049   5.403   5.832  0.1927  0.4800  0.2612
13818TIP3    H162945  -0.002   5.428   5.909 -0.6172  1.5950 -0.6089
13818TIP3    H262946   0.075   5.312   5.850 -1.6838  0.0282  0.9687
13819TIP3   OH262947   4.047   3.191   5.356 -0.0585  0.4263 -0.2649
13819TIP3    H162948   4.073   3.281   5.335  0.5831  0.2578 -0.2146
13819TIP3    H262949   4.099   3.169   5.434 -1.6062  0.6720  0.9004
13820TIP3   OH262950   5.856   0.275   5.277 -0.2011  0.6340  0.0303
13820TIP3    H162951   5.774   0.313   5.309 -1.8068 -0.0142 -2.9616
13820TIP3    H262952   5.872   0.320   5.194  0.7103 -1.5014 -1.0165
13821TIP3   OH262953   2.496   6.343  14.602  0.5059  0.1162  0.0567
13821TIP3    H162954   2.401   6.348  14.592  0.4535  1.3396  0.8863
13821TIP3    H262955   2.528   6.426  14.566  0.9499  1.1461  2.6346
13822TIP3   OH262956   2.449   2.422  14.404  0.4302 -0.0432  0.1074
13822TIP3    H162957   2.406   2.391  14.484 -0.8782  1.4220  0.0181
13822TIP3    H262958   2.451   2.518  14.414  0.4951  0.1393 -1.4858
13823TIP3   OH262959   6.798   7.068   5.321 -0.3204 -0.6102  0.6710
13823TIP3    H162960   6.850   7.077   5.401 -1.9162 -1.1604  1.8218
13823TIP3    H262961   6.709   7.090   5.348 -0.7602  0.0931 -1.1870
13824TIP3   OH262962   1.657   1.316  15.538 -0.2117 -0.3740  0.2849
13824TIP3    H162963   1.683   1.277  15.454  0.6276 -0.4692  0.5768
13824TIP3    H262964   1.731   1.372  15.563 -0.4841 -0.2857  0.9216
13825TIP3   OH262965   3.912   5.831   1.537 -0.5173  0.3864 -0.4174
13825TIP3    H162966   3.903   5.813   1.443 -2.1464  0.0479 -0.2354
13825TIP3    H262967   3.874   5.754   1.580  1.6698 -0.2000  0.5694
13826TIP3   OH262968   0.688   1.900   3.084  0.2019 -0.1387  0.1521
13826TIP3    H162969   0.659   1.965   3.021  1.0259  0.5174  0.4395
13826TIP3    H262970   0.751   1.846   3.035 -2.5655 -2.6469 -1.0107
13827TIP3   OH262971   3.821   2.112   0.965 -0.2901 -0.2346 -0.1321
13827TIP3    H162972   3.838   2.056   0.890  0.4706  1.0592 -0.9781
13827TIP3    H262973   3.881   2.081   1.033  1.3219  0.5259 -1.1282
13828TIP3   OH262974   2.875   4.544   1.226 -0.4476 -0.0997  0.5666
13828TIP3    H162975   2.943   4.508   1.285  1.0656  0.2233 -0.9002
13828TIP3    H262976   2.849   4.469   1.173 -0.3513  0.0441  0.3168
13829TIP3   OH262977   1.432   5.254   5.969 -0.2424  0.2426  0.0760
13829TIP3    H162978   1.455   5.285   6.056 -1.5803  2.3306 -0.2219
13829TIP3    H262979   1.515   5.248   5.922  0.3399  0.7427  1.0129
13830TIP3   OH262980   4.018   1.764   4.796 -0.1907  0.2684 -0.8350
13830TIP3    H162981   4.074   1.737   4.870 -0.5872  0.8957 -0.2979
13830TIP3    H262982   4.038   1.701   4.727  1.0289  0.3454 -0.5796
13831TIP3   OH262983   2.794   4.978   3.361  0.6239  0.3601 -0.0321
13831TIP3    H162984   2.722   4.939   3.411 -0.1364  1.1285 -0.4982
13831TIP3    H262985   2.873   4.948   3.405 -0.0103  1.4609  2.0059
13832TIP3   OH262986   6.066   6.266   1.775  0.2683  0.4998  0.4211
13832TIP3    H162987   6.127   6.340   1.773 -1.0660  1.6355 -0.1524
13832TIP3    H262988   5.979   6.307   1.783 -0.4620 -1.0398  0.7188
13833TIP3   OH262989   2.539   7.146   1.115 -0.2260  0.1069 -0.1320
13833TIP3    H162990   2.451   7.143   1.079 -0.4149  0.0936  0.3196
13833TIP3    H262991   2.547   7.234   1.153  0.4138  0.5641 -1.2937
13834TIP3   OH262992   2.358   1.506  12.029  0.6087 -0.6200 -0.5060
13834TIP3    H162993   2.373   1.574  11.963  1.8569  0.5763  0.9119
13834TIP3    H262994   2.271   1.472  12.010 -0.7069  2.4074 -0.4566
13835TIP3   OH262995   2.745   0.108  13.238 -0.2301 -0.6361 -0.3485
13835TIP3    H162996   2.709   0.160  13.310  0.2069 -1.5825  0.5782
13835TIP3    H262997   2.826   0.153  13.214 -0.2278 -0.4853 -0.0571
13836TIP3   OH262998   6.482   1.029   1.991  0.2353 -0.6458 -0.5740
13836TIP3    H162999   6.462   1.118   2.018  1.6781 -0.6305  0.5762
13836TIP3    H263000   6.549   1.039   1.923 -0.1541 -0.8356 -0.9911
13837TIP3   OH263001   1.414   5.118   1.269 -0.9808  0.0574  0.0877
13837TIP3    H163002   1.365   5.148   1.345  2.0751  0.4723  2.0895
13837TIP3    H263003   1.416   5.022   1.278  1.2301  0.1840  1.9712
13838TIP3   OH263004   5.903   3.695   1.708  0.2556 -0.0029 -0.0606
13838TIP3    H163005   5.867   3.784   1.701  0.9085  0.3359  0.6692
13838TIP3    H263006   5.826   3.639   1.716 -0.1512  0.7027  1.4102
13839TIP3   OH263007   6.269   5.991   2.358 -0.7702  0.6490 -0.6448
13839TIP3    H163008   6.262   5.943   2.275  0.2167 -0.3206 -0.1895
13839TIP3    H263009   6.266   6.083   2.332  2.3196  0.4472 -2.1163
13840TIP3   OH263010   4.247   0.922   3.283 -0.5712 -0.1026 -0.0461
13840TIP3    H163011   4.322   0.961   3.239  0.4923 -1.7641  0.1760
13840TIP3    H263012   4.192   0.996   3.309  1.0882  1.1769 -0.0506
13841TIP3   OH263013   6.813   3.489  11.636 -0.3230 -0.5975  0.3442
13841TIP3    H163014   6.838   3.526  11.721 -0.3337 -0.5429  0.3237
13841TIP3    H263015   6.718   3.500  11.632 -0.2193  0.3006 -0.0936
13842TIP3   OH263016   3.520   4.810   3.204  0.3336 -0.3374  0.1089
13842TIP3    H163017   3.567   4.886   3.236 -1.5773  1.1850 -0.4640
13842TIP3    H263018   3.486   4.837   3.118 -2.5780 -0.7970  0.9984
13843TIP3   OH263019   4.136   6.322   3.965 -0.0588 -0.2866  0.1073
13843TIP3    H163020   4.216   6.339   4.013  0.2356  0.7489 -0.7050
13843TIP3    H263021   4.097   6.246   4.008  1.8448 -1.4479 -0.0929
13844TIP3   OH263022   6.116   3.368   5.263 -0.1750 -0.4210 -0.4312
13844TIP3    H163023   6.186   3.322   5.215 -0.8520 -2.4411  0.4177
13844TIP3    H263024   6.045   3.377   5.199  0.6850  1.3685 -1.2072
13845TIP3   OH263025   6.256   5.594  15.132 -0.0346  0.0593 -0.6892
13845TIP3    H163026   6.218   5.511  15.161  1.1350 -0.1828  0.2546
13845TIP3    H263027   6.262   5.585  15.037 -2.2627  0.1196 -0.8724
13846TIP3   OH263028   6.056   2.921  14.696  0.2269  0.1375 -0.2698
13846TIP3    H163029   6.065   2.988  14.628 -0.1531 -1.0456 -1.5422
13846TIP3    H263030   5.986   2.864  14.665 -0.0502 -0.3678  1.2004
13847TIP3   OH263031   5.347   3.782  15.693 -0.1913  0.4191 -0.3551
13847TIP3    H163032   5.439   3.767  15.673 -0.2405 -0.1320 -0.2161
13847TIP3    H263033   5.342   3.774  15.789 -0.5596 -0.7157 -0.4461
13848TIP3   OH263034   3.815   6.769  13.018  0.4704  0.0358 -0.0783
13848TIP3    H163035   3.874   6.733  13.084 -0.1432  3.3932  2.5777
13848TIP3    H263036   3.731   6.778  13.063 -0.8107 -0.1742 -2.2795
13849TIP3   OH263037   3.995   5.482   3.894  0.2349  0.6548 -0.7109
13849TIP3    H163038   3.994   5.416   3.825  1.3700 -2.2008  1.7792
13849TIP3    H263039   4.068   5.540   3.872  0.9032 -0.5043 -1.6326
13850TIP3   OH263040   4.140   3.925   5.199  0.7346  0.3033 -0.0419
13850TIP3    H163041   4.142   4.010   5.156 -2.2423  0.2285 -0.5082
13850TIP3    H263042   4.107   3.943   5.287 -1.2749 -0.4359 -0.5845
13851TIP3   OH263043   1.882   2.976  15.118  0.1923 -0.1181  0.6401
13851TIP3    H163044   1.817   2.969  15.189  0.7142 -0.2304  1.1177
13851TIP3    H263045   1.830   2.970  15.038 -0.2836 -1.4457  1.0074
13852TIP3   OH263046   6.853   5.872   2.027 -0.0945  0.4677  0.6767
13852TIP3    H163047   6.945   5.898   2.038 -0.3871  1.1726  1.5644
13852TIP3    H263048   6.803   5.952   2.041 -1.0229 -0.4624  3.4661
13853TIP3   OH263049   5.729   1.163  14.840 -0.3505 -0.5673  0.2252
13853TIP3    H163050   5.645   1.208  14.830 -1.6989 -2.1499  3.0711
13853TIP3    H263051   5.771   1.207  14.914  0.3463 -1.1142  0.1625
13854TIP3   OH263052   3.996   1.727   5.368  0.2113 -0.3370 -0.5970
13854TIP3    H163053   4.058   1.655   5.363  1.0868  0.3674 -0.0597
13854TIP3    H263054   3.932   1.699   5.434  1.3543 -0.0367  0.6864
13855TIP3   OH263055   4.713   1.058   5.352  0.1411  0.0481  1.0603
13855TIP3    H163056   4.775   1.086   5.420  1.0363 -0.2193  0.3643
13855TIP3    H263057   4.679   1.140   5.316  1.2099  0.2338  0.4382
13856TIP3   OH263058   0.591   7.034   4.210 -0.1579  0.2332 -0.5778
13856TIP3    H163059   0.581   6.939   4.214 -1.6604  0.4058  0.5281
13856TIP3    H263060   0.666   7.053   4.266 -0.9258 -0.1783  0.6178
13857TIP3   OH263061   5.370   4.602   5.646 -0.0558  0.2613 -0.3179
13857TIP3    H163062   5.439   4.597   5.580  1.0872 -0.2487  0.8719
13857TIP3    H263063   5.306   4.536   5.619  1.6830 -1.8672  0.4671
13858TIP3   OH263064   0.245   5.004  14.571  0.1963 -0.3538  0.4853
13858TIP3    H163065   0.280   5.021  14.483  1.2848 -1.6249  0.6387
13858TIP3    H263066   0.244   4.909  14.578 -3.4988 -0.4672  0.4718
13859TIP3   OH263067   5.244   0.436   0.531 -0.3273  0.3815 -0.2270
13859TIP3    H163068   5.292   0.369   0.482 -0.4960  0.6161 -0.7221
13859TIP3    H263069   5.181   0.470   0.468  1.4560  2.8296 -0.8304
13860TIP3   OH263070   0.261   2.712   3.481 -0.1023  0.2808  0.3196
13860TIP3    H163071   0.315   2.790   3.492  0.4051 -0.0653  0.3122
13860TIP3    H263072   0.261   2.695   3.387  1.1922 -0.6988  0.4722
13861TIP3   OH263073   6.031   1.588  14.583  0.5504 -0.4888  0.3240
13861TIP3    H163074   5.966   1.518  14.588  0.6777 -0.5580  1.3359
13861TIP3    H263075   5.981   1.668  14.596  0.2890 -0.2988 -1.6134
13862TIP3   OH263076   2.382   1.061   1.565 -0.0442  0.2510 -0.6883
13862TIP3    H163077   2.467   1.079   1.526  0.5606  0.5533  0.7289
13862TIP3    H263078   2.392   1.082   1.658 -1.7090  0.4609 -0.5140
13863TIP3   OH263079   2.371   0.478  13.967  0.2527  0.2318 -0.1421
13863TIP3    H163080   2.367   0.474  13.871  0.2151 -2.7025 -0.1184
13863TIP3    H263081   2.329   0.397  13.996 -1.9567  2.1475  2.4971
13864TIP3   OH263082   0.203   2.196  13.464  0.3180 -0.1075 -0.2746
13864TIP3    H163083   0.189   2.290  13.453 -2.9678 -0.6794 -2.7865
13864TIP3    H263084   0.131   2.168  13.521  0.7954 -1.1781 -0.1746
13865TIP3   OH263085   2.575   4.569  15.213  0.1907  0.3098 -0.5852
13865TIP3    H163086   2.481   4.551  15.225  0.0979  0.6941 -0.7370
13865TIP3    H263087   2.603   4.604  15.298  0.0623  0.7607 -0.7253
13866TIP3   OH263088   3.825   1.269  13.197 -0.4964 -0.4713 -0.9281
13866TIP3    H163089   3.750   1.301  13.146 -1.3173 -0.0034  0.5025
13866TIP3    H263090   3.802   1.290  13.288  1.4130 -0.2740 -0.4588
13867TIP3   OH263091   0.486   2.564   0.879 -0.0723  0.6347 -0.3551
13867TIP3    H163092   0.437   2.564   0.797 -0.3697  0.5058 -0.1788
13867TIP3    H263093   0.554   2.498   0.867 -0.9983 -0.4187  0.0162
13868TIP3   OH263094   1.514   1.407   1.632  0.5806 -0.3376  0.2811
13868TIP3    H163095   1.427   1.444   1.644 -0.1286 -2.1121  0.9562
13868TIP3    H263096   1.567   1.449   1.700 -0.3488 -0.9594  1.4309
13869TIP3   OH263097   0.099   6.348   4.890 -0.0105  0.2296  0.1303
13869TIP3    H163098   0.062   6.429   4.925 -3.8063 -0.1469 -2.4700
13869TIP3    H263099   0.068   6.280   4.949 -0.4516  0.2630 -0.0617
13870TIP3   OH263100   6.569   5.740   0.051 -0.3884  0.0500  0.0742
13870TIP3    H163101   6.621   5.818   0.068  2.8358 -1.9110  0.0244
13870TIP3    H263102   6.555   5.701   0.137  0.1052 -0.5316 -0.1023
13871TIP3   OH263103   2.266   6.542  13.893  0.6900 -0.4960  0.3040
13871TIP3    H163104   2.294   6.477  13.958 -0.8848 -0.3402  1.1844
13871TIP3    H263105   2.334   6.540  13.826  2.5481 -0.4276  2.1086
13872TIP3   OH263106   6.674   4.762   4.997 -0.3965  0.1476 -0.2740
13872TIP3    H163107   6.655   4.681   5.045  0.5141 -0.8100 -1.4591
13872TIP3    H263108   6.614   4.760   4.922 -1.2016  1.1900  0.3234
13873TIP3   OH263109   4.907   3.236   5.851  0.3738 -0.4280 -0.1770
13873TIP3    H163110   4.865   3.199   5.929  1.5542 -1.1170  0.1575
13873TIP3    H263111   5.000   3.234   5.872  0.6832 -0.3768 -1.5153
13874TIP3   OH263112   2.716   0.848   4.545 -0.4483  0.8160  0.4425
13874TIP3    H163113   2.730   0.914   4.613 -0.1123  0.3653  0.8229
13874TIP3    H263114   2.774   0.776   4.570 -0.0945  0.7670 -0.5012
13875TIP3   OH263115   5.088   2.868   4.614  0.2443  0.4208  0.0084
13875TIP3    H163116   5.038   2.860   4.695 -0.2188  1.0269 -0.2090
13875TIP3    H263117   5.150   2.796   4.617  0.0798  0.3030  0.7963
13876TIP3   OH263118   4.605   5.956   5.852 -0.3804  0.4720  0.0368
13876TIP3    H163119   4.568   5.870   5.830 -0.7786  0.4207  0.8803
13876TIP3    H263120   4.580   5.970   5.943 -0.7436  1.7159 -0.2393
13877TIP3   OH263121   0.436   3.575   2.189 -0.0752  0.8445 -0.1003
13877TIP3    H163122   0.420   3.665   2.215 -0.7691  0.5772  0.4454
13877TIP3    H263123   0.519   3.553   2.231 -1.2612  0.3680  2.1618
13878TIP3   OH263124   1.088   0.182   0.168 -0.2177 -0.2294  0.3171
13878TIP3    H163125   1.098   0.248   0.099 -1.4084 -1.0843 -0.7137
13878TIP3    H263126   1.133   0.220   0.244  0.5616  1.0252 -0.7240
13879TIP3   OH263127   1.541   5.843   0.715  0.3661  0.0398 -0.8143
13879TIP3    H163128   1.573   5.896   0.788  3.2094 -2.1232 -0.2584
13879TIP3    H263129   1.561   5.894   0.637  1.2196  0.6317 -0.2235
13880TIP3   OH263130   4.512   7.150  12.874  0.5880 -0.3844  0.7929
13880TIP3    H163131   4.595   7.190  12.851 -0.2891  0.5133 -1.0196
13880TIP3    H263132   4.508   7.154  12.969  0.1645  4.8102  0.8134
13881TIP3   OH263133   1.397   4.338   2.919 -0.0821 -0.2580  0.4739
13881TIP3    H163134   1.363   4.392   2.990 -0.2941 -1.2261  1.1277
13881TIP3    H263135   1.492   4.346   2.925 -0.1268  1.0543 -0.2507
13882TIP3   OH263136   4.364   4.955   3.885 -0.7050 -0.4026 -0.1535
13882TIP3    H163137   4.308   5.024   3.921  0.2916  0.3675 -0.0122
13882TIP3    H263138   4.307   4.879   3.876 -1.8086  0.4032 -0.1814
13883TIP3   OH263139   1.299   3.788   2.739 -0.0772  0.0377  0.5054
13883TIP3    H163140   1.289   3.868   2.687 -1.2137  0.1851  0.9240
13883TIP3    H263141   1.352   3.730   2.685  2.2142  1.6664  0.8635
13884TIP3   OH263142   0.861   6.739   3.925 -0.3830 -0.5530  0.3692
13884TIP3    H163143   0.936   6.798   3.928 -1.2815  0.6416  0.5413
13884TIP3    H263144   0.858   6.699   4.012 -0.5506  0.2039  0.7212
13885TIP3   OH263145   6.121   1.827   2.784  0.0709 -0.3768 -0.3692
13885TIP3    H163146   6.143   1.735   2.794 -1.6278 -0.7188  0.7138
13885TIP3    H263147   6.175   1.858   2.711  0.0726 -2.4279 -1.2971
13886TIP3   OH263148   1.804   2.654  12.055 -0.1056 -0.2459  0.2433
13886TIP3    H163149   1.881   2.598  12.044 -1.0463 -1.4021 -0.5982
13886TIP3    H263150   1.811   2.718  11.984  0.0219 -0.4037  0.1137
13887TIP3   OH263151   5.406   4.803   5.187  0.2251  0.0385  0.0547
13887TIP3    H163152   5.474   4.736   5.180  1.9444  1.7532 -0.3260
13887TIP3    H263153   5.427   4.851   5.266 -1.5710 -0.4063  0.8678
13888TIP3   OH263154   5.326   6.653  10.275 -0.5285 -0.0884  0.2583
13888TIP3    H163155   5.350   6.607  10.355  0.5488  1.2692  0.7567
13888TIP3    H263156   5.231   6.654  10.275 -0.6465 -3.1330 -0.2915
13889TIP3   OH263157   4.895   6.420   3.504 -0.1989  0.5322 -0.9556
13889TIP3    H163158   4.807   6.420   3.465 -1.0368 -2.0986  0.6646
13889TIP3    H263159   4.927   6.331   3.490  1.5414  0.9648 -0.0381
13890TIP3   OH263160   6.376   5.971  12.553 -0.3221 -0.9293  0.1388
13890TIP3    H163161   6.380   5.939  12.643  0.9039  1.0733  0.8703
13890TIP3    H263162   6.338   5.898  12.503 -1.5282 -1.9114  2.3284
13891TIP3   OH263163   3.600   4.031  14.188 -0.2885 -0.2538 -0.2882
13891TIP3    H163164   3.643   4.088  14.125 -0.5196 -0.1461 -0.3516
13891TIP3    H263165   3.664   3.962  14.207 -0.0273 -0.0008 -0.2477
13892TIP3   OH263166   5.656   4.714   2.247 -0.4154 -0.8499  0.8333
13892TIP3    H163167   5.751   4.720   2.248 -0.2054 -2.8168 -0.4280
13892TIP3    H263168   5.626   4.800   2.218  1.0184 -0.4970  0.3137
13893TIP3   OH263169   1.073   2.501   5.803  0.1601  0.3625 -0.3216
13893TIP3    H163170   1.104   2.511   5.713  0.9982  1.8945  0.0898
13893TIP3    H263171   1.059   2.591   5.833  0.6487 -0.0740  1.3250
13894TIP3   OH263172   5.906   2.863  14.227 -0.3351  0.3765 -0.0324
13894TIP3    H163173   5.915   2.927  14.157 -0.0149 -0.1223 -0.4530
13894TIP3    H263174   5.894   2.916  14.306 -0.4753  0.9459 -0.4241
13895TIP3   OH263175   4.766   5.826  10.571  0.0793 -0.1699 -1.1211
13895TIP3    H163176   4.688   5.862  10.529 -0.5570  1.5913  1.3172
13895TIP3    H263177   4.831   5.897  10.563 -0.2736  0.5080  1.2773
13896TIP3   OH263178   5.186   4.306  10.395 -0.3920  0.2692  0.4521
13896TIP3    H163179   5.162   4.220  10.359 -0.0566  0.6196 -0.6327
13896TIP3    H263180   5.143   4.369  10.338 -0.4521  0.8378  1.1086
13897TIP3   OH263181   3.627   0.882  12.258 -0.0618  0.7685  0.0234
13897TIP3    H163182   3.563   0.870  12.188 -0.2501  0.8862  0.1767
13897TIP3    H263183   3.577   0.914  12.332  0.1191  0.5289  0.2524
13898TIP3   OH263184   2.452   6.981  14.141 -0.1451  0.0646  0.4328
13898TIP3    H163185   2.393   6.960  14.214 -0.9986  1.5733  0.2159
13898TIP3    H263186   2.495   6.898  14.120 -0.2652 -0.5113  2.3061
13899TIP3   OH263187   3.420   6.141   1.026  0.0347  0.3108  0.2352
13899TIP3    H163188   3.435   6.095   0.944 -2.6948  0.9258 -0.7151
13899TIP3    H263189   3.375   6.078   1.082 -0.4718  0.6952  0.2693
13900TIP3   OH263190   3.474   4.221   4.818 -0.1984  0.3524 -0.3493
13900TIP3    H163191   3.442   4.294   4.872  0.3564  0.1386  0.2774
13900TIP3    H263192   3.395   4.186   4.777 -0.5108  1.1335 -0.4485
13901TIP3   OH263193   6.035   5.108   3.391 -0.0619 -0.6921  0.1315
13901TIP3    H163194   6.034   5.163   3.313  0.0284 -2.1580 -0.9611
13901TIP3    H263195   6.120   5.124   3.431 -1.1186  2.0799  1.5018
13902TIP3   OH263196   4.300   5.015   0.982  0.7307 -0.3050  0.4296
13902TIP3    H163197   4.360   5.088   0.995  0.8606 -0.7172  2.3266
13902TIP3    H263198   4.218   5.056   0.954  0.5785  0.6649  2.1908
13903TIP3   OH263199   5.167   4.238   2.900 -0.3495  0.5521 -0.2412
13903TIP3    H163200   5.236   4.225   2.835 -0.4963 -0.0082 -0.2822
13903TIP3    H263201   5.205   4.208   2.982 -0.7366 -0.2753 -0.3624
13904TIP3   OH263202   3.991   5.057   1.180 -0.4475 -0.2382 -0.8591
13904TIP3    H163203   4.081   5.027   1.192  0.1035  0.7425 -2.2878
13904TIP3    H263204   3.950   5.046   1.266  1.4193  0.5764  0.1841
13905TIP3   OH263205   0.348   1.543   5.297 -0.4619 -1.1843  0.3225
13905TIP3    H163206   0.421   1.604   5.308 -0.6407 -0.5122 -1.7179
13905TIP3    H263207   0.383   1.474   5.240 -1.9544  0.4146 -2.8049
13906TIP3   OH263208   1.675   2.287   4.721 -0.0975  0.3610  0.1652
13906TIP3    H163209   1.675   2.297   4.626 -1.6383  0.6360  0.1611
13906TIP3    H263210   1.675   2.192   4.735 -0.5135  0.3115 -0.1332
13907TIP3   OH263211   1.272   0.547   0.246  0.0731 -0.0173  0.1353
13907TIP3    H163212   1.324   0.481   0.291 -1.9980 -1.0715  1.1688
13907TIP3    H263213   1.269   0.621   0.307 -0.3923 -0.3327  0.5052
13908TIP3   OH263214   4.438   2.481   3.019 -0.2598  0.7598 -0.1226
13908TIP3    H163215   4.496   2.436   2.958 -1.1976 -0.1286 -0.3834
13908TIP3    H263216   4.475   2.569   3.027  0.6868  0.4435 -0.8480
13909TIP3   OH263217   0.511   5.023   0.660  0.0145 -0.0055 -0.0845
13909TIP3    H163218   0.567   4.946   0.648 -0.3695 -0.6676  2.0048
13909TIP3    H263219   0.573   5.094   0.680  0.2101 -0.5775  1.4942
13910TIP3   OH263220   0.333   0.651   5.389 -0.1835 -0.0054 -0.4052
13910TIP3    H163221   0.263   0.655   5.454 -0.2877 -0.5066 -0.4844
13910TIP3    H263222   0.317   0.570   5.341 -0.7252  0.8427 -1.7526
13911TIP3   OH263223   4.198   4.425   4.905 -0.0706 -0.2676  0.1057
13911TIP3    H163224   4.263   4.373   4.857 -0.1017 -1.0522  0.8797
13911TIP3    H263225   4.221   4.516   4.885 -1.0235 -0.5272 -2.6166
13912TIP3   OH263226   3.462   4.113   2.830 -0.1260  0.1821  0.1295
13912TIP3    H163227   3.547   4.156   2.824  0.6797 -1.0261  2.0082
13912TIP3    H263228   3.441   4.115   2.923 -2.6021  1.2069 -0.3835
13913TIP3   OH263229   0.687   3.543   4.785  0.3112  0.4092 -0.0305
13913TIP3    H163230   0.635   3.464   4.767  1.6166 -0.5183  0.1472
13913TIP3    H263231   0.778   3.515   4.771  0.8908  1.5063  1.4041
13914TIP3   OH263232   3.108   5.921  12.938 -0.0580 -0.4602  0.2037
13914TIP3    H163233   3.086   6.009  12.968  0.7328 -0.8502  2.0741
13914TIP3    H263234   3.170   5.935  12.867  0.0117  0.4915  0.4381
13915TIP3   OH263235   5.110   7.150   2.073  0.1339 -0.5223  0.3448
13915TIP3    H163236   5.142   7.222   2.126 -0.4580  0.3673 -0.4775
13915TIP3    H263237   5.133   7.071   2.123  3.5748  0.0002 -0.2009
13916TIP3   OH263238   2.870   4.653  14.245 -0.0158 -0.4190  0.1921
13916TIP3    H163239   2.901   4.562  14.247  3.8751  0.6064 -2.2766
13916TIP3    H263240   2.879   4.683  14.335  1.7479 -1.6804  0.4989
13917TIP3   OH263241   4.052   6.592   2.831 -0.1083  0.0450 -0.0181
13917TIP3    H163242   4.054   6.512   2.780  0.5429 -0.8874  1.4016
13917TIP3    H263243   4.144   6.620   2.835 -0.2600  0.5594 -0.0309
13918TIP3   OH263244   4.369   3.753   0.273 -0.1221 -0.0507  0.1465
13918TIP3    H163245   4.379   3.744   0.368  0.4631 -0.7487  0.0307
13918TIP3    H263246   4.459   3.752   0.239 -0.3158 -3.3435 -0.6753
13919TIP3   OH263247   3.436   6.267   2.110  0.3013 -0.1831 -0.1051
13919TIP3    H163248   3.415   6.243   2.200 -0.9750 -1.7828 -0.7721
13919TIP3    H263249   3.471   6.355   2.116  0.3445 -0.2936  1.9655
13920TIP3   OH263250   1.015   0.787   1.236  0.3660 -0.2808 -0.2929
13920TIP3    H163251   1.037   0.869   1.280  0.6541 -0.1319 -0.7132
13920TIP3    H263252   0.932   0.804   1.193  0.3837 -0.2371 -0.3094
13921TIP3   OH263253   2.078   1.550  13.696 -0.1709  0.1401  0.1142
13921TIP3    H163254   2.008   1.597  13.649 -0.2141 -1.1083 -1.1344
13921TIP3    H263255   2.159   1.581  13.655 -0.2051 -0.9143 -0.7912
13922TIP3   OH263256   5.603   0.372   1.158 -0.8391 -0.3578 -0.2661
13922TIP3    H163257   5.681   0.337   1.201  0.7757  2.2912 -0.7661
13922TIP3    H263258   5.548   0.296   1.141  1.0116 -2.1636  1.3611
13923TIP3   OH263259   0.925   0.319  12.688 -0.5341  0.1948  0.5699
13923TIP3    H163260   0.938   0.372  12.609  1.3753  1.6878  1.8117
13923TIP3    H263261   0.862   0.252  12.661  0.1079  0.5880 -2.2393
13924TIP3   OH263262   3.579   5.001  14.032 -0.1830  0.3706 -0.4469
13924TIP3    H163263   3.558   5.003  14.126 -1.2232 -1.0250 -0.6198
13924TIP3    H263264   3.650   5.064  14.022 -1.1423  1.7698  1.0150
13925TIP3   OH263265   2.286   3.592  15.316  0.6648 -0.2424 -0.2962
13925TIP3    H163266   2.216   3.593  15.381  0.6960  0.9550 -0.2587
13925TIP3    H263267   2.242   3.599  15.232  0.7496  1.1658 -0.2403
13926TIP3   OH263268   4.088   6.344   5.835 -0.3987 -0.1591 -0.5006
13926TIP3    H163269   4.117   6.405   5.903  0.4150 -1.1307  0.0549
13926TIP3    H263270   4.104   6.257   5.873 -2.8408 -0.7725 -0.6901
13927TIP3   OH263271   3.750   3.345   5.067  0.3575 -0.4222  0.5705
13927TIP3    H163272   3.830   3.351   5.015  1.7622  0.1615  2.7106
13927TIP3    H263273   3.686   3.395   5.017  1.8201  0.6607 -0.3066
13928TIP3   OH263274   1.705   1.480   0.069  0.1545 -1.0317 -0.0407
13928TIP3    H163275   1.745   1.566   0.080 -1.6077 -0.2998  1.0342
13928TIP3    H263276   1.718   1.436   0.153 -0.0909 -1.3118 -0.1475
13929TIP3   OH263277   1.561   6.743  15.492  0.3604 -0.4067 -0.0935
13929TIP3    H163278   1.499   6.775  15.426 -0.3048 -0.2310  0.6098
13929TIP3    H263279   1.589   6.658  15.459 -0.1411 -0.4248 -0.4892
13930TIP3   OH263280   3.092   1.623  14.904  0.1781 -0.7000 -0.2137
13930TIP3    H163281   3.135   1.708  14.914 -0.6859 -0.4163  1.6321
13930TIP3    H263282   3.162   1.560  14.917  0.7333 -0.2845 -1.0789
13931TIP3   OH263283   5.800   4.094   2.613  0.1599 -0.4752  0.0034
13931TIP3    H163284   5.892   4.073   2.625  0.1651 -0.6819 -0.3868
13931TIP3    H263285   5.754   4.011   2.625 -0.1586 -0.0436  2.0446
13932TIP3   OH263286   3.710   0.006   4.167 -0.2411 -0.1461  0.3693
13932TIP3    H163287   3.673   0.076   4.221 -1.4247 -1.4463  1.3157
13932TIP3    H263288   3.801   0.031   4.154 -1.1015  2.6225 -1.1017
13933TIP3   OH263289   3.531   4.380  14.164 -0.0608 -0.0264 -0.3661
13933TIP3    H163290   3.526   4.464  14.209  0.8237  0.1363 -0.5523
13933TIP3    H263291   3.606   4.388  14.106 -0.2788 -0.7684 -0.7685
13934TIP3   OH263292   6.916   6.507   5.533 -0.1027 -0.1059  0.5354
13934TIP3    H163293   6.823   6.510   5.511  0.2014 -0.0964 -0.8344
13934TIP3    H263294   6.924   6.566   5.608 -1.1483  0.1566  0.4669
13935TIP3   OH263295   3.278   4.406   0.572  0.6854  0.3098  0.0002
13935TIP3    H163296   3.188   4.386   0.544  0.6321  1.0246 -0.3883
13935TIP3    H263297   3.334   4.356   0.513  0.5453  0.5426 -0.3370
13936TIP3   OH263298   5.473   2.132  12.781  0.5141 -0.1561 -0.4124
13936TIP3    H163299   5.394   2.079  12.771  2.0539 -2.7807  0.4119
13936TIP3    H263300   5.487   2.137  12.875  1.5348 -0.0660 -0.5590
13937TIP3   OH263301   1.537   2.436   2.067  0.1583 -0.1153  0.2274
13937TIP3    H163302   1.572   2.348   2.053 -0.0318 -0.1976  0.2597
13937TIP3    H263303   1.445   2.429   2.043  0.0001 -0.0711  0.7899
13938TIP3   OH263304   5.989   2.208   3.978 -0.2334  0.2428  0.4006
13938TIP3    H163305   5.971   2.115   3.967 -0.4848  0.3810 -0.4082
13938TIP3    H263306   6.025   2.236   3.894  0.1187  0.8173  0.7333
13939TIP3   OH263307   6.499   5.372  13.767 -0.3590  0.3365 -0.7667
13939TIP3    H163308   6.488   5.324  13.684  1.6735 -1.4772 -0.0904
13939TIP3    H263309   6.550   5.449  13.743  1.5208 -0.9264 -1.0883
13940TIP3   OH263310   0.867   3.931   1.908  0.5637 -0.4864 -0.5673
13940TIP3    H163311   0.920   4.002   1.946 -1.3621  0.4945  0.4342
13940TIP3    H263312   0.906   3.851   1.943  0.6557  0.2656  1.1855
13941TIP3   OH263313   5.900   4.597   5.390  0.3401  0.6526 -0.1955
13941TIP3    H163314   5.890   4.623   5.481  1.4824 -1.7801  0.7310
13941TIP3    H263315   5.985   4.633   5.363  0.4609  0.5364  0.0327
13942TIP3   OH263316   2.327   3.968  11.494  0.5759  0.3031 -0.1336
13942TIP3    H163317   2.379   3.903  11.447  0.7124 -0.6950  1.3519
13942TIP3    H263318   2.237   3.942  11.479  0.5156  1.0608 -1.3062
13943TIP3   OH263319   5.895   4.748   5.935  0.6281 -0.2421 -0.3679
13943TIP3    H163320   5.884   4.842   5.949  1.4676 -0.2537  0.4581
13943TIP3    H263321   5.990   4.737   5.926  0.4569 -0.8344 -1.8506
13944TIP3   OH263322   6.234   4.347   4.184  0.4854 -0.1906 -0.1320
13944TIP3    H163323   6.277   4.385   4.261  1.4062 -0.3954 -0.5299
13944TIP3    H263324   6.270   4.397   4.110 -1.0170  0.5833 -0.3900
13945TIP3   OH263325   5.934   1.515   2.493 -0.4022 -0.1037  0.3889
13945TIP3    H163326   5.936   1.581   2.424 -0.2732  0.0586  0.5476
13945TIP3    H263327   6.003   1.453   2.470 -1.6601 -1.1561 -0.7156
13946TIP3   OH263328   1.541   3.974   5.419  0.4406  0.7138 -0.5955
13946TIP3    H163329   1.600   4.048   5.408  1.7942 -0.2134  0.1110
13946TIP3    H263330   1.464   3.996   5.366  2.2832  0.9938 -3.3316
13947TIP3   OH263331   2.386   3.401   3.910  0.6647 -0.0542  0.4349
13947TIP3    H163332   2.480   3.402   3.892  0.6873 -2.8856 -0.0634
13947TIP3    H263333   2.380   3.395   4.006  1.0624 -0.8386  0.4228
13948TIP3   OH263334   3.596   4.953   4.657 -0.5345 -0.3998 -0.1458
13948TIP3    H163335   3.629   5.034   4.696 -1.6010  0.6832 -1.3797
13948TIP3    H263336   3.675   4.908   4.625 -0.0368  1.2004 -1.3349
13949TIP3   OH263337   5.579   3.474   2.190 -0.5106  0.3990  0.6477
13949TIP3    H163338   5.631   3.498   2.114  0.8389 -0.5114  1.2567
13949TIP3    H263339   5.630   3.504   2.265 -1.4084  0.5075  1.2388
13950TIP3   OH263340   6.194   2.397   2.636 -0.1496  0.3460 -0.5113
13950TIP3    H163341   6.158   2.412   2.724  2.4367  0.2133  0.6685
13950TIP3    H263342   6.125   2.352   2.589 -1.2775 -0.5306  1.8121
13951TIP3   OH263343   4.155   4.773   3.905 -0.2226 -0.5055  0.0933
13951TIP3    H163344   4.183   4.710   3.971  1.4045 -2.0198 -1.9099
13951TIP3    H263345   4.072   4.737   3.872  0.1089 -0.9656 -0.2410
13952TIP3   OH263346   0.594   0.664   0.887 -0.1212 -0.6879  0.0098
13952TIP3    H163347   0.529   0.700   0.948 -0.5069 -1.9514  0.3644
13952TIP3    H263348   0.672   0.718   0.901 -0.7040  0.0657  0.4543
13953TIP3   OH263349   0.121   6.121  15.471 -0.3057  0.6624 -0.0834
13953TIP3    H163350   0.090   6.063  15.541 -0.6693  1.2842  0.2845
13953TIP3    H263351   0.076   6.204  15.488  0.0708  0.9974 -0.7046
13954TIP3   OH263352   6.891   6.931   1.876  0.1298  0.3400  0.8112
13954TIP3    H163353   6.956   6.961   1.812 -0.9298 -2.7382 -1.9623
13954TIP3    H263354   6.942   6.878   1.937  0.6913  0.6359  0.6153
13955TIP3   OH263355   1.397   0.756   2.180 -0.8051  0.2508 -0.2436
13955TIP3    H163356   1.407   0.705   2.260  0.1033  1.8957  0.7542
13955TIP3    H263357   1.403   0.847   2.209 -1.0254  0.9079 -2.1224
13956TIP3   OH263358   1.997   0.807   3.344 -0.0029 -0.6006  0.0312
13956TIP3    H163359   1.975   0.716   3.324 -0.6652 -0.6219  0.8173
13956TIP3    H263360   1.915   0.855   3.329 -0.1975 -0.4422  1.4765
13957TIP3   OH263361   0.092   0.318   3.300 -0.4172 -0.0880 -0.3979
13957TIP3    H163362   0.056   0.263   3.231  1.3814 -0.6024 -0.9922
13957TIP3    H263363   0.180   0.282   3.316  0.0523  1.3997  0.5916
13958TIP3   OH263364   4.966   4.468  13.180  0.1482 -0.0138 -0.3904
13958TIP3    H163365   4.941   4.457  13.088  2.1640 -0.6980 -0.8996
13958TIP3    H263366   4.934   4.389  13.223 -0.0129 -0.1022 -0.6683
13959TIP3   OH263367   1.426   2.619   4.100 -0.3013  0.4755  0.5936
13959TIP3    H163368   1.481   2.603   4.024  1.5037  0.3953  1.8493
13959TIP3    H263369   1.471   2.689   4.148  0.3200 -1.4492  3.0752
13960TIP3   OH263370   6.959   2.642   4.235  0.3931  0.1078  0.2089
13960TIP3    H163371   6.967   2.706   4.164 -0.4049  1.9276  1.6989
13960TIP3    H263372   7.020   2.671   4.302 -0.1806 -0.5126  1.0251
13961TIP3   OH263373   0.148   0.372   6.142 -0.8098 -0.0973  0.2543
13961TIP3    H163374   0.130   0.462   6.170  1.0576  0.0687  1.0918
13961TIP3    H263375   0.235   0.376   6.102 -1.1193 -1.3724 -0.6071
13962TIP3   OH263376   3.842   4.893   2.744  0.4747  0.4480 -0.5048
13962TIP3    H163377   3.913   4.938   2.792 -0.8388  1.3262  0.7002
13962TIP3    H263378   3.780   4.963   2.722 -1.5428 -0.6850  1.2598
13963TIP3   OH263379   6.799   6.604   2.698  0.0354  0.1745  0.1406
13963TIP3    H163380   6.864   6.666   2.665  0.6617  0.2641  1.4822
13963TIP3    H263381   6.760   6.566   2.620  1.6343  0.1913 -0.7024
13964TIP3   OH263382   5.320   2.431   3.373 -0.3820 -0.7149 -0.2398
13964TIP3    H163383   5.231   2.396   3.373 -0.8748  0.4846  0.0041
13964TIP3    H263384   5.310   2.521   3.340  0.3763  0.2757  2.0300
13965TIP3   OH263385   0.472   4.363  14.526  0.0731 -0.2004 -0.5318
13965TIP3    H163386   0.457   4.457  14.534  1.4821 -0.0653  1.5488
13965TIP3    H263387   0.402   4.332  14.469 -2.6448  1.5610  1.5733
13966TIP3   OH263388   0.285   4.004  13.851  0.1595 -0.0171  0.1040
13966TIP3    H163389   0.234   4.077  13.886 -1.4400 -1.0836  0.0834
13966TIP3    H263390   0.320   3.960  13.928  1.3480  0.8812  0.1094
13967TIP3   OH263391   3.765   5.728  14.284  0.0606  0.0167  0.7815
13967TIP3    H163392   3.737   5.684  14.204  1.4599 -3.3118  1.9464
13967TIP3    H263393   3.686   5.738  14.336 -0.4793  0.0443 -0.0325
13968TIP3   OH263394   7.151   3.646  11.866 -0.1063  0.2360 -0.2315
13968TIP3    H163395   7.242   3.673  11.884  0.8794 -2.6906 -0.3171
13968TIP3    H263396   7.159   3.585  11.792 -2.0365 -0.6881  0.2758
13969TIP3   OH263397   0.033   0.627  15.694  0.1364 -0.4225  0.3787
13969TIP3    H163398   0.041   0.692  15.625  0.1486 -0.5135  0.2937
13969TIP3    H263399  -0.061   0.611  15.702  0.1979 -1.4196 -0.5691
13970TIP3   OH263400   2.391   3.950   2.422 -0.6490 -0.0990  0.8658
13970TIP3    H163401   2.347   4.028   2.389  0.2847 -0.2353 -0.7968
13970TIP3    H263402   2.484   3.963   2.401 -0.4887 -1.7034  0.4111
13971TIP3   OH263403   5.329   3.609   4.441  0.0863 -0.2817 -0.6929
13971TIP3    H163404   5.403   3.583   4.496 -0.3065 -1.8043 -0.8467
13971TIP3    H263405   5.313   3.533   4.385 -1.4118  0.1256 -0.8439
13972TIP3   OH263406   5.727   4.533  11.678 -0.0030  0.4360 -0.1518
13972TIP3    H163407   5.694   4.472  11.613 -1.0283  0.2546  0.5185
13972TIP3    H263408   5.763   4.606  11.626  0.3375 -0.2664 -0.9297
13973TIP3   OH263409   0.204   5.378  13.912 -0.1013 -0.1315 -0.3912
13973TIP3    H163410   0.215   5.296  13.961  1.7283  0.3349  0.0648
13973TIP3    H263411   0.190   5.444  13.979 -1.4281 -0.0134 -0.7512
13974TIP3   OH263412   4.424   0.832  13.652 -0.2988 -0.0602 -0.2139
13974TIP3    H163413   4.429   0.813  13.746 -3.1584  2.9373  0.7696
13974TIP3    H263414   4.378   0.758  13.615  0.3627 -1.0321  0.8278
13975TIP3   OH263415   0.421   0.875  12.917  0.1065 -0.0597 -0.1739
13975TIP3    H163416   0.495   0.858  12.858  0.7587 -0.8578  0.8403
13975TIP3    H263417   0.363   0.932  12.867  0.3119 -1.2526 -1.8583
13976TIP3   OH263418   1.705   4.185   5.892 -0.0410 -0.0686 -0.0376
13976TIP3    H163419   1.685   4.102   5.936  1.5621  0.6868  2.2664
13976TIP3    H263420   1.619   4.225   5.877 -0.7036 -0.9142  1.2975
13977TIP3   OH263421   0.762   0.215   3.406 -0.0720 -0.6045 -0.2378
13977TIP3    H163422   0.828   0.160   3.447  0.1158  0.0903  0.4131
13977TIP3    H263423   0.686   0.159   3.396 -0.2914 -0.6582  1.5291
13978TIP3   OH263424   1.903   2.246   1.175 -0.1054  0.3533  0.5872
13978TIP3    H163425   1.934   2.327   1.214  2.5236  0.3147 -1.1759
13978TIP3    H263426   1.846   2.273   1.104  1.7421  0.8206 -0.8051
13979TIP3   OH263427   1.623   4.285   5.616 -0.0742  0.8835  0.2449
13979TIP3    H163428   1.624   4.364   5.670 -2.2676  0.6526  0.7363
13979TIP3    H263429   1.549   4.234   5.650  1.5757 -1.6677  0.2987
13980TIP3   OH263430   1.394   6.228   1.940  0.2985  0.6152 -0.1459
13980TIP3    H163431   1.352   6.191   2.017  0.0952  1.9352  0.4070
13980TIP3    H263432   1.359   6.317   1.934 -0.6152  0.1584 -2.4723
13981TIP3   OH263433   1.272   6.621   0.900  0.2765  0.3118  0.2031
13981TIP3    H163434   1.286   6.716   0.909 -1.0007  0.3805  1.9129
13981TIP3    H263435   1.187   6.614   0.857 -0.1393 -0.0554  1.0835
13982TIP3   OH263436   6.145   1.106   0.077  0.2028 -0.2397 -0.0108
13982TIP3    H163437   6.102   1.190   0.090  2.2784  1.0853 -1.3233
13982TIP3    H263438   6.233   1.117   0.112  0.6915 -1.7039 -0.6783
13983TIP3   OH263439   1.655   2.415   1.191  0.3587  0.0374 -0.0210
13983TIP3    H163440   1.678   2.386   1.103  2.9005 -2.2935  1.2359
13983TIP3    H263441   1.569   2.376   1.208  0.6402 -1.0017 -0.8723
13984TIP3   OH263442   3.650   2.481  12.402  0.2952 -0.2544 -0.3605
13984TIP3    H163443   3.635   2.397  12.359 -1.6634 -1.8895  3.1680
13984TIP3    H263444   3.568   2.528  12.392  0.2473 -0.1482  0.5166
13985TIP3   OH263445   0.117   3.058   3.085  0.2576  0.1127 -0.3238
13985TIP3    H163446   0.118   2.988   3.151 -1.0725  1.6055  1.3808
13985TIP3    H263447   0.062   3.023   3.015 -0.1163 -0.6941  0.3461
13986TIP3   OH263448   0.235   1.117  10.840  0.2649  0.4336  0.2412
13986TIP3    H163449   0.252   1.114  10.935  0.8289 -1.8631  0.1226
13986TIP3    H263450   0.142   1.138  10.834  0.1010  0.1319  1.3405
13987TIP3   OH263451   5.403   0.244  12.117  0.3502  0.5464  0.3076
13987TIP3    H163452   5.317   0.279  12.093  0.1641 -0.8708 -1.2622
13987TIP3    H263453   5.430   0.296  12.193 -1.6253  1.4004  0.4743
13988TIP3   OH263454   4.061   6.432   1.735 -0.4850 -0.0957  0.2455
13988TIP3    H163455   4.097   6.476   1.812  1.0606  1.4687 -1.2804
13988TIP3    H263456   3.977   6.474   1.720 -1.6954 -1.6785  2.0616
13989TIP3   OH263457   3.031   3.055   6.010  0.3421  0.0395 -0.3389
13989TIP3    H163458   3.020   3.129   5.950 -1.4548 -0.5126 -0.7372
13989TIP3    H263459   2.943   3.019   6.021  0.9150 -1.0025  1.2008
13990TIP3   OH263460   2.446   6.890   1.807 -0.4361 -0.0285  0.1230
13990TIP3    H163461   2.523   6.843   1.840 -0.1839 -1.0994 -1.8243
13990TIP3    H263462   2.483   6.962   1.755 -0.7381 -0.3438 -0.5408
13991TIP3   OH263463   1.705   0.497   4.063 -0.3084 -0.5254 -0.3979
13991TIP3    H163464   1.778   0.521   4.007  0.6218 -1.0665  0.5418
13991TIP3    H263465   1.733   0.416   4.106 -1.0555 -0.2171  0.7255
13992TIP3   OH263466   6.390   5.380   2.266  0.1513 -0.3975 -0.2962
13992TIP3    H163467   6.392   5.332   2.183  0.3942 -0.7468 -0.0902
13992TIP3    H263468   6.456   5.448   2.256  0.8034 -0.9869 -0.0631
13993TIP3   OH263469   0.500   1.452  12.456 -0.0894 -0.4279  0.4498
13993TIP3    H163470   0.429   1.515  12.445 -1.7457 -2.1440  0.8602
13993TIP3    H263471   0.579   1.505  12.460 -0.8143  1.3823 -4.0548
13994TIP3   OH263472   3.801   2.888   5.194 -0.5515  0.4598  0.5418
13994TIP3    H163473   3.866   2.940   5.146 -1.6853 -0.5797 -2.3715
13994TIP3    H263474   3.751   2.952   5.245  0.3843  1.7422 -0.0956
13995TIP3   OH263475   6.311   0.433   4.286  0.3740 -0.4434 -0.2272
13995TIP3    H163476   6.255   0.494   4.238  1.2032  0.3287 -0.2316
13995TIP3    H263477   6.258   0.408   4.362 -0.6030 -0.9964 -1.0568
13996TIP3   OH263478   0.112   3.867  12.221 -0.1187  0.0613 -0.1213
13996TIP3    H163479   0.025   3.907  12.226  0.2757  0.8054  1.1563
13996TIP3    H263480   0.158   3.919  12.155 -1.3726 -1.9051 -2.7595
13997TIP3   OH263481   3.046   4.414   5.080 -0.1601  0.0897 -0.7119
13997TIP3    H163482   3.113   4.357   5.117  0.7307  1.1346 -0.6857
13997TIP3    H263483   3.053   4.402   4.986 -0.9756 -0.9407 -0.6579
13998TIP3   OH263484   4.423   3.993   5.233 -0.4803 -0.2728 -0.2944
13998TIP3    H163485   4.329   3.981   5.241 -0.1585 -2.2768  1.3919
13998TIP3    H263486   4.450   3.925   5.172 -0.1411  0.5183 -1.0448
13999TIP3   OH263487   2.323   3.788   2.219  0.3984 -0.3663 -0.4085
13999TIP3    H163488   2.325   3.693   2.209 -0.2995 -0.6137  1.4816
13999TIP3    H263489   2.408   3.817   2.184  1.6461 -1.9410  1.1359
14000TIP3   OH263490   4.290   1.335   3.755 -0.5219  0.1503 -0.4180
14000TIP3    H163491   4.223   1.403   3.751 -3.0491 -2.1233  0.1418
14000TIP3    H263492   4.278   1.284   3.675  1.1491  0.1687 -0.7132
14001TIP3   OH263493   2.172   4.559   5.313 -0.1226  0.5905  0.3445
14001TIP3    H163494   2.184   4.625   5.381 -0.4412 -0.0025  0.9880
14001TIP3    H263495   2.252   4.508   5.313  0.2948  1.2128 -0.4386
14002TIP3   OH263496   7.098   2.623  10.201 -0.2530 -0.5081 -0.0754
14002TIP3    H163497   7.193   2.627  10.192 -0.1408 -0.4903  1.0265
14002TIP3    H263498   7.065   2.661  10.120  0.6768  1.1055  0.2644
14003TIP3   OH263499   4.698   5.860   1.671  0.5566  0.1987 -0.1294
14003TIP3    H163500   4.613   5.874   1.712  0.1555  0.3484 -0.9864
14003TIP3    H263501   4.761   5.864   1.743 -0.1748 -0.0742  0.5350
14004TIP3   OH263502   6.966   3.603  14.082  0.4415 -0.4102  0.0796
14004TIP3    H163503   6.954   3.599  14.177  1.9370  0.0039  0.2950
14004TIP3    H263504   6.877   3.616  14.048 -0.1958 -1.1305  1.3688
14005TIP3   OH263505   3.943   6.259   0.004 -0.0029  0.4883  0.2655
14005TIP3    H163506   3.910   6.343   0.035  2.3005  1.2764  0.7505
14005TIP3    H263507   3.980   6.278  -0.083  0.5100 -0.0173  0.3677
14006TIP3   OH263508   2.011   4.688  11.039 -0.5554 -0.0759  0.2912
14006TIP3    H163509   2.048   4.648  11.117 -2.2219 -0.5093  0.8927
14006TIP3    H263510   1.918   4.668  11.043 -0.8196  0.6243 -1.3739
14007TIP3   OH263511   5.890   6.000   5.121 -0.5276 -0.0808 -0.0806
14007TIP3    H163512   5.820   5.961   5.068 -1.4512  0.4825  0.6745
14007TIP3    H263513   5.956   5.932   5.129 -0.6443 -0.3838 -1.4279
14008TIP3   OH263514   3.924   0.860  13.977  0.3026  0.0236 -0.2314
14008TIP3    H163515   3.855   0.798  13.952  0.7706 -0.2940 -0.7768
14008TIP3    H263516   3.913   0.933  13.916  0.3038  0.0711 -0.1737
14009TIP3   OH263517   1.795   3.073   3.532 -0.3436  0.3673 -0.7915
14009TIP3    H163518   1.844   2.991   3.520 -1.4465 -0.1710 -1.8204
14009TIP3    H263519   1.863   3.140   3.544  0.6436 -0.3764 -2.0120
14010TIP3   OH263520   1.856   4.130   5.542 -0.0475 -0.2862 -0.0511
14010TIP3    H163521   1.772   4.140   5.588  0.7524  1.3998  1.1528
14010TIP3    H263522   1.921   4.122   5.612  1.0742  0.9991 -0.9027
14011TIP3   OH263523   4.479   5.198   1.061 -0.7146  1.0192 -0.7313
14011TIP3    H163524   4.457   5.284   1.096 -0.6378  0.5679  0.4554
14011TIP3    H263525   4.563   5.211   1.017 -1.7433  2.0348 -2.5499
14012TIP3   OH263526   5.065   0.554   5.576 -0.1400  0.3147  0.0823
14012TIP3    H163527   5.138   0.566   5.638  0.2741 -1.3697 -0.0346
14012TIP3    H263528   4.994   0.607   5.613  0.4797  0.3134  1.3525
14013TIP3   OH263529   6.037   4.542  14.187  0.0871 -0.3338 -0.4499
14013TIP3    H163530   6.099   4.497  14.129  0.8827 -0.7860  0.7042
14013TIP3    H263531   6.050   4.500  14.272 -2.3505 -0.9722 -0.3072
14014TIP3   OH263532   4.847   7.140   4.774  0.2776  0.0600 -0.4771
14014TIP3    H163533   4.911   7.114   4.841  1.7519 -1.5592 -2.3787
14014TIP3    H263534   4.899   7.187   4.709 -0.6993 -0.2124 -1.4788
14015TIP3   OH263535   6.524   5.810   1.433 -0.0656 -0.7874  0.0179
14015TIP3    H163536   6.491   5.900   1.435 -0.4883 -0.7614 -2.7804
14015TIP3    H263537   6.613   5.818   1.400  0.5619 -1.2896  1.5466
14016TIP3   OH263538   4.375   3.171  14.183 -0.4029 -0.1425 -0.3435
14016TIP3    H163539   4.379   3.093  14.128 -4.7594  0.0153 -1.2724
14016TIP3    H263540   4.366   3.138  14.272 -0.9798 -0.7199 -0.6035
14017TIP3   OH263541   6.173   2.790   1.395  0.2424 -0.3583 -0.1764
14017TIP3    H163542   6.235   2.818   1.463  1.7084 -0.5222 -1.3860
14017TIP3    H263543   6.223   2.727   1.343 -0.9233 -0.3872 -1.2908
14018TIP3   OH263544   0.816   4.427   1.726  0.0281 -0.0351  0.1582
14018TIP3    H163545   0.734   4.412   1.680 -0.7053 -0.9112  1.6627
14018TIP3    H263546   0.817   4.521   1.745 -1.0450 -0.1328  0.8127
14019TIP3   OH263547   6.406   4.303   4.793 -0.0927  0.0965 -0.2419
14019TIP3    H163548   6.311   4.309   4.801 -0.1539 -0.5984 -0.4436
14019TIP3    H263549   6.438   4.387   4.828 -0.6727 -0.3708  1.5178
14020TIP3   OH263550   0.142   4.828   5.465 -0.4917  0.1578 -0.2796
14020TIP3    H163551   0.217   4.778   5.434 -0.9698 -0.6961 -0.0785
14020TIP3    H263552   0.179   4.912   5.492  0.0516  0.6598 -2.4051
14021TIP3   OH263553   2.785   4.972   3.879  0.1838 -0.5874 -0.3066
14021TIP3    H163554   2.869   5.001   3.842  0.7716 -0.4035  1.0986
14021TIP3    H263555   2.810   4.916   3.953 -0.9289 -0.2829  0.3194
14022TIP3   OH263556   1.093   2.224   2.990 -0.1373  0.2824 -0.1164
14022TIP3    H163557   1.104   2.283   3.064  1.1256  0.5358 -0.4835
14022TIP3    H263558   1.062   2.279   2.918 -2.3185 -0.1302  0.4469
14023TIP3   OH263559   6.289   0.011   1.620 -0.0042 -0.7117  0.0016
14023TIP3    H163560   6.254  -0.036   1.544  0.1096 -1.7837  0.6024
14023TIP3    H263561   6.346   0.078   1.582 -2.1236  0.6734 -0.9970
14024TIP3   OH263562   3.186   6.817  13.023 -0.5432 -0.3250 -0.6274
14024TIP3    H163563   3.164   6.725  13.030  0.7646 -0.5629  0.8100
14024TIP3    H263564   3.276   6.824  13.057  0.4009  1.0809 -3.0978
14025TIP3   OH263565   5.570   1.318   2.380  0.2146 -0.0499  0.0136
14025TIP3    H163566   5.600   1.228   2.368 -1.7369 -0.7687  0.1252
14025TIP3    H263567   5.475   1.313   2.365  0.1218  2.0637 -0.3660
14026TIP3   OH263568   1.794   6.550   3.853  0.3066  0.2690  0.2497
14026TIP3    H163569   1.878   6.596   3.863  0.3499  0.5894 -1.3133
14026TIP3    H263570   1.729   6.621   3.850  0.0871  0.0751  0.3922
14027TIP3   OH263571   3.144   7.045   5.248 -0.4123 -0.6015 -0.0311
14027TIP3    H163572   3.067   7.004   5.210 -0.4637  0.9336 -1.7128
14027TIP3    H263573   3.121   7.137   5.255  0.9742 -0.2511  0.2148
14028TIP3   OH263574   4.459   0.729  14.263  0.0843  0.4002  0.5177
14028TIP3    H163575   4.551   0.710  14.246 -0.4416 -1.7173 -0.2742
14028TIP3    H263576   4.442   0.693  14.350 -0.1878 -0.0354  0.2916
14029TIP3   OH263577   5.479   2.798  13.463 -0.0748  0.1782  0.0976
14029TIP3    H163578   5.384   2.791  13.449 -0.0834 -0.3045  0.3686
14029TIP3    H263579   5.507   2.868  13.404 -0.8579  1.5224  1.2360
14030TIP3   OH263580   0.312   6.630   5.572  0.1607 -0.1419  0.5594
14030TIP3    H163581   0.223   6.622   5.606  0.2491 -0.7245  0.6600
14030TIP3    H263582   0.354   6.547   5.596  1.5967  1.1756  3.0627
14031TIP3   OH263583   1.216   2.269  13.350 -0.0431 -0.5061  0.5594
14031TIP3    H163584   1.120   2.271  13.351 -0.2015 -1.8926 -2.1596
14031TIP3    H263585   1.241   2.357  13.320 -0.7437 -1.1924 -2.3507
14032TIP3   OH263586   1.021   6.951   0.391 -0.1750 -0.1570  0.1893
14032TIP3    H163587   1.046   6.917   0.305 -0.1500 -1.0978  0.5599
14032TIP3    H263588   1.076   7.028   0.404  2.4140 -2.0074  0.8802
14033TIP3   OH263589   0.910   6.220   1.287  0.0466 -0.1871  0.3435
14033TIP3    H163590   0.816   6.212   1.271  0.1863 -1.2382 -0.0638
14033TIP3    H263591   0.951   6.182   1.209  0.8469  1.4687 -0.0996
14034TIP3   OH263592   2.823   3.075   1.100  0.4150  0.0721  0.3150
14034TIP3    H163593   2.766   3.147   1.071  0.9028  0.0759 -0.6923
14034TIP3    H263594   2.910   3.101   1.070  1.0022  0.1624  2.0122
14035TIP3   OH263595   5.908   1.257  15.046 -0.6038 -0.0065  0.2059
14035TIP3    H163596   5.999   1.232  15.027 -1.0112 -1.1306 -0.3471
14035TIP3    H263597   5.889   1.215  15.129 -0.4900  0.5963  0.5434
14036TIP3   OH263598   4.208   2.484   1.462  1.1535 -0.0558 -0.0256
14036TIP3    H163599   4.251   2.426   1.400 -0.2635 -0.5374 -0.6145
14036TIP3    H263600   4.117   2.455   1.462  0.5252  1.7584  0.1435
14037TIP3   OH263601   7.097   3.405  10.466  0.4017 -0.3718 -0.6059
14037TIP3    H163602   7.059   3.464  10.401 -0.6040 -1.6557 -1.2357
14037TIP3    H263603   7.021   3.372  10.515  0.9457 -1.1125 -0.2534
14038TIP3   OH263604   2.201   2.255   3.972 -0.5781 -0.4357  0.1743
14038TIP3    H163605   2.259   2.260   4.048 -1.4480 -0.9617  0.8932
14038TIP3    H263606   2.141   2.328   3.982 -2.2234 -1.8743  1.3207
14039TIP3   OH263607   4.181   0.631   5.054 -0.2616  0.0027 -0.4011
14039TIP3    H163608   4.242   0.560   5.073  0.3365  0.6222  0.0408
14039TIP3    H263609   4.175   0.681   5.136  2.0262  2.4832 -1.5929
14040TIP3   OH263610   2.191   6.378   2.602 -0.5422 -0.1069 -0.2050
14040TIP3    H163611   2.200   6.341   2.690  1.8841 -0.9595 -0.7438
14040TIP3    H263612   2.175   6.302   2.546 -1.0862  0.3301 -0.6574
14041TIP3   OH263613   6.236   0.299   0.915 -0.0846 -0.2395 -0.2617
14041TIP3    H163614   6.246   0.382   0.962 -1.5678 -0.3738  0.3766
14041TIP3    H263615   6.235   0.323   0.823  0.9906  0.2664 -0.1489
14042TIP3   OH263616   2.371   3.149   5.424  0.3716 -0.0373  0.0391
14042TIP3    H163617   2.420   3.228   5.446 -1.0110  0.7718  0.3552
14042TIP3    H263618   2.327   3.124   5.505 -3.7280  2.2171 -1.2058
14043TIP3   OH263619   1.158   6.632   4.958  0.0190 -0.0889  0.2977
14043TIP3    H163620   1.122   6.706   4.909 -0.4801 -0.8335 -0.4856
14043TIP3    H263621   1.195   6.575   4.890 -0.8584 -1.2403  0.7633
14044TIP3   OH263622   1.632   4.979   5.953 -0.1939  0.6272  0.5613
14044TIP3    H163623   1.612   5.007   6.042 -1.3422  0.3131  0.4212
14044TIP3    H263624   1.631   5.059   5.902  0.3275  0.7904  0.8007
14045TIP3   OH263625   6.954   1.134  15.641 -0.1638 -0.0127 -0.2318
14045TIP3    H163626   6.972   1.099  15.553 -0.1364  0.2965 -0.3493
14045TIP3    H263627   6.978   1.062  15.700 -0.2208 -0.2371 -0.4781
14046TIP3   OH263628   6.897   4.460   1.849  0.0727 -0.5657 -0.3770
14046TIP3    H163629   6.875   4.547   1.818  0.0760  0.1230  1.4511
14046TIP3    H263630   6.937   4.474   1.934 -1.2004 -2.4334  0.5885
14047TIP3   OH263631   4.865   3.125   3.469  0.2361  0.3220  0.4150
14047TIP3    H163632   4.779   3.092   3.446 -0.3057  1.1866  1.1376
14047TIP3    H263633   4.907   3.143   3.384  0.0993 -1.0370  0.0431
14048TIP3   OH263634   5.810   5.994  14.508 -0.2986  0.3061 -0.0889
14048TIP3    H163635   5.748   5.995  14.434 -1.1573  1.5529  0.5995
14048TIP3    H263636   5.891   5.960  14.471 -1.1787 -0.6623 -1.2056
14049TIP3   OH263637   0.284   0.245  14.042 -0.6667 -0.2078  0.2499
14049TIP3    H163638   0.311   0.153  14.052  0.2813  0.1041  0.6146
14049TIP3    H263639   0.346   0.294  14.095 -2.0201  0.5436  1.1893
14050TIP3   OH263640   3.336   1.333  15.630 -0.4084 -0.0120  0.4844
14050TIP3    H163641   3.399   1.261  15.633 -1.9153 -1.3885  0.6504
14050TIP3    H263642   3.314   1.349  15.722 -0.5822  0.1774  0.4102
14051TIP3   OH263643   2.963   4.454   1.678  0.0231  0.9019 -0.0784
14051TIP3    H163644   2.963   4.520   1.609  0.7778  0.7944 -0.1874
14051TIP3    H263645   2.988   4.373   1.634  1.0156  0.9276  0.3932
14052TIP3   OH263646   1.129   4.454   6.019  0.1603  0.1720  0.3785
14052TIP3    H163647   1.075   4.483   6.092 -0.9968  0.7922 -0.6815
14052TIP3    H263648   1.171   4.534   5.987 -2.9445  0.8787 -2.4802
14053TIP3   OH263649   6.965   1.839   3.789  0.1555  0.0396  0.5341
14053TIP3    H163650   6.889   1.797   3.751  0.4515  0.5684 -0.6866
14053TIP3    H263651   6.933   1.923   3.822 -0.0018 -0.2117  1.0354
14054TIP3   OH263652   5.829   4.921   3.234 -0.1897  0.1787  0.4582
14054TIP3    H163653   5.869   4.858   3.295 -1.1696 -0.3109  0.6220
14054TIP3    H263654   5.881   5.001   3.244  1.7481 -0.8692 -0.4944
14055TIP3   OH263655   0.471   0.454  14.157  0.3248  0.0910 -0.2261
14055TIP3    H163656   0.564   0.471  14.139  0.0159  0.5008 -1.6002
14055TIP3    H263657   0.470   0.414  14.244  1.5965  2.0119  0.7301
14056TIP3   OH263658   5.942   0.030   5.353  0.1266 -0.1619 -0.5950
14056TIP3    H163659   5.871  -0.034   5.346  1.1228 -1.2015 -1.6624
14056TIP3    H263660   5.899   0.115   5.348 -1.4827 -0.5928  2.9624
14057TIP3   OH263661   0.428   2.464  10.270  0.5054 -0.1984  0.4029
14057TIP3    H163662   0.498   2.402  10.248 -0.6235 -0.8315 -1.6834
14057TIP3    H263663   0.355   2.408  10.299 -0.5747  0.0505 -1.6361
14058TIP3   OH263664   0.699   2.079  10.408  0.2230 -0.2352 -0.0531
14058TIP3    H163665   0.678   1.986  10.421 -0.9327 -0.1670 -1.2053
14058TIP3    H263666   0.769   2.078  10.343  0.8077 -0.3083  0.5601
14059TIP3   OH263667   3.342   5.907   3.482  0.1411 -0.0056 -0.0315
14059TIP3    H163668   3.425   5.860   3.480  0.1487 -0.0609 -3.2780
14059TIP3    H263669   3.276   5.839   3.499  0.4136 -0.7889 -1.8679
14060TIP3   OH263670   1.976   5.000   3.185  0.6114 -0.2936  0.2206
14060TIP3    H163671   2.042   5.029   3.248 -0.0082  1.7006  0.0541
14060TIP3    H263672   1.894   5.001   3.234  0.0990  1.4082 -0.5761
14061TIP3   OH263673   0.337   3.768   4.302  0.1204  0.5508 -0.3021
14061TIP3    H163674   0.397   3.810   4.363  0.3315  0.3852 -0.3972
14061TIP3    H263675   0.261   3.745   4.355 -0.3889  1.8596 -0.4164
14062TIP3   OH263676   6.566   3.842   2.882 -0.3481 -0.0520 -0.4065
14062TIP3    H163677   6.592   3.832   2.791  0.0231 -2.3717 -0.1132
14062TIP3    H263678   6.603   3.927   2.908  0.5654  0.1060 -2.0764
14063TIP3   OH263679   1.839   1.640  11.227 -0.5030 -0.1397 -0.2015
14063TIP3    H163680   1.902   1.571  11.247  1.2678  1.0905 -1.2570
14063TIP3    H263681   1.783   1.602  11.159  1.2560 -0.1676 -1.7163
14064TIP3   OH263682   6.302   6.466   0.552  0.2196 -0.0908 -0.1173
14064TIP3    H163683   6.307   6.429   0.464 -0.8628  0.3976 -0.3988
14064TIP3    H263684   6.377   6.526   0.557 -0.8832  1.5197 -1.5148
14065TIP3   OH263685   1.215   5.198   1.746  0.5359 -0.2971  0.2168
14065TIP3    H163686   1.240   5.272   1.802 -0.1392 -0.6867  1.0645
14065TIP3    H263687   1.290   5.139   1.750  0.7283 -0.0509  0.2503
14066TIP3   OH263688   5.353   1.700  13.616  0.9351  0.1210 -0.6976
14066TIP3    H163689   5.263   1.733  13.618  1.6795  2.3641 -1.3616
14066TIP3    H263690   5.354   1.636  13.544 -0.6541 -1.7873  0.8878
14067TIP3   OH263691   2.471   2.602   5.800  0.2347  0.5772 -0.2148
14067TIP3    H163692   2.519   2.525   5.833  0.0695 -0.2218 -1.7367
14067TIP3    H263693   2.523   2.677   5.830  0.9518 -0.1659  0.4645
14068TIP3   OH263694   1.482   1.862  14.701  0.1679 -0.7782  0.7178
14068TIP3    H163695   1.505   1.951  14.673  0.0363 -0.3139  1.9868
14068TIP3    H263696   1.556   1.808  14.674  0.8270 -0.0506  1.0396
14069TIP3   OH263697   5.424   0.083   3.247 -0.0303  0.0946  0.2822
14069TIP3    H163698   5.396  -0.003   3.278 -2.1022  0.3898 -0.5945
14069TIP3    H263699   5.519   0.081   3.253 -0.1331 -0.8831  3.7958
14070TIP3   OH263700   1.940   1.199   1.579 -0.0839  0.1859 -0.2939
14070TIP3    H163701   2.007   1.191   1.510 -0.4652  0.8026 -0.7511
14070TIP3    H263702   1.874   1.133   1.555  0.3974 -0.4906  0.2127
14071TIP3   OH263703   0.051   5.200   4.860 -0.1899 -0.5137 -0.0004
14071TIP3    H163704   0.034   5.173   4.770 -0.3942  1.6143 -0.6721
14071TIP3    H263705  -0.007   5.146   4.914 -1.8179 -0.1981 -1.3787
14072TIP3   OH263706   5.208   2.125   0.101 -0.4253 -0.4877  0.6239
14072TIP3    H163707   5.168   2.117   0.014  1.3673 -0.4762 -0.2338
14072TIP3    H263708   5.244   2.214   0.103  0.0665 -0.6906  1.1450
14073TIP3   OH263709   1.946   5.103  13.417  0.1498 -0.3147 -0.3543
14073TIP3    H163710   1.883   5.160  13.373  0.9504  2.2739  1.5844
14073TIP3    H263711   2.030   5.123  13.376  0.2662 -1.1523 -0.5541
14074TIP3   OH263712   1.047   2.808  15.236  0.0820 -0.4986 -1.0610
14074TIP3    H163713   1.064   2.865  15.161  0.4943 -1.6693 -1.9009
14074TIP3    H263714   0.952   2.794  15.234 -0.5552  2.5016  0.9794
14075TIP3   OH263715   4.277   6.482   0.425 -0.6016 -0.2035  0.0774
14075TIP3    H163716   4.213   6.412   0.409 -1.7866  0.4228  1.7770
14075TIP3    H263717   4.278   6.492   0.521  2.9179 -0.9574  0.2669
14076TIP3   OH263718   1.249   3.618  11.728  0.4885  0.1479 -0.0550
14076TIP3    H163719   1.297   3.595  11.649  2.9295  0.0740  1.3472
14076TIP3    H263720   1.161   3.642  11.697  0.1774 -3.3274 -2.4031
14077TIP3   OH263721   7.146   2.244  11.879  0.7607 -0.5190 -0.4079
14077TIP3    H163722   7.115   2.205  11.961  0.8608  1.2046  0.4983
14077TIP3    H263723   7.235   2.210  11.868  2.1816  1.8794  2.1855
14078TIP3   OH263724   3.175   5.639  11.460  0.3330 -0.0235 -0.0806
14078TIP3    H163725   3.258   5.605  11.494  0.4438  0.7699  0.4874
14078TIP3    H263726   3.202   5.701  11.392  0.3617  1.9561  1.6257
14079TIP3   OH263727   4.327   2.881  14.588  0.0803  0.4428  0.7255
14079TIP3    H163728   4.371   2.868  14.504  1.0783  0.9064  1.1616
14079TIP3    H263729   4.240   2.911  14.564  0.2125  0.1718 -0.1531
14080TIP3   OH263730   0.922   4.401  10.865  0.3301 -0.5702  0.1134
14080TIP3    H163731   0.911   4.485  10.911  0.5198 -0.4776 -0.0110
14080TIP3    H263732   0.843   4.352  10.887  0.3226 -0.4451  0.3707
14081TIP3   OH263733   4.445   3.365  13.344 -0.6939 -0.4144  0.0607
14081TIP3    H163734   4.469   3.377  13.253 -0.9542 -1.6052 -0.1793
14081TIP3    H263735   4.489   3.284  13.370 -1.9670 -0.9927  0.4925
14082TIP3   OH263736   6.953   4.895   3.353 -0.2747  0.4474  0.3196
14082TIP3    H163737   7.006   4.898   3.433  0.5065 -1.6595 -0.0374
14082TIP3    H263738   6.994   4.957   3.293  0.5380  0.3432  0.7604
14083TIP3   OH263739   4.423   5.308   2.923  0.7397  0.5012  0.0640
14083TIP3    H163740   4.471   5.390   2.931 -0.2711  0.9663  1.8683
14083TIP3    H263741   4.400   5.302   2.830 -0.6988  3.1843  0.1594
14084TIP3   OH263742   3.490   5.621   5.074  0.2486 -0.0690 -0.4791
14084TIP3    H163743   3.524   5.580   4.994 -0.3080  2.8294 -2.3860
14084TIP3    H263744   3.539   5.703   5.081  1.0076 -0.6658  2.8612
14085TIP3   OH263745   0.399   6.353   5.164  0.5552  0.1729 -0.4090
14085TIP3    H163746   0.375   6.444   5.177  0.1704  0.2226 -1.3785
14085TIP3    H263747   0.414   6.345   5.070  1.8747 -0.4608 -0.1651
14086TIP3   OH263748   3.610   6.136   5.119 -0.0648 -0.0606 -0.5664
14086TIP3    H163749   3.603   6.179   5.033 -2.3144 -0.0531 -0.4467
14086TIP3    H263750   3.671   6.191   5.168 -1.0183  1.6458 -1.2107
14087TIP3   OH263751   5.143   4.009   5.422 -0.5082 -0.2955 -0.6040
14087TIP3    H163752   5.141   3.930   5.477 -0.3503 -1.5931 -2.3545
14087TIP3    H263753   5.097   4.075   5.474  1.4512 -0.7828  1.9830
14088TIP3   OH263754   4.390   2.172   3.604  0.2265 -0.1914 -0.2817
14088TIP3    H163755   4.360   2.256   3.638 -0.0741 -0.7827  0.9640
14088TIP3    H263756   4.334   2.155   3.528 -1.2086 -0.2923  0.7725
14089TIP3   OH263757   3.696   2.675   1.759 -0.6719 -0.1419  0.2273
14089TIP3    H163758   3.693   2.580   1.771  0.2127  0.0414  2.3414
14089TIP3    H263759   3.755   2.687   1.684  2.6308 -1.2485  2.3863
14090TIP3   OH263760   6.846   0.707  15.505 -0.2800  0.1696 -0.1894
14090TIP3    H163761   6.750   0.706  15.507 -0.4575  2.8035 -2.2208
14090TIP3    H263762   6.872   0.720  15.597 -1.8453 -0.3363  0.3534
14091TIP3   OH263763   0.454   4.003   4.972 -0.3643 -0.3465  0.4436
14091TIP3    H163764   0.460   4.004   5.067  1.7420 -0.3227  0.3598
14091TIP3    H263765   0.477   3.913   4.947 -0.0264 -0.1285 -0.0624
14092TIP3   OH263766   0.533   4.629   1.701  0.4766  0.4652 -0.3584
14092TIP3    H163767   0.587   4.687   1.647  0.3414  0.6792 -0.2642
14092TIP3    H263768   0.443   4.654   1.680  0.4142  0.1796 -0.4373
14093TIP3   OH263769   3.642   6.717   2.662 -0.2133 -0.3485  0.3175
14093TIP3    H163770   3.564   6.667   2.687 -1.4204  1.1097 -0.4116
14093TIP3    H263771   3.612   6.807   2.654  1.3150  0.0950 -1.0225
14094TIP3   OH263772   2.502   0.578   9.855  0.4701  0.4889 -0.0024
14094TIP3    H163773   2.594   0.606   9.861 -0.1609  2.4798  1.6400
14094TIP3    H263774   2.491   0.515   9.926  1.1204 -1.8096 -1.8046
14095TIP3   OH263775   4.815   4.951  14.531 -0.2430 -0.2684  0.1511
14095TIP3    H163776   4.731   4.984  14.500  0.0195  0.8837  0.6074
14095TIP3    H263777   4.862   5.030  14.560  1.4454 -0.7330 -1.1738
14096TIP3   OH263778   5.031   0.270  10.740 -1.3170 -0.3369  0.2445
14096TIP3    H163779   5.108   0.245  10.689 -1.2148  1.0304 -0.3360
14096TIP3    H263780   5.066   0.310  10.820 -1.3718  0.8806 -0.3112
14097TIP3   OH263781   3.947   7.039   3.859  0.3532 -0.3168  0.0912
14097TIP3    H163782   3.862   7.071   3.888  0.5902 -0.4449  0.9636
14097TIP3    H263783   3.930   6.998   3.774 -0.4382 -0.2713  0.2242
14098TIP3   OH263784   4.042   1.247  12.991 -0.0556  0.2409 -0.5513
14098TIP3    H163785   3.952   1.217  12.983  0.4227 -1.5422  0.3724
14098TIP3    H263786   4.071   1.218  13.077  1.9484 -0.8201 -1.4982
14099TIP3   OH263787   3.108   1.056   5.100  0.3554  0.4941 -0.1812
14099TIP3    H163788   3.080   1.103   5.179  0.6920  1.0687 -0.3994
14099TIP3    H263789   3.188   1.011   5.127 -0.1487 -0.2269  0.1213
14100TIP3   OH263790   5.643   1.428   4.935  0.2839 -0.5433  0.1628
14100TIP3    H163791   5.550   1.447   4.921  0.2552  0.8820  1.8382
14100TIP3    H263792   5.668   1.488   5.005  2.3937 -1.1589 -0.0208
14101TIP3   OH263793   5.743   5.830   4.988 -0.0029 -0.4053  0.0757
14101TIP3    H163794   5.784   5.745   4.970 -0.8035 -1.2506  1.9997
14101TIP3    H263795   5.650   5.810   4.997 -0.5357  1.0714 -1.5843
14102TIP3   OH263796   4.300   1.721   5.928  0.2834  1.0251  0.5589
14102TIP3    H163797   4.354   1.701   6.004 -0.2922  1.0776  0.9921
14102TIP3    H263798   4.318   1.814   5.911 -0.4983  1.3500  1.3994
14103TIP3   OH263799   0.238   2.624   3.203  0.1654  0.7744 -0.2641
14103TIP3    H163800   0.208   2.635   3.113 -0.1740  0.6686 -0.1646
14103TIP3    H263801   0.288   2.542   3.202 -2.7176 -1.1202  0.3542
14104TIP3   OH263802   1.236   2.347   4.209  0.4654 -0.1316 -0.1494
14104TIP3    H163803   1.224   2.407   4.136 -0.3454  1.0536  0.9082
14104TIP3    H263804   1.151   2.303   4.217  0.4793 -0.1007  0.1939
14105TIP3   OH263805   0.523   0.385   3.945 -0.3469  0.1836  0.4642
14105TIP3    H163806   0.454   0.439   3.983  1.3049  2.3286  0.6106
14105TIP3    H263807   0.477   0.318   3.896 -2.5537  1.9688 -0.0727
14106TIP3   OH263808   1.482   6.432   0.959  0.4224  0.2381  0.3165
14106TIP3    H163809   1.423   6.496   0.919  1.3904  0.2170 -1.2523
14106TIP3    H263810   1.567   6.476   0.959  0.6692 -0.2232  1.3316
14107TIP3   OH263811   4.092   2.852   1.500  0.1543  0.0334 -0.6719
14107TIP3    H163812   4.061   2.841   1.590  1.6334 -2.4582 -0.3858
14107TIP3    H263813   4.132   2.939   1.499  0.8319 -0.2081  1.3067
14108TIP3   OH263814   6.008   5.750   5.364  0.2751  0.5344 -0.3573
14108TIP3    H163815   6.061   5.671   5.373  0.7028  0.5860 -2.1104
14108TIP3    H263816   6.063   5.809   5.313 -0.3104  1.7330  0.3649
14109TIP3   OH263817   3.250   0.953  10.381 -0.0672  0.1059 -0.0034
14109TIP3    H163818   3.281   0.986  10.297  0.7744 -1.3857 -0.3049
14109TIP3    H263819   3.177   0.895  10.358  0.6205 -0.8626  0.2193
14110TIP3   OH263820   1.839   0.207   5.817  0.5442  0.1248 -0.0349
14110TIP3    H163821   1.772   0.230   5.882  1.2746 -3.5343  2.3379
14110TIP3    H263822   1.802   0.134   5.769  1.9982 -0.6302 -0.0806
14111TIP3   OH263823   0.934   1.316   1.904 -0.0899 -0.2610  0.0572
14111TIP3    H163824   1.004   1.250   1.903 -1.1412 -1.4215 -0.6104
14111TIP3    H263825   0.858   1.270   1.869 -1.5954  0.5195  2.1051
14112TIP3   OH263826   5.377   0.176  12.500  0.4550  0.0561 -0.1755
14112TIP3    H163827   5.390   0.264  12.533  0.5348  0.7982 -2.0592
14112TIP3    H263828   5.328   0.188  12.418  0.9965 -1.5879 -0.7820
14113TIP3   OH263829   4.318   5.451   2.656 -0.5588 -0.3981  0.2253
14113TIP3    H163830   4.240   5.487   2.699 -0.5116  1.3015 -1.0088
14113TIP3    H263831   4.383   5.521   2.660  0.2889 -1.1221 -0.3792
14114TIP3   OH263832   2.859   0.856  14.295  0.3886 -0.1966  0.0520
14114TIP3    H163833   2.789   0.797  14.324  0.7645 -0.9279 -0.5172
14114TIP3    H263834   2.817   0.941  14.289 -0.3814 -0.5724  0.0185
14115TIP3   OH263835   4.110   6.920   4.339 -0.4118  0.0402 -0.4538
14115TIP3    H163836   4.200   6.944   4.315 -0.3407  0.3562  0.1144
14115TIP3    H263837   4.098   6.957   4.427 -1.0093 -0.2265 -0.4205
14116TIP3   OH263838   3.467   1.794   3.611 -0.0766  0.1252  0.0640
14116TIP3    H163839   3.532   1.727   3.630  0.4807 -0.0034 -2.0421
14116TIP3    H263840   3.514   1.859   3.559 -0.8536  1.6720  1.2079
14117TIP3   OH263841   6.741   5.495   1.686 -0.4389 -0.2359 -0.0351
14117TIP3    H163842   6.798   5.557   1.641 -0.6460  0.2027  0.2947
14117TIP3    H263843   6.730   5.531   1.774  0.5823 -1.4799  0.6326
14118TIP3   OH263844   1.726   3.637  15.058  0.1440 -0.3192 -0.5428
14118TIP3    H163845   1.651   3.696  15.049  0.5552  0.7669  2.1205
14118TIP3    H263846   1.783   3.682  15.120  1.5501 -2.5524 -0.1367
14119TIP3   OH263847   4.496   5.607   2.922 -0.2110  0.1419  0.0437
14119TIP3    H163848   4.492   5.596   3.017  0.7848  0.0453  0.0847
14119TIP3    H263849   4.472   5.698   2.907 -0.6700  0.0749  0.3572
14120TIP3   OH263850   5.646   5.994   4.185  0.1395  0.0620 -0.2038
14120TIP3    H163851   5.672   5.934   4.255  0.3442 -2.6139 -2.4255
14120TIP3    H263852   5.556   6.017   4.205 -0.3004 -1.8474  0.2094
14121TIP3   OH263853   5.484   7.110   2.361  0.3018 -0.1538  0.2793
14121TIP3    H163854   5.507   7.020   2.336  2.2995  0.1937  0.6631
14121TIP3    H263855   5.520   7.120   2.449  0.4320  1.1141  0.1009
14122TIP3   OH263856   3.062   5.962   1.347 -0.4203  0.2264  0.4818
14122TIP3    H163857   3.015   6.013   1.414 -2.5831 -2.2132  0.9771
14122TIP3    H263858   2.994   5.938   1.283  1.0097 -0.0384 -0.9865
14123TIP3   OH263859   3.442   6.026   3.251  0.1263  0.3904 -0.7068
14123TIP3    H163860   3.396   5.997   3.330 -0.7182  2.3243 -0.4300
14123TIP3    H263861   3.428   5.955   3.188 -0.3984 -0.5428  0.4157
14124TIP3   OH263862   1.910   6.006  15.020 -0.7303  0.2781  0.5708
14124TIP3    H163863   1.991   5.980  14.977 -1.4971 -2.2463  0.5170
14124TIP3    H263864   1.933   6.084  15.071  1.6006 -0.1452  0.2367
14125TIP3   OH263865   6.805   6.543   0.438 -0.3823 -0.0224 -0.5660
14125TIP3    H163866   6.745   6.523   0.366  0.9714 -1.1406 -1.4576
14125TIP3    H263867   6.832   6.457   0.471 -1.1081  0.4683  1.4423
14126TIP3   OH263868   1.605   6.400   5.222 -0.5111 -0.5501 -0.4226
14126TIP3    H163869   1.557   6.458   5.164 -0.4872  0.2164  0.3000
14126TIP3    H263870   1.545   6.384   5.295 -0.3666 -1.1127 -0.4238
14127TIP3   OH263871   4.356   1.394  15.604  0.0313  0.3727  0.2894
14127TIP3    H163872   4.291   1.464  15.608 -2.1725 -1.5619  0.6603
14127TIP3    H263873   4.347   1.349  15.688  2.7316  0.7067  0.8351
14128TIP3   OH263874   5.334   2.124   0.707 -0.0786 -0.0197 -0.1738
14128TIP3    H163875   5.390   2.131   0.784 -0.9354 -0.7623  0.5370
14128TIP3    H263876   5.288   2.208   0.702 -0.7330 -0.3114  0.7101
14129TIP3   OH263877   3.730   2.541   2.302 -0.0352 -0.0796  0.6955
14129TIP3    H163878   3.683   2.501   2.375 -0.5527  0.8326  0.8874
14129TIP3    H263879   3.662   2.590   2.255  0.8675  2.1726  1.6035
14130TIP3   OH263880   5.923   6.928   1.337 -0.3154 -0.7479 -0.1034
14130TIP3    H163881   5.911   6.937   1.431 -1.2402 -1.3777 -0.1460
14130TIP3    H263882   5.859   6.987   1.298 -0.8952 -1.5172 -0.3368
14131TIP3   OH263883   6.510   1.770  10.143 -0.3255  0.4002 -0.6708
14131TIP3    H163884   6.455   1.785  10.220  1.0405 -0.1134  0.4596
14131TIP3    H263885   6.548   1.684  10.157  2.0437  1.3889 -0.5444
14132TIP3   OH263886   2.584   2.541   3.486 -0.3232  0.0708 -0.4244
14132TIP3    H163887   2.558   2.621   3.440 -0.8069  0.8855  1.1914
14132TIP3    H263888   2.619   2.572   3.570 -1.3637 -1.4453  0.6120
14133TIP3   OH263889   2.650   0.260   2.202 -0.3152  0.0732  0.5610
14133TIP3    H163890   2.670   0.297   2.116 -1.6020 -2.7294 -1.0847
14133TIP3    H263891   2.556   0.246   2.200 -0.3670 -0.0997  2.4749
14134TIP3   OH263892   3.482   3.300   4.476 -0.1125 -0.5774 -0.1597
14134TIP3    H163893   3.536   3.340   4.545  1.2434  1.9807 -2.5056
14134TIP3    H263894   3.545   3.257   4.418 -0.7292  0.7289 -1.8807
14135TIP3   OH263895   0.846   6.505   4.904  0.3060 -0.1693 -1.2983
14135TIP3    H163896   0.906   6.526   4.833 -1.4708  5.9279 -1.5263
14135TIP3    H263897   0.759   6.504   4.863 -0.4260 -1.8268  0.1150
14136TIP3   OH263898   1.090   1.179  10.460 -0.6383 -0.8629  0.2237
14136TIP3    H163899   1.161   1.165  10.398 -1.1890  0.1106 -0.6706
14136TIP3    H263900   1.079   1.095  10.504  0.4830 -1.2622 -0.2309
14137TIP3   OH263901   0.867   2.552   2.324 -0.2013 -0.0305  0.1416
14137TIP3    H163902   0.947   2.502   2.339  0.0808  0.2502 -0.4067
14137TIP3    H263903   0.801   2.508   2.378  0.2384 -0.4783  0.3210
14138TIP3   OH263904   0.065   3.288   4.774  0.2078 -0.0633  0.1800
14138TIP3    H163905   0.024   3.371   4.750 -1.0615 -0.8956 -0.7065
14138TIP3    H263906   0.027   3.224   4.713  0.7725 -1.3767  1.1483
14139TIP3   OH263907   0.434   7.092   5.536 -0.2540  0.3159 -0.1421
14139TIP3    H163908   0.473   7.139   5.462 -2.0318  0.7516 -0.8453
14139TIP3    H263909   0.492   7.112   5.610  1.4570  0.0136 -1.3533
14140TIP3   OH263910   6.934   2.392  11.725  0.1162  0.2156 -0.2789
14140TIP3    H163911   6.989   2.461  11.687 -0.7207  1.7845  1.1801
14140TIP3    H263912   6.994   2.342  11.781  0.3234  1.2451  0.4606
14141TIP3   OH263913   5.549   3.518   5.381  0.0752 -0.0214  0.2571
14141TIP3    H163914   5.570   3.452   5.315 -0.4316  0.1793 -0.1113
14141TIP3    H263915   5.562   3.601   5.336  0.4898  0.1285  0.6496
14142TIP3   OH263916   0.347   7.037   3.867  0.0595  0.3380  0.3777
14142TIP3    H163917   0.325   6.960   3.919 -2.0061  0.1052 -0.7527
14142TIP3    H263918   0.270   7.053   3.813  0.7004  2.7671  0.0372
14143TIP3   OH263919   1.876   1.439   2.866 -0.2381  0.4440 -0.4537
14143TIP3    H163920   1.896   1.492   2.943 -0.8584 -0.3802  0.2928
14143TIP3    H263921   1.874   1.502   2.793 -1.4408  1.5407  0.4811
14144TIP3   OH263922   4.583   0.045  13.762 -0.3152 -0.1748  0.9085
14144TIP3    H163923   4.656   0.051  13.701 -0.8505  1.6943  0.3951
14144TIP3    H263924   4.613   0.092  13.840 -1.0669  0.8949  0.5698
14145TIP3   OH263925   2.060   3.285   5.570 -0.1525 -0.2665  0.3944
14145TIP3    H163926   2.136   3.233   5.594 -0.5037 -0.5902  0.8321
14145TIP3    H263927   2.018   3.306   5.653  0.5011  1.5364  0.2938
14146TIP3   OH263928   1.662   2.660   4.424  0.2381  0.1979  0.4421
14146TIP3    H163929   1.728   2.621   4.368  2.3507  0.8114  2.3398
14146TIP3    H263930   1.579   2.626   4.391  1.5139 -1.0699 -1.6876
14147TIP3   OH263931   5.513   2.201  15.231 -0.0747  0.4735  0.0925
14147TIP3    H163932   5.504   2.147  15.309 -1.3581  0.5384  0.0245
14147TIP3    H263933   5.464   2.281  15.252  0.5729  0.9907 -0.3401
14148TIP3   OH263934   3.631   5.309  10.688  0.0351 -0.0758  0.7185
14148TIP3    H163935   3.685   5.247  10.739 -0.7800 -1.5994 -0.1898
14148TIP3    H263936   3.594   5.368  10.754  0.9250 -0.4855  1.6159
14149TIP3   OH263937   4.789   3.349   0.753  0.5609 -0.6168 -0.5893
14149TIP3    H163938   4.695   3.346   0.771  0.5352 -1.1188 -0.8138
14149TIP3    H263939   4.817   3.258   0.751  1.7152 -0.5073  2.9201
14150TIP3   OH263940   2.540   6.629  15.164  0.2902  0.1576  0.0931
14150TIP3    H163941   2.510   6.540  15.179 -0.2649  0.3513  0.1382
14150TIP3    H263942   2.461   6.682  15.165  0.6718  0.7365  0.6941
14151TIP3   OH263943   4.818   2.803   1.964  0.2342 -0.0782 -0.5792
14151TIP3    H163944   4.844   2.851   1.885 -0.1786  0.6462 -0.2882
14151TIP3    H263945   4.900   2.768   1.999  0.7631  1.6360 -0.0160
14152TIP3   OH263946   0.296   6.600   5.251 -0.0121 -0.0704  0.4024
14152TIP3    H163947   0.205   6.594   5.281 -0.2034 -1.6806 -0.3843
14152TIP3    H263948   0.326   6.686   5.281 -1.9339  0.6813  0.2885
14153TIP3   OH263949   1.487   3.996   5.088 -0.2357 -0.3594  0.2318
14153TIP3    H163950   1.437   3.988   5.169  0.4251  0.5474  0.7551
14153TIP3    H263951   1.427   3.968   5.019 -1.8806  1.7376  0.6997
14154TIP3   OH263952   2.566   1.435   5.280 -0.7386  0.3373  0.0698
14154TIP3    H163953   2.540   1.526   5.293  1.4257  1.4457 -2.3158
14154TIP3    H263954   2.500   1.399   5.222 -1.1297  0.6614  0.3101
14155TIP3   OH263955   2.832   1.131   5.070 -0.4908  0.2040  0.3823
14155TIP3    H163956   2.918   1.094   5.051 -0.3228 -0.5092  2.2689
14155TIP3    H263957   2.844   1.225   5.067 -0.1984  0.1396 -1.5256
14156TIP3   OH263958   5.951   6.987  14.015 -0.0042  0.0391  0.0037
14156TIP3    H163959   5.947   6.961  13.923  0.9629 -0.5208  0.1056
14156TIP3    H263960   6.035   6.953  14.046 -0.8386 -0.8353  1.4233
14157TIP3   OH263961   0.141   2.243   2.110 -0.7265  0.0897  0.2044
14157TIP3    H163962   0.163   2.250   2.203 -1.5939  0.8720  0.3687
14157TIP3    H263963   0.218   2.203   2.070 -0.8566 -1.4987  1.4600
14158TIP3   OH263964   2.571   5.105   4.213 -0.2609  0.2066  0.0143
14158TIP3    H163965   2.510   5.156   4.266  1.6303  0.2864  2.3192
14158TIP3    H263966   2.564   5.016   4.247  1.0477  0.2691  0.5232
14159TIP3   OH263967   1.742   7.130   5.635  0.0174 -0.7900 -0.2914
14159TIP3    H163968   1.697   7.103   5.555  1.3584 -2.7802 -0.4436
14159TIP3    H263969   1.674   7.127   5.702 -1.1920  1.1547 -1.3432
14160TIP3   OH263970   4.381   1.416  13.724  0.0883  0.2339  0.0798
14160TIP3    H163971   4.472   1.408  13.754  0.5516 -0.3634 -1.4175
14160TIP3    H263972   4.339   1.336  13.755 -0.3975  1.2073  2.1601
14161TIP3   OH263973   3.185   5.854   4.402  0.1988 -0.3278 -0.0985
14161TIP3    H163974   3.185   5.856   4.498  1.5891 -1.4438 -0.0463
14161TIP3    H263975   3.228   5.936   4.377 -0.2285  0.0012  0.2229
14162TIP3   OH263976   0.005   4.779  14.161  0.0292  0.1622 -0.2145
14162TIP3    H163977  -0.030   4.867  14.147  1.4882  0.5750 -1.4996
14162TIP3    H263978  -0.011   4.734  14.078 -0.4998 -0.7344  0.3583
14163TIP3   OH263979   5.841   6.404   2.771 -0.4009 -0.0681  0.0580
14163TIP3    H163980   5.803   6.343   2.834  0.1207 -1.5747 -1.0341
14163TIP3    H263981   5.924   6.430   2.810 -0.8491  0.3467  0.7550
14164TIP3   OH263982   3.507   2.451  14.239  0.5253  0.0678 -0.3823
14164TIP3    H163983   3.416   2.428  14.259  0.4780 -0.0236 -0.7064
14164TIP3    H263984   3.510   2.546  14.252  0.1553  0.2061 -1.2384
14165TIP3   OH263985   2.046   2.067  11.450  0.4201  0.0358  0.1594
14165TIP3    H163986   2.069   1.975  11.463  1.3254  0.3272  0.7271
14165TIP3    H263987   2.098   2.095  11.375  0.3600  0.1602  0.1640
14166TIP3   OH263988   0.100   0.271   4.209 -0.5436  0.2905 -0.2016
14166TIP3    H163989   0.041   0.266   4.134  1.6393  0.9928 -2.0834
14166TIP3    H263990   0.054   0.326   4.272 -2.9783 -1.3345 -0.4450
14167TIP3   OH263991   1.676   0.730   3.172  0.3418  0.4233  0.1125
14167TIP3    H163992   1.649   0.693   3.256  0.4564  0.2442  0.0709
14167TIP3    H263993   1.705   0.819   3.193  1.1151  0.1171  0.3871
14168TIP3   OH263994   6.968   4.390   4.035  0.1931 -0.2338  0.0994
14168TIP3    H163995   6.906   4.451   3.995  0.0636 -1.3331 -1.5038
14168TIP3    H263996   6.957   4.309   3.984  1.4212 -1.1139  1.1801
14169TIP3   OH263997   0.434   5.537   1.348 -0.4125  0.2432 -0.3419
14169TIP3    H163998   0.508   5.528   1.408 -0.8486 -0.1074  0.1625
14169TIP3    H263999   0.473   5.560   1.264  0.2880 -0.1872 -0.1447
14170TIP3   OH264000   7.135   3.513  15.353 -0.7888 -0.7216  0.0976
14170TIP3    H164001   7.102   3.594  15.313  0.0691 -0.8256 -0.8722
14170TIP3    H264002   7.058   3.457  15.362 -1.3566  0.1187  0.5838
14171TIP3   OH264003   1.656   6.076   2.063 -0.6725  0.4472 -0.4972
14171TIP3    H164004   1.573   6.070   2.016 -0.2918 -0.7634 -1.0741
14171TIP3    H264005   1.710   6.135   2.010 -0.0659 -1.3090 -1.9405
14172TIP3   OH264006   3.428   6.806  14.193 -0.0546  0.3465  0.0362
14172TIP3    H164007   3.423   6.728  14.138  1.3193  1.7811 -2.2696
14172TIP3    H264008   3.521   6.828  14.196 -0.4802  2.4680 -0.2813
14173TIP3   OH264009   2.472   5.575  12.471  0.5409 -0.1429  0.0654
14173TIP3    H164010   2.539   5.557  12.537  0.4176 -0.6255  0.0594
14173TIP3    H264011   2.416   5.498  12.472 -2.5664  1.8287  3.1562
14174TIP3   OH264012   2.921   0.479  14.550  0.2381 -0.2490  0.3462
14174TIP3    H164013   2.886   0.540  14.616  0.8962  0.3160  0.1858
14174TIP3    H264014   2.981   0.532  14.498  0.0562 -0.8003 -0.4416
14175TIP3   OH264015   4.147   2.404  13.807 -0.5288 -0.1960 -0.0271
14175TIP3    H164016   4.135   2.342  13.879  0.3570 -0.2995  0.0501
14175TIP3    H264017   4.074   2.465  13.814 -1.2082 -1.0095  0.1274
14176TIP3   OH264018   2.413   3.776   1.510 -0.2868  0.0639  0.2551
14176TIP3    H164019   2.423   3.682   1.496 -1.4590 -0.0507  0.0439
14176TIP3    H264020   2.424   3.787   1.605  1.8549  0.0235  0.0595
14177TIP3   OH264021   1.228   1.761   4.982  0.2164  0.6706  0.7003
14177TIP3    H164022   1.301   1.816   4.952  0.3796  0.7525  1.2338
14177TIP3    H264023   1.266   1.708   5.051  0.1138 -0.2843  0.0402
14178TIP3   OH264024   1.153   1.601   4.565 -0.3183  0.4333 -0.1775
14178TIP3    H164025   1.234   1.553   4.549 -0.4119  0.7180 -1.6418
14178TIP3    H264026   1.168   1.646   4.649  0.2996 -1.0006  0.5153
14179TIP3   OH264027   2.994   0.665   3.193  1.2388  0.6571  0.0090
14179TIP3    H164028   2.900   0.649   3.179  0.8547  2.4420  0.2815
14179TIP3    H264029   3.031   0.667   3.105  1.8981 -4.2462 -0.0553
14180TIP3   OH264030   5.297   6.906   4.274  0.2648 -0.1410 -0.5991
14180TIP3    H164031   5.211   6.882   4.309 -0.1523 -0.2009 -1.6320
14180TIP3    H264032   5.286   6.904   4.179  1.5669 -0.7085 -0.7620
14181TIP3   OH264033   3.843   5.280  14.443  0.2087 -0.1038 -0.0198
14181TIP3    H164034   3.894   5.356  14.471  2.1412 -0.6935 -1.6861
14181TIP3    H264035   3.847   5.219  14.517  1.2987  0.1927  0.1839
14182TIP3   OH264036   1.670   6.225   4.984  0.1389 -0.2885  0.3142
14182TIP3    H164037   1.649   6.285   4.913 -0.1781 -0.1363  0.5378
14182TIP3    H264038   1.655   6.276   5.064  1.7020 -0.0423  0.4804
14183TIP3   OH264039   5.502   2.934  14.007 -0.4068  0.1097  0.6906
14183TIP3    H164040   5.494   2.925  14.102  0.4634  0.3011  0.7884
14183TIP3    H264041   5.593   2.959  13.992 -1.0391  2.1518 -0.0510
14184TIP3   OH264042   5.213   1.099   4.390  0.2611 -0.3337  0.9450
14184TIP3    H164043   5.214   1.167   4.458  0.2380  1.1726 -0.5007
14184TIP3    H264044   5.128   1.109   4.347  0.8656 -0.2622 -0.2665
14185TIP3   OH264045   5.355   1.872   3.577 -0.9077 -0.4331 -0.0025
14185TIP3    H164046   5.400   1.918   3.648 -0.6832 -0.5857 -0.0449
14185TIP3    H264047   5.414   1.800   3.554 -1.5919 -1.1826  0.5578
14186TIP3   OH264048   3.124   2.489   5.204  0.1354 -0.1586 -0.6437
14186TIP3    H164049   3.108   2.576   5.169  0.9330  0.1763 -0.2159
14186TIP3    H264050   3.054   2.475   5.267  0.6889  0.6979  0.1913
14187TIP3   OH264051   1.562   0.119   9.711  0.0924  0.5691 -0.2538
14187TIP3    H164052   1.618   0.043   9.727 -1.6697 -0.6275  0.6210
14187TIP3    H264053   1.528   0.106   9.623  0.0321  0.5025 -0.2209
14188TIP3   OH264054   2.604   3.316   5.518 -0.5163  0.0367 -0.1794
14188TIP3    H164055   2.673   3.325   5.584 -0.1395  2.1831 -0.7789
14188TIP3    H264056   2.649   3.285   5.440 -0.3859  0.5030 -0.2942
14189TIP3   OH264057   3.868   4.148   5.377  0.5505  0.1655 -0.1323
14189TIP3    H164058   3.941   4.189   5.331  1.6436 -0.9724  0.5043
14189TIP3    H264059   3.808   4.220   5.397  0.5611  0.8566 -2.3043
14190TIP3   OH264060   3.925   3.800  10.112  0.1983  0.1711 -0.1629
14190TIP3    H164061   3.872   3.732  10.155 -0.6645  1.6270  1.2174
14190TIP3    H264062   4.004   3.806  10.166  0.1152  0.4822 -0.0720
14191TIP3   OH264063   5.993   7.159  15.148  0.5134 -0.2637  0.1843
14191TIP3    H164064   6.037   7.216  15.085  1.6405 -1.5184 -0.1996
14191TIP3    H264065   5.900   7.163  15.123  0.8366 -0.1450 -1.0936
14192TIP3   OH264066   2.398   4.587   1.971 -0.0589 -0.1811  0.8686
14192TIP3    H164067   2.486   4.575   2.007  0.3397 -1.0115 -0.3382
14192TIP3    H264068   2.350   4.631   2.041  1.5330  1.0365  1.2539
14193TIP3   OH264069   6.717   4.277  13.823  0.7190  0.4142  0.1108
14193TIP3    H164070   6.731   4.316  13.737  0.8315  0.8860  0.3401
14193TIP3    H264071   6.626   4.295  13.844  1.0410  1.4886  0.6705
14194TIP3   OH264072   2.603   2.262   4.949 -0.2091  0.5222 -0.2397
14194TIP3    H164073   2.519   2.304   4.927  0.1067  0.9120 -0.7162
14194TIP3    H264074   2.654   2.266   4.868 -0.8938 -2.6374 -0.9788
14195TIP3   OH264075   2.666   6.196   3.618 -0.2737  0.3241  0.5634
14195TIP3    H164076   2.705   6.259   3.678 -3.9413  2.0158  1.4553
14195TIP3    H264077   2.596   6.154   3.669 -0.2046 -2.0018 -1.0642
14196TIP3   OH264078   0.512   4.316  15.405  0.0614 -0.1971  0.6423
14196TIP3    H164079   0.553   4.230  15.404 -0.1132 -0.2780  0.2737
14196TIP3    H264080   0.584   4.377  15.423  0.2372 -0.3911  0.5962
14197TIP3   OH264081   1.451   3.935  11.408 -0.1593 -0.6937  0.1863
14197TIP3    H164082   1.460   3.853  11.360  1.2413 -1.3461  1.4822
14197TIP3    H264083   1.406   3.994  11.347 -0.3476 -2.1169 -1.1107
14198TIP3   OH264084   0.540   5.269   3.654 -0.4983 -0.2089 -0.3812
14198TIP3    H164085   0.576   5.328   3.587 -0.4494  0.7400  0.4664
14198TIP3    H264086   0.473   5.321   3.698  0.1541 -0.4736  0.9641
14199TIP3   OH264087   6.182   0.837   3.263  0.0927  0.0614  0.0496
14199TIP3    H164088   6.129   0.791   3.328  0.5226  1.1975  1.2487
14199TIP3    H264089   6.127   0.910   3.235  0.2364  0.0579 -0.2427
14200TIP3   OH264090   0.792   3.365  11.315  0.1331  0.1492 -0.0465
14200TIP3    H164091   0.830   3.400  11.234  0.0802 -0.6269 -0.4128
14200TIP3    H264092   0.830   3.278  11.324  1.1889  0.7208  1.5032
14201TIP3   OH264093   2.644   4.454   4.552 -0.1282  0.3035  0.3971
14201TIP3    H164094   2.675   4.371   4.516  0.5808  0.2596  1.0794
14201TIP3    H264095   2.675   4.454   4.642 -1.1282  0.8003  0.7595
14202TIP3   OH264096   4.640   6.901   0.941 -0.1047  0.4972  0.2788
14202TIP3    H164097   4.674   6.956   1.012 -1.1898  2.2083 -0.4423
14202TIP3    H264098   4.691   6.927   0.864 -1.0977  1.0614 -0.2193
14203TIP3   OH264099   2.232   0.543   3.151  0.2626  0.2189 -0.6579
14203TIP3    H164100   2.294   0.570   3.218  2.0932  0.3765 -2.3057
14203TIP3    H264101   2.173   0.481   3.194  0.1156  1.8006  1.5391
14204TIP3   OH264102   4.042   3.205   1.606 -0.3082 -0.0256 -0.3882
14204TIP3    H164103   4.121   3.152   1.610 -1.3271 -1.5217  0.6756
14204TIP3    H264104   3.997   3.190   1.689 -0.9077  2.1387 -0.2406
14205TIP3   OH264105   2.147   3.562  11.542  0.3259 -0.0968  0.2845
14205TIP3    H164106   2.139   3.510  11.462 -0.5378  0.7720 -0.2131
14205TIP3    H264107   2.224   3.617  11.526  0.1254  0.1105  0.0355
14206TIP3   OH264108   0.704   2.146   1.687  0.3065  0.2308  0.4800
14206TIP3    H164109   0.783   2.170   1.737 -0.9868 -0.1731  2.8729
14206TIP3    H264110   0.680   2.059   1.720 -0.0123 -0.6047 -1.7431
14207TIP3   OH264111   3.485   6.257   3.698 -0.0091  0.3303 -0.5962
14207TIP3    H164112   3.416   6.194   3.719  0.1349  0.5097  0.4553
14207TIP3    H264113   3.529   6.220   3.621  1.3217 -1.8597  1.1040
14208TIP3   OH264114   6.693   5.837  11.844 -0.7014  0.0431 -0.0526
14208TIP3    H164115   6.658   5.782  11.773 -2.0165  0.0579  0.5674
14208TIP3    H264116   6.679   5.927  11.814  1.0788  0.0934 -0.8834
14209TIP3   OH264117   0.463   2.046  14.028 -0.2898 -0.4344 -0.3236
14209TIP3    H164118   0.493   1.985  14.095 -2.0269 -0.7544  0.2155
14209TIP3    H264119   0.367   2.037  14.028 -0.4809  1.1482 -1.3323
14210TIP3   OH264120   0.404   4.300   3.205  0.1492 -0.1567  0.0267
14210TIP3    H164121   0.333   4.356   3.174 -0.3917 -1.0968 -0.4565
14210TIP3    H264122   0.467   4.361   3.245 -1.0247  0.6611  0.6809
14211TIP3   OH264123   0.537   3.461   4.167  0.2964 -0.2233  0.3149
14211TIP3    H164124   0.447   3.434   4.185  0.6967 -0.4871  2.0725
14211TIP3    H264125   0.535   3.489   4.075 -1.7450  0.4981  0.5154
14212TIP3   OH264126   1.750   2.498  12.699  0.5380 -0.4202  0.2996
14212TIP3    H164127   1.739   2.415  12.745 -0.4164 -1.4689 -1.7054
14212TIP3    H264128   1.790   2.475  12.616  1.5193  1.3219  0.2329
14213TIP3   OH264129   6.789   0.481   3.393  0.5655 -0.5086 -0.0202
14213TIP3    H164130   6.820   0.570   3.379  0.1328 -0.4021 -0.3067
14213TIP3    H264131   6.722   0.468   3.326  0.1075 -0.7962  0.4929
14214TIP3   OH264132   2.962   2.267   5.482  0.2841  0.1270 -0.0581
14214TIP3    H164133   3.048   2.250   5.442  0.5576 -0.8786  0.9037
14214TIP3    H264134   2.923   2.334   5.426  0.2984 -1.7614 -2.5395
14215TIP3   OH264135   1.353   2.556  14.967  0.1331  0.3897  0.1940
14215TIP3    H164136   1.336   2.632  14.912 -1.3691 -0.9179 -1.2587
14215TIP3    H264137   1.292   2.566  15.041 -1.9286 -0.5831 -1.2757
14216TIP3   OH264138   6.206   1.126   4.965 -0.3272 -0.1472 -0.1795
14216TIP3    H164139   6.167   1.208   4.996 -0.3997 -0.2900  0.1164
14216TIP3    H264140   6.225   1.077   5.046 -0.0807 -0.3278 -0.3460
14217TIP3   OH264141   2.560   7.045  13.148  0.3651 -0.0625  0.1289
14217TIP3    H164142   2.653   7.050  13.167  0.3371 -0.7653  0.4990
14217TIP3    H264143   2.531   6.965  13.192 -0.7550  1.0088  1.4151
14218TIP3   OH264144   6.166   5.764   4.839  0.2104 -0.6487 -0.5325
14218TIP3    H164145   6.152   5.810   4.756  1.4779  0.0545 -0.3950
14218TIP3    H264146   6.081   5.729   4.862 -0.4403  0.2303 -1.4985
14219TIP3   OH264147   1.386   4.933   6.256  0.5040  0.0772 -0.5781
14219TIP3    H164148   1.455   4.999   6.267 -0.5206  0.7182  3.0679
14219TIP3    H264149   1.321   4.977   6.201  1.0579  1.0802 -0.4638
14220TIP3   OH264150   4.031   3.833  14.129 -0.0628  0.5380 -0.4169
14220TIP3    H164151   3.992   3.919  14.118 -1.6451 -0.0676  0.1576
14220TIP3    H264152   4.023   3.814  14.222 -1.8730 -1.1379 -0.8274
14221TIP3   OH264153   0.915   4.043   2.663 -0.0858 -0.2343  0.3924
14221TIP3    H164154   0.927   4.124   2.713  0.3390 -0.8741  1.3528
14221TIP3    H264155   0.865   4.070   2.586 -0.6100  0.8073  1.0741
14222TIP3   OH264156   2.591   2.435  10.057  0.0301 -0.1452  0.4286
14222TIP3    H164157   2.563   2.366   9.997  0.6343  0.8827 -1.1099
14222TIP3    H264158   2.511   2.463  10.101 -0.7028  0.0462 -0.9642
14223TIP3   OH264159   3.097   1.925   2.835 -0.0210  0.2284 -0.4111
14223TIP3    H164160   3.040   1.850   2.856  0.3938  0.2440  0.8409
14223TIP3    H264161   3.039   1.988   2.793 -1.1907  0.6181  1.6466
14224TIP3   OH264162   3.892   0.618   1.018  0.0669  0.1009  0.4951
14224TIP3    H164163   3.925   0.666   0.942 -0.1795 -0.8240 -0.2116
14224TIP3    H264164   3.802   0.648   1.029  0.5173  1.2244  1.2596
14225TIP3   OH264165   2.410   3.569  13.433  0.0558  0.0498 -0.7203
14225TIP3    H164166   2.317   3.569  13.408 -0.1727  0.6818  0.0708
14225TIP3    H264167   2.428   3.479  13.459 -0.3730 -0.0494 -0.7573
14226TIP3   OH264168   3.143   2.325   4.221  0.2429  0.2278 -0.4366
14226TIP3    H164169   3.115   2.368   4.141  2.7661  1.4112 -0.7816
14226TIP3    H264170   3.215   2.268   4.194  0.1207 -0.5383  0.7639
14227TIP3   OH264171   6.882   0.491   4.065 -0.1570 -0.0057  0.2037
14227TIP3    H164172   6.915   0.576   4.034  2.5748 -1.4653 -1.2123
14227TIP3    H264173   6.925   0.478   4.149  0.2770 -0.4777 -0.0930
14228TIP3   OH264174   3.970   0.270   4.839 -0.6290 -0.5872 -0.4368
14228TIP3    H164175   3.955   0.253   4.746  0.3548 -1.0436 -0.5273
14228TIP3    H264176   4.028   0.200   4.867  0.7589  0.6943  0.0222
14229TIP3   OH264177   0.650   1.255   2.697  0.3369  0.1048 -0.6952
14229TIP3    H164178   0.581   1.321   2.700  0.7334  0.5367 -0.9224
14229TIP3    H264179   0.690   1.266   2.610  1.2513  0.4460 -0.2462
14230TIP3   OH264180   1.048   1.863   0.535  0.1964 -0.2272  0.2323
14230TIP3    H164181   0.975   1.812   0.571 -0.9668  1.7889  0.8948
14230TIP3    H264182   1.010   1.949   0.516  1.8089  0.0897 -1.9067
14231TIP3   OH264183   2.192   5.548   0.759 -0.1471 -0.1641 -0.1415
14231TIP3    H164184   2.234   5.466   0.733  1.4100  0.6339 -0.2643
14231TIP3    H264185   2.115   5.554   0.703 -0.0070 -1.2922 -0.4879
14232TIP3   OH264186   6.454   3.168  15.712 -0.2653 -0.1648  0.3081
14232TIP3    H164187   6.458   3.214  15.796  2.5341 -0.3703  0.3653
14232TIP3    H264188   6.447   3.238  15.647  1.3827  0.2702  0.5461
14233TIP3   OH264189   6.761   4.796  13.906 -0.1058 -0.9390  0.0920
14233TIP3    H164190   6.841   4.846  13.886 -0.1764 -1.1841 -0.8705
14233TIP3    H264191   6.726   4.773  13.820 -0.2267 -2.4156  0.5041
14234TIP3   OH264192   6.010   1.119  15.365 -0.0911  0.3345 -0.2587
14234TIP3    H164193   6.086   1.176  15.353  0.0211  0.7103  1.8831
14234TIP3    H264194   6.036   1.036  15.325  1.0775  0.7422 -0.3869
14235TIP3   OH264195   6.377   5.166   2.488  0.3483 -0.0309  0.1509
14235TIP3    H164196   6.351   5.245   2.536 -2.2587  0.2699 -1.5420
14235TIP3    H264197   6.448   5.195   2.431  0.6683  0.6360  0.8779
14236TIP3   OH264198   5.393   5.310   4.335  0.1684 -0.1965  0.0190
14236TIP3    H164199   5.361   5.253   4.405 -0.8651  1.4075  0.9186
14236TIP3    H264200   5.316   5.358   4.305  1.1560  1.5956  0.1494
14237TIP3   OH264201   1.807   2.371  15.421 -0.0213 -0.1586  0.1624
14237TIP3    H164202   1.818   2.279  15.396  2.4413  0.3496 -0.9676
14237TIP3    H264203   1.871   2.384  15.491 -0.9996  0.4986  0.9508
14238TIP3   OH264204   6.561   1.564   5.380 -0.0816 -0.6595  0.1357
14238TIP3    H164205   6.576   1.478   5.418 -2.1336 -1.1405 -0.0263
14238TIP3    H264206   6.516   1.613   5.449 -0.5674 -0.3368 -0.4057
14239TIP3   OH264207   2.816   1.519   4.009  0.9968 -0.3702 -0.0331
14239TIP3    H164208   2.782   1.569   3.935 -1.7590 -0.0597  1.3142
14239TIP3    H264209   2.902   1.556   4.026  1.2009  0.3483 -2.3042
14240TIP3   OH264210   6.772   5.196   5.019 -0.1081 -0.0785  0.4339
14240TIP3    H164211   6.808   5.237   4.941 -0.0186 -0.4815  0.2585
14240TIP3    H264212   6.724   5.120   4.987 -0.4671  0.0172  0.7338
14241TIP3   OH264213   4.183   0.306   2.436  0.0768 -0.1623 -0.3809
14241TIP3    H164214   4.154   0.334   2.350 -1.5909  0.0584  0.2148
14241TIP3    H264215   4.149   0.218   2.446 -0.1686 -0.0027  0.2406
14242TIP3   OH264216   6.034   5.999   3.035  0.1024  0.4711  0.3388
14242TIP3    H164217   6.045   5.930   2.969  0.7072  0.9278 -0.0446
14242TIP3    H264218   6.074   6.076   2.996 -0.5116  1.0345  0.7929
14243TIP3   OH264219   2.744   1.224   6.151  0.1031  0.8563  0.2700
14243TIP3    H164220   2.743   1.249   6.059 -1.6220  1.4261  0.4011
14243TIP3    H264221   2.662   1.259   6.186 -0.1428 -0.9127  1.6046
14244TIP3   OH264222   0.921   3.165   2.209 -0.0371 -0.4065 -0.6039
14244TIP3    H164223   0.991   3.169   2.144  1.3048  0.3562  0.8182
14244TIP3    H264224   0.949   3.097   2.270 -0.0276  0.5339  0.4848
14245TIP3   OH264225   1.304   0.152   4.632  0.2010 -0.6838 -0.3170
14245TIP3    H164226   1.303   0.068   4.585 -2.4703 -0.0121 -1.6381
14245TIP3    H264227   1.219   0.155   4.676  0.1696  1.4017 -0.4502
14246TIP3   OH264228   2.014   5.000   0.027 -0.0164  0.1628  0.0393
14246TIP3    H164229   1.924   5.012   0.059  0.2059 -0.9779  1.1834
14246TIP3    H264230   2.030   5.076  -0.029 -1.2898  1.0106  0.7710
14247TIP3   OH264231   6.848   0.562   2.858 -0.4153 -0.7753 -0.4471
14247TIP3    H164232   6.775   0.610   2.898 -1.1709 -2.2047 -0.0304
14247TIP3    H264233   6.819   0.545   2.769 -1.7652 -3.5052  0.4107
14248TIP3   OH264234   6.578   0.434   3.670 -0.2064 -0.1115 -0.7253
14248TIP3    H164235   6.540   0.370   3.610  0.5963 -0.3582 -0.9864
14248TIP3    H264236   6.626   0.382   3.734 -0.0448  0.1998 -0.5888
14249TIP3   OH264237   6.922   6.334   3.693  0.3861 -0.1776 -0.6146
14249TIP3    H164238   6.876   6.293   3.620 -1.2537  0.8834 -0.2373
14249TIP3    H264239   7.007   6.359   3.657 -0.0826 -0.3918 -1.9394
14250TIP3   OH264240   4.104   4.308   2.431  0.1415  0.4739  0.1783
14250TIP3    H164241   4.144   4.324   2.517 -2.0316 -0.2531  1.3996
14250TIP3    H264242   4.106   4.212   2.422 -0.3099  0.5013 -0.2256
14251TIP3   OH264243   2.479   1.596  12.247  0.1667  0.4545  0.4326
14251TIP3    H164244   2.453   1.554  12.166  2.4112 -0.8071  0.2865
14251TIP3    H264245   2.526   1.675  12.219 -0.1865  0.7172  0.5679
14252TIP3   OH264246   0.798   7.039  14.690 -0.0216  0.2767 -0.3293
14252TIP3    H164247   0.725   6.983  14.664  0.5928 -1.4953  1.4736
14252TIP3    H264248   0.819   7.010  14.779  2.4168  1.2143 -0.5370
14253TIP3   OH264249   3.327   0.871   1.795  0.2626  0.3232 -0.4697
14253TIP3    H164250   3.316   0.828   1.710 -0.5588  0.2316 -0.3215
14253TIP3    H264251   3.284   0.956   1.784  1.4037  0.9077 -0.5886
14254TIP3   OH264252   1.569   0.743   4.177  0.2234 -0.0726 -0.2211
14254TIP3    H164253   1.621   0.674   4.136 -1.4421 -0.4159 -1.8475
14254TIP3    H264254   1.481   0.730   4.144 -0.6837  1.2466  1.5208
14255TIP3   OH264255   1.242   6.897  14.788  0.2626  0.1183 -0.7189
14255TIP3    H164256   1.316   6.958  14.799 -1.3850  2.4572 -1.6656
14255TIP3    H264257   1.210   6.915  14.700 -2.0449 -0.0392  0.0309
14256TIP3   OH264258   0.624   2.104   3.808  0.2310 -0.4869 -0.8130
14256TIP3    H164259   0.536   2.142   3.804  0.4655  0.0728 -0.8164
14256TIP3    H264260   0.673   2.163   3.865 -0.1906 -2.4794  1.8157
14257TIP3   OH264261   0.915   0.329   4.250  0.2028  0.1637 -0.4932
14257TIP3    H164262   0.979   0.258   4.259 -0.0873  0.0888  1.4584
14257TIP3    H264263   0.836   0.285   4.219 -0.4405 -0.7237  2.1550
14258TIP3   OH264264   0.809   4.279   3.191  0.5312  0.3601  0.2439
14258TIP3    H164265   0.797   4.192   3.154  0.4810 -0.1977  1.5257
14258TIP3    H264266   0.769   4.338   3.127  0.1267 -0.5995 -0.4034
14259TIP3   OH264267   2.843   1.197  13.505  0.5863 -1.1397 -0.2359
14259TIP3    H164268   2.751   1.174  13.516 -0.2831  0.5283 -2.9976
14259TIP3    H264269   2.880   1.124  13.456 -0.4015 -0.0902 -2.7431
14260TIP3   OH264270   6.584   3.027   2.447  0.8573  0.4535  0.1119
14260TIP3    H164271   6.642   3.103   2.448  0.6517  0.6124  0.0901
14260TIP3    H264272   6.640   2.954   2.420  1.4407  0.2738  1.7191
14261TIP3   OH264273   5.281   1.663   1.835 -0.3356 -0.5922  0.0304
14261TIP3    H164274   5.281   1.567   1.840 -0.1830 -0.5553  0.9466
14261TIP3    H264275   5.196   1.688   1.871  0.6239 -0.3033  2.2081
14262TIP3   OH264276   3.153   4.806  13.565 -0.1925  0.6326 -0.3146
14262TIP3    H164277   3.142   4.858  13.644 -1.3794  1.4809 -0.9932
14262TIP3    H264278   3.244   4.821  13.539  1.1940 -2.0152  2.4317
14263TIP3   OH264279   3.795   0.490  15.414  0.1803  0.3590  0.1818
14263TIP3    H164280   3.765   0.426  15.350  1.1242  0.1337 -0.0491
14263TIP3    H264281   3.715   0.521  15.456 -0.5699  1.2156 -1.7508
14264TIP3   OH264282   3.545   3.002  12.490  0.1989  0.1034  0.4928
14264TIP3    H164283   3.543   3.026  12.398  0.8916  0.6585  0.6121
14264TIP3    H264284   3.486   3.063  12.533  0.1496  0.0753  0.4642
14265TIP3   OH264285   5.505   0.072   5.689  0.0258 -0.7939 -0.2951
14265TIP3    H164286   5.577   0.074   5.753  1.2996  0.9902 -1.6762
14265TIP3    H264287   5.518  -0.010   5.642 -0.1029 -1.4712  0.8107
14266TIP3   OH264288   2.222   6.701   2.508  0.2789  0.2755  0.1234
14266TIP3    H164289   2.157   6.770   2.496  0.9544  0.9905  0.4987
14266TIP3    H264290   2.171   6.620   2.506 -0.6627  0.8321  0.6281
14267TIP3   OH264291   2.885   6.462   5.279  0.4355  0.1464 -0.1124
14267TIP3    H164292   2.858   6.391   5.337  0.4257 -0.4260 -0.8126
14267TIP3    H264293   2.914   6.531   5.339  2.1625 -1.1003  0.5737
14268TIP3   OH264294   1.745   4.069   0.092  0.5963 -0.1615 -0.0915
14268TIP3    H164295   1.655   4.037   0.102  1.1472 -2.2343 -1.0594
14268TIP3    H264296   1.739   4.164   0.101 -1.7916 -0.1846 -0.8595
14269TIP3   OH264297   0.025   5.696   3.757  0.2517 -0.5511 -0.3961
14269TIP3    H164298   0.112   5.687   3.796  1.2317  2.2126 -1.6531
14269TIP3    H264299  -0.035   5.666   3.824  2.0864 -0.5445  1.3361
14270TIP3   OH264300   3.221   2.478   1.182  0.2506  0.0391 -0.0759
14270TIP3    H164301   3.227   2.568   1.149 -1.1325 -0.4995 -1.9464
14270TIP3    H264302   3.140   2.477   1.233  1.1742  0.2498  1.4851
14271TIP3   OH264303   0.141   5.523   3.165 -0.7926 -0.3630 -0.2222
14271TIP3    H164304   0.149   5.559   3.254 -2.4528 -0.1330 -0.1363
14271TIP3    H264305   0.174   5.434   3.173 -1.2035 -0.4454  0.7048
14272TIP3   OH264306   3.351   4.457   5.692 -0.4237  0.0348 -0.3413
14272TIP3    H164307   3.306   4.373   5.683 -2.6417  1.0567  0.5618
14272TIP3    H264308   3.407   4.445   5.769 -1.6490 -0.2524  0.5312
14273TIP3   OH264309   4.774   0.404   3.257 -0.3070  0.1303 -0.4417
14273TIP3    H164310   4.699   0.459   3.282 -1.3932  0.4735 -3.9209
14273TIP3    H264311   4.799   0.436   3.171  1.8756 -2.0590 -0.7070
14274TIP3   OH264312   2.455   2.124   1.631 -0.2934 -0.0209  0.2687
14274TIP3    H164313   2.505   2.042   1.636 -1.2248 -0.7895 -1.8935
14274TIP3    H264314   2.365   2.098   1.650 -0.7331  0.3100 -1.2530
14275TIP3   OH264315   0.907   1.513  15.010  0.5294  0.1362 -0.5554
14275TIP3    H164316   0.966   1.577  14.970 -0.4607  0.1481 -2.0907
14275TIP3    H264317   0.820   1.552  15.002  0.1281 -0.5259  0.3357
14276TIP3   OH264318   4.544   1.487   4.978  0.1856 -0.6147  0.1065
14276TIP3    H164319   4.588   1.472   5.062  0.5771 -1.1557 -0.1909
14276TIP3    H264320   4.456   1.516   5.003  0.9770  1.4465  0.7228
14277TIP3   OH264321   5.719   0.427   4.107 -0.3942  0.2456 -0.4333
14277TIP3    H164322   5.678   0.343   4.127 -0.0297  0.2359  0.3038
14277TIP3    H264323   5.653   0.492   4.132  0.2962  0.2585  1.4883
14278TIP3   OH264324   2.568   5.952   4.141  0.3807 -0.1877 -0.1432
14278TIP3    H164325   2.501   5.895   4.178  0.4702  0.5605  1.2551
14278TIP3    H264326   2.590   5.913   4.056 -0.4119 -1.5268  0.2475
14279TIP3   OH264327   1.817   3.197   4.019 -1.0330 -0.6816 -0.0716
14279TIP3    H164328   1.812   3.121   3.961 -0.7105 -1.0041  0.3133
14279TIP3    H264329   1.739   3.249   3.998 -0.2683 -0.1147 -1.7201
14280TIP3   OH264330   5.533   1.176   1.654 -0.2951 -0.0572  0.3445
14280TIP3    H164331   5.474   1.189   1.580 -2.2107  1.3753  1.9989
14280TIP3    H264332   5.580   1.259   1.662 -0.6047  0.0594  1.0971
14281TIP3   OH264333   4.205   6.933   2.449 -0.2031  0.0682 -0.0317
14281TIP3    H164334   4.167   6.877   2.381 -2.2089  0.5925  0.5831
14281TIP3    H264335   4.168   6.900   2.531  1.9372 -0.3585  0.8311
14282TIP3   OH264336   3.334   5.910   2.351 -0.2479  0.3167 -0.2895
14282TIP3    H164337   3.397   5.915   2.280  0.2407 -0.2117  0.0973
14282TIP3    H264338   3.284   5.831   2.334  0.3040 -0.1686  0.2956
14283TIP3   OH264339   7.137   1.704  12.894  0.4680  0.8533 -0.1987
14283TIP3    H164340   7.100   1.786  12.859 -0.2999  1.1119  1.1414
14283TIP3    H264341   7.066   1.641  12.888  0.7417  0.5547 -0.3161
14284TIP3   OH264342   3.034   3.918   5.489 -0.1773 -0.2294 -0.0983
14284TIP3    H164343   2.992   3.998   5.456  2.0245  0.4426 -1.4587
14284TIP3    H264344   3.044   3.932   5.583 -2.0350 -0.0186  0.1132
14285TIP3   OH264345   7.107   6.575  13.841 -0.9916  0.3392 -0.1670
14285TIP3    H164346   7.171   6.599  13.774 -1.5386 -0.1017 -0.8808
14285TIP3    H264347   7.097   6.653  13.895  0.2494  0.3582  0.0528
14286TIP3   OH264348   0.558   3.942   5.440 -0.5012  0.0764 -0.5138
14286TIP3    H164349   0.514   3.862   5.471 -0.3288  0.0612 -0.3086
14286TIP3    H264350   0.557   4.001   5.515 -0.8136  0.3481 -0.7271
14287TIP3   OH264351   5.733   5.875   5.682 -0.5468 -0.2168  0.1235
14287TIP3    H164352   5.717   5.841   5.770 -0.5611  1.2697  0.7422
14287TIP3    H264353   5.828   5.884   5.676 -0.5938  0.6713  0.4245
14288TIP3   OH264354   0.083   3.239   2.629  0.1683  0.2020 -0.5106
14288TIP3    H164355   0.059   3.294   2.555 -2.3078 -0.2929 -0.1560
14288TIP3    H264356   0.001   3.197   2.655  1.3985 -1.2959  1.1509
14289TIP3   OH264357   3.008   3.085   5.154  0.4834 -0.5481 -0.0424
14289TIP3    H164358   3.099   3.069   5.129  1.1660  1.1021  1.2660
14289TIP3    H264359   2.976   3.148   5.090  0.8733  0.3215  0.5996
14290TIP3   OH264360   5.158   5.616  11.020 -0.1737  0.8691 -0.3775
14290TIP3    H164361   5.094   5.594  11.088  0.8838 -1.3051 -0.0026
14290TIP3    H264362   5.164   5.712  11.023 -1.2925  0.9321  1.5281
14291TIP3   OH264363   6.361   6.589  11.534 -0.6684 -0.0476 -0.1809
14291TIP3    H164364   6.405   6.673  11.520 -1.1411 -0.1820 -2.8788
14291TIP3    H264365   6.320   6.598  11.621  1.6612  1.3760  0.8638
14292TIP3   OH264366   2.193   0.855   1.993 -0.3961  0.0573  0.4831
14292TIP3    H164367   2.100   0.860   2.014 -0.5446 -1.9792  0.5174
14292TIP3    H264368   2.196   0.844   1.898 -0.1856  0.2682  0.4638
14293TIP3   OH264369   0.386   5.984   4.455 -0.6061  0.1688  0.1369
14293TIP3    H164370   0.367   6.047   4.386 -2.5097 -0.8388 -0.3480
14293TIP3    H264371   0.361   5.899   4.417  0.1548 -0.6530  1.3914
14294TIP3   OH264372   1.589   1.012  14.489 -0.0023  0.2844  1.3976
14294TIP3    H164373   1.642   1.092  14.492  0.0620  0.4553 -1.4071
14294TIP3    H264374   1.516   1.029  14.548  0.7168  1.8778  1.8915
14295TIP3   OH264375   2.174   2.450  13.843  0.1389  0.2745 -0.6093
14295TIP3    H164376   2.240   2.519  13.842  0.4694 -0.0455 -1.5985
14295TIP3    H264377   2.122   2.464  13.764  0.7690 -1.1289 -1.3158
14296TIP3   OH264378   0.141   3.401  11.247  0.0750 -0.3266 -0.7167
14296TIP3    H164379   0.139   3.487  11.205  0.2059 -0.6482 -1.3979
14296TIP3    H264380   0.204   3.410  11.318 -0.0646  0.1974 -0.6606
14297TIP3   OH264381   4.943   5.954   5.411  0.6823  0.3722  0.4899
14297TIP3    H164382   4.889   6.032   5.423  1.8407  1.2734  0.0483
14297TIP3    H264383   5.003   5.954   5.486  1.0584  0.2365  0.1954
14298TIP3   OH264384   0.008   7.054   2.272  0.1300  0.0597  0.1754
14298TIP3    H164385  -0.017   7.078   2.361 -0.2346 -1.4301  0.5054
14298TIP3    H264386   0.059   6.973   2.283 -1.7172 -1.3580 -1.1006
14299TIP3   OH264387   3.104   4.328  15.564  0.2827  0.0163 -0.1212
14299TIP3    H164388   3.084   4.422  15.570 -1.2881 -0.2877 -0.1550
14299TIP3    H264389   3.198   4.325  15.546  0.2131  1.6055 -0.9620
14300TIP3   OH264390   7.040   6.051   4.285 -0.2522 -0.4583 -0.0925
14300TIP3    H164391   7.006   6.019   4.369 -1.5558 -2.4528 -1.2874
14300TIP3    H264392   6.972   6.111   4.254  0.0144 -0.0773  0.0530
14301TIP3   OH264393   0.269   2.519   4.563 -0.0036 -0.0235  0.1666
14301TIP3    H164394   0.252   2.528   4.656 -0.0052  1.1145  0.0718
14301TIP3    H264395   0.350   2.468   4.558 -0.8827 -1.5408  0.7220
14302TIP3   OH264396   2.373   5.490   5.466  0.4275 -0.4989 -0.1758
14302TIP3    H164397   2.421   5.556   5.515 -1.4249  1.1907 -0.4864
14302TIP3    H264398   2.370   5.524   5.376 -0.1796 -1.2282 -0.4423
14303TIP3   OH264399   3.585   3.754  15.149  0.0044 -1.1900 -0.2178
14303TIP3    H164400   3.644   3.722  15.081  2.0104  2.4644 -0.4846
14303TIP3    H264401   3.610   3.706  15.228  3.0325 -0.2621 -0.4823
14304TIP3   OH264402   3.173   4.711  13.935  0.2377  0.4009 -0.6027
14304TIP3    H164403   3.114   4.781  13.961 -0.8541 -0.4303 -0.7833
14304TIP3    H264404   3.258   4.738  13.969 -0.7627  0.1978  2.4111
14305TIP3   OH264405   5.216   4.206   0.540 -0.2313  0.7441 -0.5379
14305TIP3    H164406   5.232   4.218   0.446  2.1871 -0.7837 -0.4014
14305TIP3    H264407   5.283   4.260   0.582  0.1681 -0.3440  0.2566
14306TIP3   OH264408   0.953   6.122   1.803 -0.5592  0.3123  0.1421
14306TIP3    H164409   0.926   6.162   1.721  0.4432  0.2063 -0.2620
14306TIP3    H264410   0.892   6.049   1.815 -0.1014 -0.3003 -1.0529
14307TIP3   OH264411   2.284   4.629  13.997  0.3493  0.5446 -0.2548
14307TIP3    H164412   2.276   4.724  14.013 -0.4858  0.6232 -1.0578
14307TIP3    H264413   2.350   4.622  13.928 -0.3217  0.6254 -0.9179
14308TIP3   OH264414   6.277   5.210  15.567 -0.5496 -0.3022  0.0215
14308TIP3    H164415   6.262   5.227  15.474 -1.2625 -0.6885  0.0600
14308TIP3    H264416   6.362   5.165  15.570 -1.1164 -1.4755 -0.5845
14309TIP3   OH264417   0.221   3.544  15.556  0.0062 -0.5158  0.2695
14309TIP3    H164418   0.145   3.537  15.500 -0.5043  2.0654  0.5230
14309TIP3    H264419   0.187   3.579  15.639  1.4419  0.8661  0.3222
14310TIP3   OH264420   6.792   3.997   3.341  0.3586  0.3634 -0.2153
14310TIP3    H164421   6.800   4.028   3.251  0.6964 -0.0777 -0.3415
14310TIP3    H264422   6.781   3.902   3.332  0.3563  0.3228  0.2074
14311TIP3   OH264423   5.806   5.930   2.740 -0.3469  0.2032 -0.2618
14311TIP3    H164424   5.734   5.867   2.740  0.0256 -0.2274 -0.4273
14311TIP3    H264425   5.763   6.016   2.744 -0.8441 -0.0681  0.6953
14312TIP3   OH264426   4.868   0.695   3.837  0.5145  0.1694  0.0722
14312TIP3    H164427   4.806   0.678   3.908 -0.7187  0.2484 -0.9523
14312TIP3    H264428   4.822   0.669   3.757  2.3355 -1.1319 -0.6219
14313TIP3   OH264429   2.669   2.943   2.620 -0.4814 -0.0546 -0.1628
14313TIP3    H164430   2.687   2.915   2.530 -0.0820 -0.1194 -0.0680
14313TIP3    H264431   2.574   2.954   2.624 -0.4155  0.9002 -0.8710
14314TIP3   OH264432   5.727   6.511   4.616  0.4941  0.8519 -0.2085
14314TIP3    H164433   5.720   6.435   4.558  0.0040  0.9043 -0.2204
14314TIP3    H264434   5.791   6.485   4.681 -2.0916 -0.9468  1.8444
14315TIP3   OH264435   0.448   4.104  14.627 -0.4570  0.4865 -0.6604
14315TIP3    H164436   0.427   4.127  14.718 -0.6899  1.4706 -0.9563
14315TIP3    H264437   0.444   4.186  14.580  0.5823  0.1316 -1.4077
14316TIP3   OH264438   4.547   5.658  15.381  0.3054 -0.4376  0.1678
14316TIP3    H164439   4.630   5.622  15.413  0.2520 -0.7303 -0.0188
14316TIP3    H264440   4.547   5.748  15.412  0.6326 -0.4749  0.2862
14317TIP3   OH264441   6.141   4.961   4.203 -1.0618  0.0062  0.2683
14317TIP3    H164442   6.190   4.994   4.128 -1.1846  1.4577  0.7976
14317TIP3    H264443   6.054   4.941   4.168 -0.9559  0.1465 -0.0774
14318TIP3   OH264444   6.276   4.173   0.255 -0.2040 -0.2446  0.8191
14318TIP3    H164445   6.199   4.226   0.237 -0.1758 -0.4236  0.1666
14318TIP3    H264446   6.304   4.201   0.342 -2.2648 -1.6835  2.0403
14319TIP3   OH264447   7.070   1.875  15.138 -0.0877 -0.3300  0.2070
14319TIP3    H164448   7.143   1.860  15.078  0.1677 -0.3940  0.5276
14319TIP3    H264449   7.024   1.951  15.102 -0.5455 -1.0064 -0.6365
14320TIP3   OH264450   7.077   6.842  13.918 -0.6291  0.1248 -0.5587
14320TIP3    H164451   7.046   6.916  13.971  1.9500  0.9788 -0.0870
14320TIP3    H264452   7.113   6.882  13.839  0.9311 -0.5471 -0.2393
14321TIP3   OH264453   7.076   4.008  13.165  0.1881 -0.4460  0.1167
14321TIP3    H164454   6.987   3.980  13.189  0.7558 -1.0588  1.6063
14321TIP3    H264455   7.132   3.970  13.233  1.3759  1.6234  0.3501
14322TIP3   OH264456   4.739   4.548   9.824  0.0079 -0.2175  0.4661
14322TIP3    H164457   4.789   4.612   9.874 -1.0879 -0.0706  1.3877
14322TIP3    H264458   4.723   4.591   9.740  0.4481  0.1765  0.5780
14323TIP3   OH264459   0.914   3.320  14.945 -0.1703  0.4363 -0.1501
14323TIP3    H164460   0.947   3.260  14.878  0.8824  1.6826 -0.7820
14323TIP3    H264461   0.918   3.406  14.904  0.9396  1.2955  1.6459
14324TIP3   OH264462   6.922   5.628   3.917  0.1728  0.3598  0.1308
14324TIP3    H164463   6.865   5.695   3.880 -0.1081 -0.3950 -0.8424
14324TIP3    H264464   6.900   5.549   3.869  2.3913  0.1541 -0.6400
14325TIP3   OH264465   0.061   2.235   2.798 -0.3974  0.1854 -0.0775
14325TIP3    H164466   0.059   2.144   2.771 -0.9735 -0.3064  1.5250
14325TIP3    H264467   0.073   2.284   2.716 -1.5026 -1.2286 -1.1393
14326TIP3   OH264468   3.944   4.565  15.016 -0.6450 -0.2822  0.3258
14326TIP3    H164469   3.851   4.585  15.018 -0.4619  0.5989  1.7610
14326TIP3    H264470   3.955   4.492  15.077 -0.3851 -0.3471  0.2059
14327TIP3   OH264471   1.079   5.403  11.031 -0.2301 -0.3392  0.5931
14327TIP3    H164472   1.042   5.413  10.943  0.9095 -0.3900  0.0792
14327TIP3    H264473   1.052   5.482  11.078  0.5969  0.5499 -0.3665
14328TIP3   OH264474   2.856   3.313   9.920  0.0923 -0.6932 -0.1320
14328TIP3    H164475   2.866   3.220   9.900  1.5252 -0.2736 -1.5339
14328TIP3    H264476   2.789   3.315   9.988 -1.5123 -2.6000 -1.5149
14329TIP3   OH264477   1.013   5.382   4.815  0.8465 -0.3170  0.2821
14329TIP3    H164478   0.990   5.460   4.765  1.5207  0.6301  1.4011
14329TIP3    H264479   1.098   5.355   4.780  0.9860 -0.0762  0.4341
14330TIP3   OH264480   3.765   1.681   0.747 -0.2877  0.2427 -0.2192
14330TIP3    H164481   3.767   1.724   0.832  0.9894  0.4361 -0.3338
14330TIP3    H264482   3.737   1.750   0.686 -1.0086  0.1545 -0.0010
14331TIP3   OH264483   3.210   5.393   1.470 -0.2094 -0.2985 -0.4658
14331TIP3    H164484   3.303   5.409   1.483  0.0576 -2.1212  0.2016
14331TIP3    H264485   3.172   5.479   1.453  1.3590  0.6611  0.6940
14332TIP3   OH264486   4.562   1.842   5.742 -0.8658 -0.3585 -0.3558
14332TIP3    H164487   4.556   1.860   5.648 -1.0877  2.3956  0.0973
14332TIP3    H264488   4.493   1.895   5.781  2.0335  2.2788  1.7096
14333TIP3   OH264489   1.503   6.843   3.086 -0.4873 -0.3228  0.0788
14333TIP3    H164490   1.447   6.917   3.061  0.3640  0.3557  0.0947
14333TIP3    H264491   1.444   6.778   3.122 -1.4650 -0.2905 -1.3740
14334TIP3   OH264492   5.275   5.908   4.718 -0.4013 -0.4611 -0.1034
14334TIP3    H164493   5.212   5.907   4.791  0.0053  0.5040  0.2756
14334TIP3    H264494   5.224   5.940   4.644 -0.1347  1.4209  0.4627
14335TIP3   OH264495   0.077   3.841   1.297 -0.4156  0.1425 -0.0812
14335TIP3    H164496   0.054   3.913   1.356  0.7366  0.6789 -0.2626
14335TIP3    H264497   0.002   3.781   1.302 -0.6997  0.5756  1.2919
14336TIP3   OH264498   0.949   6.947  13.483 -0.1358 -0.3727 -0.1268
14336TIP3    H164499   0.983   7.036  13.479  0.1196 -0.4267  0.6012
14336TIP3    H264500   1.027   6.891  13.481 -0.3431 -0.6856 -2.4299
14337TIP3   OH264501   1.104   5.934   1.062  0.2515 -0.8283 -0.1060
14337TIP3    H164502   1.011   5.948   1.046  0.0902 -0.5398  0.9807
14337TIP3    H264503   1.107   5.889   1.147  1.1495  0.7718  0.7700
14338TIP3   OH264504   1.021   3.208   1.948 -0.1089  0.3794 -0.2400
14338TIP3    H164505   1.039   3.235   1.858  0.8082 -0.6415 -0.3904
14338TIP3    H264506   0.928   3.185   1.949  0.0152 -0.2094 -1.1090
14339TIP3   OH264507   4.672   1.273  12.323 -0.2735 -0.1277  0.1291
14339TIP3    H164508   4.620   1.195  12.305 -0.0629  0.1949 -2.2380
14339TIP3    H264509   4.617   1.346  12.295 -0.6280  0.6625  2.7009
14340TIP3   OH264510   4.656   6.566   5.044  0.1075 -0.5105  0.3636
14340TIP3    H164511   4.621   6.620   5.115 -0.2715 -1.2946  0.7974
14340TIP3    H264512   4.731   6.521   5.083  0.4430 -0.2702 -0.0006
14341TIP3   OH264513   3.528   2.133   1.245 -0.1542  0.1847  0.0479
14341TIP3    H164514   3.556   2.045   1.269  0.0571 -0.4015 -2.1321
14341TIP3    H264515   3.439   2.140   1.279 -0.6023 -1.3219 -0.7682
14342TIP3   OH264516   4.270   5.866   3.353  0.4923 -0.1296 -0.6945
14342TIP3    H164517   4.224   5.825   3.426 -1.0754  0.8174 -1.1233
14342TIP3    H264518   4.304   5.948   3.389  0.7438 -0.2132 -0.7351
14343TIP3   OH264519   2.896   5.328   5.252 -0.4097  0.1468  0.8058
14343TIP3    H164520   2.895   5.369   5.165  0.2158 -0.1805  0.6415
14343TIP3    H264521   2.808   5.342   5.286 -1.1678 -1.1017 -0.5283
14344TIP3   OH264522   4.923   0.968  14.705 -0.4875  0.3258  0.5002
14344TIP3    H164523   4.942   1.061  14.718 -2.1582  0.7769 -0.0454
14344TIP3    H264524   4.841   0.967  14.655 -1.1022 -1.4351  1.4505
14345TIP3   OH264525   2.157   0.529   1.287 -0.0207  0.2082  0.7491
14345TIP3    H164526   2.180   0.440   1.261  1.6006  0.3844  1.4402
14345TIP3    H264527   2.204   0.586   1.226 -1.9508  0.6347 -0.4155
14346TIP3   OH264528   3.213   6.810   0.062 -0.2659  0.0821 -0.1471
14346TIP3    H164529   3.188   6.770  -0.022  2.3711  1.3662 -1.6729
14346TIP3    H264530   3.156   6.886   0.070 -1.7181 -0.9951  0.1482
14347TIP3   OH264531   1.172   5.913  15.008  0.2061  0.4597 -0.3347
14347TIP3    H164532   1.153   5.829  15.050 -0.4608 -0.1787 -1.8552
14347TIP3    H264533   1.087   5.956  15.000 -0.0702 -0.4346 -3.0554
14348TIP3   OH264534   3.351   0.149  12.573  0.7158  0.2176  0.0345
14348TIP3    H164535   3.433   0.152  12.523  0.7716 -1.3189 -0.0295
14348TIP3    H264536   3.350   0.061  12.612 -1.0632  0.0695 -0.2466
14349TIP3   OH264537   2.833   2.744  12.037  0.7350  0.1443 -0.1555
14349TIP3    H164538   2.784   2.816  12.076 -0.4534 -0.7162 -0.0225
14349TIP3    H264539   2.835   2.765  11.943 -2.1423 -1.0344 -0.5728
14350TIP3   OH264540   6.920   5.614  12.559  0.0082  0.4930  0.3365
14350TIP3    H164541   6.865   5.689  12.536 -1.0399 -0.9243 -2.1736
14350TIP3    H264542   6.861   5.552  12.601  0.7094  0.7360  1.7345
14351TIP3   OH264543   1.136   5.002  12.037  0.2353  0.3311  0.2524
14351TIP3    H164544   1.069   4.972  11.976  0.7345 -0.1849 -0.0560
14351TIP3    H264545   1.098   4.989  12.124  0.3845 -1.0954  0.1222
14352TIP3   OH264546   4.277   3.893  11.894  0.0814  0.4396 -0.2827
14352TIP3    H164547   4.196   3.935  11.923 -0.5191 -0.1881 -1.0295
14352TIP3    H264548   4.346   3.954  11.920 -0.6230  0.9792  0.3670
14353TIP3   OH264549   3.439   7.078  10.546 -0.1287 -0.0640  0.5941
14353TIP3    H164550   3.410   7.023  10.620 -2.9751 -0.7114 -0.8786
14353TIP3    H264551   3.432   7.020  10.470 -2.2678  1.9641 -0.8760
14354TIP3   OH264552   1.890   5.322  15.289 -0.1857  0.3769 -0.1926
14354TIP3    H164553   1.848   5.340  15.205 -0.3537 -4.5580 -1.4683
14354TIP3    H264554   1.817   5.311  15.350 -0.1533  1.9278  0.1581
14355TIP3   OH264555   0.118   0.828  12.320 -0.0471  0.4299 -0.5526
14355TIP3    H164556   0.030   0.832  12.356 -0.3463  0.2776 -1.2494
14355TIP3    H264557   0.172   0.792  12.391 -0.5641  0.4058 -0.1692
14356TIP3   OH264558   1.967   6.745   4.637 -0.1454  0.0002 -0.1003
14356TIP3    H164559   2.023   6.818   4.664  2.1241 -0.8459 -2.1189
14356TIP3    H264560   1.961   6.754   4.542 -1.5197 -1.3221 -0.1789
14357TIP3   OH264561   2.280   3.144   5.675 -0.1950 -0.5207 -0.3810
14357TIP3    H164562   2.301   3.061   5.716 -1.5845 -0.5070  0.4286
14357TIP3    H264563   2.286   3.208   5.746 -2.2469 -0.4375 -0.2240
14358TIP3   OH264564   0.491   3.324   5.535  0.3430 -0.0802 -0.1029
14358TIP3    H164565   0.542   3.405   5.529  0.6783 -0.3951 -2.7899
14358TIP3    H264566   0.412   3.343   5.484 -0.7120 -0.6976  1.2505
14359TIP3   OH264567   2.226   0.977   9.985  0.3919 -0.1153  0.2872
14359TIP3    H164568   2.242   0.899   9.931 -0.3518 -0.0584 -0.0246
14359TIP3    H264569   2.275   1.046   9.940 -1.1308  0.1878 -1.0072
14360TIP3   OH264570   2.795   6.493  10.643 -0.1430  0.1595  0.2127
14360TIP3    H164571   2.885   6.477  10.671  0.0503 -3.2373 -1.7369
14360TIP3    H264572   2.741   6.450  10.709 -0.0914 -1.0628 -0.5166
14361TIP3   OH264573   6.771   0.208   3.464  0.1948  0.5798 -0.4047
14361TIP3    H164574   6.779   0.300   3.439 -2.2479  0.7905 -0.6605
14361TIP3    H264575   6.677   0.190   3.460  0.3418 -1.2779  1.9290
14362TIP3   OH264576   5.104   4.490   1.398 -0.2479 -0.1220 -0.5790
14362TIP3    H164577   5.156   4.549   1.344  0.4263  0.2503  0.4404
14362TIP3    H264578   5.020   4.536   1.410 -1.0534 -0.9539 -2.6492
14363TIP3   OH264579   2.537   6.262   0.475  0.1618 -0.3407 -0.2350
14363TIP3    H164580   2.505   6.351   0.460 -0.6986 -0.5927  0.0280
14363TIP3    H264581   2.599   6.270   0.547 -0.3931 -0.0432  0.2151
14364TIP3   OH264582   4.835   3.778   5.313 -0.0371  0.4345 -0.4305
14364TIP3    H164583   4.748   3.811   5.335 -0.9513 -2.7136  1.3075
14364TIP3    H264584   4.879   3.770   5.398  2.0631  2.0597 -1.2840
14365TIP3   OH264585   2.174   6.459   5.046 -0.5135 -0.0254  0.7412
14365TIP3    H164586   2.166   6.514   4.969 -0.3578 -0.6200  0.2973
14365TIP3    H264587   2.142   6.513   5.118  1.6757  1.4656  0.6940
14366TIP3   OH264588   2.013   6.450  11.289 -0.5153 -0.4093  0.1782
14366TIP3    H164589   2.066   6.380  11.328  1.0409  0.8382  0.4445
14366TIP3    H264590   2.012   6.431  11.196  0.9465 -0.1778  0.0868
14367TIP3   OH264591   2.687   0.507   4.931  0.2193 -0.2932 -0.5697
14367TIP3    H164592   2.690   0.438   4.997 -0.2785 -0.4070 -0.6656
14367TIP3    H264593   2.682   0.460   4.847 -2.2162 -0.1733 -0.5543
14368TIP3   OH264594   5.340   3.252  12.891  0.1874 -0.0539 -0.5762
14368TIP3    H164595   5.258   3.207  12.871  0.2136  0.2083 -1.3193
14368TIP3    H264596   5.325   3.291  12.977 -0.9885  1.1520 -1.2867
14369TIP3   OH264597   2.271   4.134  14.180  0.2968 -0.3179 -0.2332
14369TIP3    H164598   2.330   4.205  14.155 -0.8891  1.1086  0.8378
14369TIP3    H264599   2.185   4.176  14.190 -0.1042 -1.5021  2.2031
14370TIP3   OH264600   3.357   1.534   5.493  0.3748  0.5995  0.7828
14370TIP3    H164601   3.411   1.543   5.572 -0.6858 -0.0106  1.5968
14370TIP3    H264602   3.276   1.580   5.514 -0.5021 -0.8235  0.6255
14371TIP3   OH264603   3.909   5.210  12.120 -0.3697  0.7050 -0.2398
14371TIP3    H164604   3.917   5.208  12.024  0.5716 -1.8689 -0.2047
14371TIP3    H264605   3.819   5.183  12.136 -0.3926  0.6828 -0.3973
14372TIP3   OH264606   2.460   6.659   3.569  0.0735  0.1837  0.1297
14372TIP3    H164607   2.398   6.707   3.514 -0.3993  0.1668  0.6413
14372TIP3    H264608   2.479   6.580   3.519 -0.4711  0.0954  0.0584
14373TIP3   OH264609   5.728   5.120  10.744  0.2961 -0.3475 -0.1375
14373TIP3    H164610   5.765   5.206  10.767 -0.5575  0.4720 -1.6976
14373TIP3    H264611   5.743   5.112  10.650 -0.6896 -1.4066 -0.2156
14374TIP3   OH264612   4.547   6.900   4.166  0.1416  0.4467  0.2460
14374TIP3    H164613   4.492   6.886   4.243 -0.2754  1.2664  0.1023
14374TIP3    H264614   4.637   6.885   4.197  0.0863  1.9307  1.1888
14375TIP3   OH264615   4.226   7.057  12.031 -0.0982  0.5004 -0.4066
14375TIP3    H164616   4.234   7.117  12.106 -0.4606 -1.0152  0.8913
14375TIP3    H264617   4.162   6.992  12.059  0.3230 -0.5435 -1.7685
14376TIP3   OH264618   6.422   3.008   4.721 -0.7867  0.3607  0.6036
14376TIP3    H164619   6.466   3.090   4.700  0.1510  0.3491  2.3005
14376TIP3    H264620   6.460   2.944   4.661  2.0564  0.2378  2.3038
14377TIP3   OH264621   6.076   4.821   2.732  0.0975 -0.2228 -0.0728
14377TIP3    H164622   6.044   4.867   2.809  4.3468  0.9405  1.2810
14377TIP3    H264623   6.058   4.880   2.659 -0.8207  0.2953  0.5617
14378TIP3   OH264624   0.143   5.648  14.688 -0.5215  0.0154  0.3776
14378TIP3    H164625   0.195   5.679  14.762  0.7001  1.2672 -0.9110
14378TIP3    H264626   0.173   5.559  14.672  0.1288  0.1865  0.6235
14379TIP3   OH264627   6.343   2.966  15.001 -0.4211 -0.1337 -0.1135
14379TIP3    H164628   6.334   2.957  14.906  0.8697 -0.6516 -0.2080
14379TIP3    H264629   6.312   2.882  15.036 -0.1472 -0.2387 -0.1265
14380TIP3   OH264630   4.675   1.624  12.939 -0.0085  0.1242  0.1807
14380TIP3    H164631   4.738   1.554  12.952  0.2632  0.5125  1.0268
14380TIP3    H264632   4.697   1.689  13.005  0.2942  1.4011 -1.1135
14381TIP3   OH264633   4.406   4.832   3.627  0.0552 -0.4562  0.2818
14381TIP3    H164634   4.314   4.812   3.608  0.1200 -0.9275  0.4681
14381TIP3    H264635   4.403   4.879   3.711  0.0056 -0.7132  0.4263
14382TIP3   OH264636   2.011   2.666  13.610 -0.3942  0.6634  0.0361
14382TIP3    H164637   1.961   2.647  13.531 -1.3108  2.6318  0.0755
14382TIP3    H264638   2.073   2.734  13.583 -0.4053  1.0199  0.8845
14383TIP3   OH264639   1.304   6.260   2.449 -0.4416 -0.0153 -0.2185
14383TIP3    H164640   1.241   6.248   2.379  0.7246 -0.9877 -1.1378
14383TIP3    H264641   1.327   6.172   2.477  0.4025  0.3182  0.1997
14384TIP3   OH264642   5.048   4.318  14.202 -0.3837  0.1012  0.1556
14384TIP3    H164643   5.110   4.383  14.169  0.5649 -0.2713  1.1541
14384TIP3    H264644   4.962   4.350  14.174 -0.0296  2.2342  1.2928
14385TIP3   OH264645   0.317   4.134   2.693  0.2129 -0.2597 -0.4823
14385TIP3    H164646   0.345   4.169   2.777  1.5667 -1.6089 -0.3123
14385TIP3    H264647   0.240   4.185   2.669 -0.1194  0.2347  1.5019
14386TIP3   OH264648   0.763   2.188  13.622  0.2347  0.3515  0.1306
14386TIP3    H164649   0.753   2.281  13.602 -0.0241  0.2694 -0.1334
14386TIP3    H264650   0.707   2.173  13.698 -1.0915  0.0629 -0.8558
14387TIP3   OH264651   2.739   6.511   5.637 -0.3585 -0.2913 -0.3620
14387TIP3    H164652   2.775   6.436   5.684 -1.5473 -0.0556  0.9836
14387TIP3    H264653   2.757   6.586   5.693  3.8634  1.1648 -3.1496
14388TIP3   OH264654   3.393   5.486  13.579 -0.6237  0.1902 -0.7578
14388TIP3    H164655   3.483   5.454  13.580  0.4345  2.8693  0.1230
14388TIP3    H264656   3.365   5.483  13.671 -1.1483  0.0747 -0.9188
14389TIP3   OH264657   1.194   2.931  15.448  0.5118 -0.1239 -0.5695
14389TIP3    H164658   1.277   2.886  15.430  0.6561  0.3228 -1.0620
14389TIP3    H264659   1.139   2.910  15.373  0.9780  1.4332 -1.3926
14390TIP3   OH264660   4.312   6.026   4.517  0.0214 -0.6372 -0.0644
14390TIP3    H164661   4.280   6.109   4.482 -0.5190  0.9724  3.7510
14390TIP3    H264662   4.233   5.973   4.528  0.2322 -1.2795 -1.4624
14391TIP3   OH264663   6.397   2.761  11.019 -0.2614 -0.3664 -0.7231
14391TIP3    H164664   6.352   2.708  10.953 -1.8935 -2.6021  1.9528
14391TIP3    H264665   6.327   2.804  11.067  0.9631  2.5355 -1.3390
14392TIP3   OH264666   1.992   7.037   9.850  0.7847  0.3410 -0.4075
14392TIP3    H164667   2.074   6.989   9.840  0.3317 -0.5578  0.0847
14392TIP3    H264668   2.013   7.106   9.913  1.4059  0.7384 -1.0289
14393TIP3   OH264669   0.209   3.455   2.769 -0.0160 -0.3598 -0.2901
14393TIP3    H164670   0.161   3.376   2.745  0.3337 -0.6614 -0.0232
14393TIP3    H264671   0.208   3.509   2.691 -1.3796 -0.0547 -0.0867
14394TIP3   OH264672   6.199   3.004   4.960  0.1566 -0.2082  0.5403
14394TIP3    H164673   6.128   2.947   4.930  0.6731  0.0809 -1.3396
14394TIP3    H264674   6.246   3.029   4.880  2.3617 -0.3459  1.7054
14395TIP3   OH264675   3.381   0.990   5.144 -0.2328  0.1929  0.0390
14395TIP3    H164676   3.394   0.932   5.219  1.6671  1.7991  1.0704
14395TIP3    H264677   3.455   0.970   5.086  0.1571  1.2066  0.1722
14396TIP3   OH264678   5.930   2.059   1.363 -0.0116  0.1071 -0.4472
14396TIP3    H164679   6.008   2.063   1.309  0.7954 -1.4673  0.5449
14396TIP3    H264680   5.961   2.075   1.452 -1.1735  1.6859 -0.2737
14397TIP3   OH264681   4.542   3.574  14.782 -0.2843 -0.3686 -0.9272
14397TIP3    H164682   4.504   3.569  14.870  2.1120  1.8190  0.3769
14397TIP3    H264683   4.466   3.582  14.724 -1.9252  0.5537  1.1759
14398TIP3   OH264684   5.319   0.353   4.002 -0.1323 -0.4852 -1.1990
14398TIP3    H164685   5.314   0.297   3.925  1.9091  0.0363 -1.7661
14398TIP3    H264686   5.278   0.435   3.976 -1.0336 -0.9083 -1.1315
14399TIP3   OH264687   4.412   0.040   4.463  0.5665  0.0929  0.0334
14399TIP3    H164688   4.374  -0.024   4.523 -0.1809 -0.3947 -0.9379
14399TIP3    H264689   4.412   0.122   4.512  2.4789 -0.7817  1.7042
14400TIP3   OH264690   2.376   1.156   3.805 -0.4203  0.1748 -0.4927
14400TIP3    H164691   2.463   1.195   3.808 -0.6695  0.6624  1.2995
14400TIP3    H264692   2.316   1.228   3.828 -1.4229  0.0868 -2.5547
14401TIP3   OH264693   3.181   0.607   2.681 -0.0520 -0.1074 -0.4998
14401TIP3    H164694   3.245   0.670   2.650 -0.5328  0.3448 -0.5912
14401TIP3    H264695   3.117   0.601   2.611 -0.2451 -0.3556 -0.3044
14402TIP3   OH264696   2.962   2.648   1.228  0.1440  0.3347 -0.4621
14402TIP3    H164697   2.920   2.570   1.265 -1.7445  1.3019 -0.4642
14402TIP3    H264698   2.991   2.620   1.141 -1.7220 -0.0372 -1.0016
14403TIP3   OH264699   3.200   7.101   4.032  0.7016  0.3830 -0.2051
14403TIP3    H164700   3.290   7.097   4.065  0.1401 -0.5850  1.3637
14403TIP3    H264701   3.146   7.100   4.111 -0.6855  2.1056 -1.0811
14404TIP3   OH264702   5.448   0.140   3.883  0.3457 -0.3907  0.3536
14404TIP3    H164703   5.403   0.087   3.817 -3.0946  1.3301  1.1154
14404TIP3    H264704   5.414   0.109   3.967  2.5180 -0.6275  1.2313
14405TIP3   OH264705   0.438   4.886   5.605  0.5246  0.1998 -0.6396
14405TIP3    H164706   0.380   4.949   5.564 -1.7233 -0.9209  0.6161
14405TIP3    H264707   0.503   4.939   5.651 -0.2570  1.5448 -1.0455
14406TIP3   OH264708   4.729   1.504   2.429  0.3083  0.0296  0.4175
14406TIP3    H164709   4.655   1.564   2.430  0.6642  0.4960 -0.5573
14406TIP3    H264710   4.726   1.462   2.515 -0.3097  0.9811  0.8778
14407TIP3   OH264711   0.374   0.590   2.122 -0.1455 -0.0496  0.3265
14407TIP3    H164712   0.457   0.601   2.076 -0.8053  2.5612 -0.4119
14407TIP3    H264713   0.315   0.553   2.056 -0.2549  0.6387  0.0333
14408TIP3   OH264714   0.014   1.973   2.678  0.2593 -0.3600  0.0050
14408TIP3    H164715   0.026   1.994   2.586  2.4690 -1.4146 -0.0083
14408TIP3    H264716  -0.061   1.914   2.681 -1.1068  1.2471 -0.8297
14409TIP3   OH264717   1.111   2.070   3.606  0.1385 -0.0307 -0.3192
14409TIP3    H164718   1.086   1.990   3.560  1.0385 -1.6044  1.7833
14409TIP3    H264719   1.070   2.062   3.693  0.9773  1.3737  0.2441
14410TIP3   OH264720   0.186   1.941   3.778  0.8261 -0.2566  0.0636
14410TIP3    H164721   0.108   1.921   3.830  0.9023 -0.9460 -0.0789
14410TIP3    H264722   0.167   1.905   3.692  1.5423 -0.9835  0.1951
14411TIP3   OH264723   4.957   4.069   2.501 -0.2353  0.6548  0.1208
14411TIP3    H164724   4.967   4.027   2.416  0.3838  1.2663 -0.1158
14411TIP3    H264725   5.047   4.082   2.532 -0.3772  2.5378 -0.1796
14412TIP3   OH264726   1.885   5.864   3.900  0.2213 -0.2782  0.5450
14412TIP3    H164727   1.790   5.864   3.902  0.2044  0.8297  1.6879
14412TIP3    H264728   1.909   5.804   3.830 -1.3145 -0.4856  0.1779
14413TIP3   OH264729   6.214   0.441   2.170 -0.4509  0.6534 -0.4311
14413TIP3    H164730   6.273   0.458   2.096 -0.4327 -1.3837 -0.9566
14413TIP3    H264731   6.232   0.350   2.194  0.3210  1.5358  2.8534
14414TIP3   OH264732   1.665   5.165  15.411 -0.0390  0.4730 -0.0723
14414TIP3    H164733   1.594   5.167  15.347 -1.4720 -2.1306  1.2929
14414TIP3    H264734   1.704   5.078  15.401  1.6968  1.1380  0.5709
14415TIP3   OH264735   4.626   0.671  10.406  0.0261 -0.5172  0.2163
14415TIP3    H164736   4.674   0.666  10.489 -0.1792  0.4740  0.4116
14415TIP3    H264737   4.688   0.638  10.340  1.9554  2.9119  0.0905
14416TIP3   OH264738   0.737   4.504  15.411  0.0455 -0.2327  0.2225
14416TIP3    H164739   0.778   4.565  15.350  0.9962 -0.8500  0.2297
14416TIP3    H264740   0.774   4.526  15.496 -0.2545 -0.2634  0.3626
14417TIP3   OH264741   6.997   0.632  14.276 -0.1645  0.1375  0.1454
14417TIP3    H164742   7.021   0.614  14.185 -2.5259  0.5643 -0.6486
14417TIP3    H264743   7.050   0.708  14.301  0.9053 -0.3295 -0.6920
14418TIP3   OH264744   6.121   5.975   3.929 -0.2152  0.2201  0.0937
14418TIP3    H164745   6.079   5.950   4.011  0.1716 -1.2177 -0.1186
14418TIP3    H264746   6.050   5.976   3.865 -0.0468 -1.9472 -0.2126
14419TIP3   OH264747   3.035   3.782  12.244  0.0084  0.5118  0.2123
14419TIP3    H164748   2.969   3.802  12.178 -0.0074  0.4536  0.2106
14419TIP3    H264749   3.118   3.794  12.198  0.0014 -1.2341 -0.3315
14420TIP3   OH264750   3.077   6.647   0.283 -0.2770  0.3045  0.0242
14420TIP3    H164751   3.059   6.555   0.264  1.0169 -0.2495  1.2677
14420TIP3    H264752   3.160   6.665   0.241 -1.6572  1.6943 -2.3346
14421TIP3   OH264753   4.998   6.469   2.447  0.1794 -0.1682 -0.7321
14421TIP3    H164754   5.021   6.485   2.356  0.0310  0.8094 -0.6084
14421TIP3    H264755   5.082   6.458   2.492  0.3622  1.4295 -0.6295
14422TIP3   OH264756   5.516   5.222   1.142  0.1366 -0.1864 -0.3345
14422TIP3    H164757   5.572   5.159   1.188 -1.9077 -0.9059  1.3461
14422TIP3    H264758   5.551   5.224   1.053  1.8199 -1.7934  0.2140
14423TIP3   OH264759   5.859   5.453  13.557  0.1224 -0.8468  0.1130
14423TIP3    H164760   5.771   5.417  13.543 -0.2501 -0.2803  0.8896
14423TIP3    H264761   5.846   5.522  13.621  1.2930 -1.4118  0.9905
14424TIP3   OH264762   5.485   4.125   6.204 -0.4843  0.1019  0.2801
14424TIP3    H164763   5.503   4.048   6.149  0.7944 -1.4722  2.7070
14424TIP3    H264764   5.563   4.135   6.257 -2.8927 -0.9929  4.5296
14425TIP3   OH264765   3.950   4.929  10.633  0.2508  0.0922  0.6352
14425TIP3    H164766   4.024   4.984  10.606 -0.8031  0.4245 -1.8815
14425TIP3    H264767   3.991   4.847  10.660  1.5810  0.1406 -1.0194
14426TIP3   OH264768   0.458   6.905   5.255  0.5841 -0.1149  0.8663
14426TIP3    H164769   0.469   6.834   5.192 -0.8708  0.5790 -0.2334
14426TIP3    H264770   0.529   6.966   5.236 -0.2351  0.4165 -0.6072
14427TIP3   OH264771   0.967   2.720   5.324 -0.5464  0.3617  0.3702
14427TIP3    H164772   0.908   2.730   5.399 -2.3729  0.4850 -1.0277
14427TIP3    H264773   0.970   2.806   5.284  0.2822  0.2557  0.1851
14428TIP3   OH264774   4.833   4.245  13.879 -0.3499  0.1246 -0.1063
14428TIP3    H164775   4.866   4.179  13.939  1.3909  0.7646 -0.3165
14428TIP3    H264776   4.908   4.300  13.859 -1.1982  0.7611 -1.7866
14429TIP3   OH264777   5.502   4.254   3.034  0.2363 -0.1879 -0.0823
14429TIP3    H164778   5.511   4.331   2.977  0.6799 -1.7725 -2.3039
14429TIP3    H264779   5.554   4.186   2.990 -1.4706 -2.2322  0.8998
14430TIP3   OH264780   5.949   5.195  11.862 -0.3203  0.6573  0.0126
14430TIP3    H164781   5.954   5.279  11.817  1.5480  0.5343 -0.1079
14430TIP3    H264782   5.983   5.131  11.799  1.2140  0.3061  1.1226
14431TIP3   OH264783   0.648   0.579   3.123  0.1429 -0.3379 -0.3034
14431TIP3    H164784   0.677   0.669   3.110 -2.6367  0.8344  0.8426
14431TIP3    H264785   0.624   0.549   3.035 -2.3018  1.3925 -0.3126
14432TIP3   OH264786   1.342   4.370  11.866 -0.0504 -0.2460  0.0343
14432TIP3    H164787   1.415   4.318  11.833  0.6061  0.1445  0.8214
14432TIP3    H264788   1.293   4.396  11.788  1.8849  1.3034 -0.7462
14433TIP3   OH264789   4.347   0.354   3.950  0.2781  0.2244 -0.0439
14433TIP3    H164790   4.263   0.377   3.910  0.6921  0.1603 -0.9656
14433TIP3    H264791   4.346   0.259   3.957  0.4163  0.1966 -0.3842
14434TIP3   OH264792   2.309   6.525   2.254  0.2862  0.7168 -0.2580
14434TIP3    H164793   2.273   6.593   2.311  0.7168 -0.5008  1.5539
14434TIP3    H264794   2.362   6.471   2.312  1.0947 -0.3595 -1.9274
14435TIP3   OH264795   3.185   6.194  12.371  0.0514 -0.0169 -0.3423
14435TIP3    H164796   3.113   6.252  12.396  0.4735 -0.0440  1.0666
14435TIP3    H264797   3.193   6.205  12.277 -1.4726  0.3519 -0.4558
14436TIP3   OH264798   2.534   6.127   3.112 -0.6388 -0.0495  0.3898
14436TIP3    H164799   2.528   6.151   3.205  0.0026 -0.9216  0.6731
14436TIP3    H264800   2.615   6.170   3.082 -2.4255  2.9002 -0.6449
14437TIP3   OH264801   2.397   6.381   3.093 -0.3197  0.5585  0.0678
14437TIP3    H164802   2.448   6.301   3.085 -0.0780  0.8051 -1.0238
14437TIP3    H264803   2.427   6.421   3.175 -1.1422 -0.9255  1.1449
14438TIP3   OH264804   1.018   5.621   2.761 -0.3526 -0.1966 -0.7116
14438TIP3    H164805   1.029   5.716   2.770  1.9507 -0.5206  0.7007
14438TIP3    H264806   0.969   5.594   2.839  1.8469 -0.5004  0.6464
14439TIP3   OH264807   2.979   6.831  12.166  1.0251 -0.6331 -0.2589
14439TIP3    H164808   2.923   6.889  12.217  1.3702  0.8498 -1.4876
14439TIP3    H264809   2.960   6.744  12.200 -0.2237  0.0857  1.0017
14440TIP3   OH264810   1.358   1.123  13.660  0.5319  0.1959  0.4106
14440TIP3    H164811   1.330   1.182  13.730  0.5130  0.2284  0.3754
14440TIP3    H264812   1.431   1.073  13.699 -1.9383 -2.5962  1.8450
14441TIP3   OH264813   2.311   4.770  15.225 -0.1945  0.0200 -0.0023
14441TIP3    H164814   2.275   4.683  15.208  2.0572 -0.7554 -1.1515
14441TIP3    H264815   2.376   4.756  15.294 -0.1766  0.8909  0.1685
14442TIP3   OH264816   3.374   2.285   3.888  0.4148  0.5960 -0.4940
14442TIP3    H164817   3.406   2.241   3.967  0.6657  0.8149 -0.4720
14442TIP3    H264818   3.367   2.216   3.823 -2.7294 -0.2208  0.5381
14443TIP3   OH264819   7.032   1.270   2.860 -0.2879 -0.0875  0.0374
14443TIP3    H164820   7.098   1.329   2.826 -0.4622  0.6204  0.8751
14443TIP3    H264821   7.079   1.190   2.883 -0.2187 -0.7220 -2.0998
14444TIP3   OH264822   6.516   7.013  13.349 -0.0745 -0.0289  0.0582
14444TIP3    H164823   6.604   7.022  13.385 -0.2070 -1.1310  0.7331
14444TIP3    H264824   6.470   7.092  13.377  0.8970  0.8998 -0.9305
14445TIP3   OH264825   0.552   5.110   2.118 -0.1736  0.3660 -0.5551
14445TIP3    H164826   0.637   5.070   2.133 -0.5758 -1.0174 -1.7158
14445TIP3    H264827   0.489   5.042   2.142 -0.9385  1.0361 -0.6051
14446TIP3   OH264828   0.066   5.861   5.405  0.1693  0.1268  0.1041
14446TIP3    H164829   0.071   5.899   5.318 -0.4943  2.0117  0.8336
14446TIP3    H264830   0.150   5.884   5.446  0.7350 -1.2811 -0.2009
14447TIP3   OH264831   0.284   3.606   4.071 -0.4001 -0.2775  0.4469
14447TIP3    H164832   0.202   3.654   4.083 -0.1639 -0.0780  1.2897
14447TIP3    H264833   0.343   3.642   4.137  0.4435 -0.2629 -0.2983
14448TIP3   OH264834   3.795   4.144   4.316 -0.6004  0.4988 -1.1551
14448TIP3    H164835   3.787   4.231   4.275 -1.3504  0.3948 -1.2498
14448TIP3    H264836   3.889   4.132   4.329 -0.4583  1.1535 -1.5206
14449TIP3   OH264837   0.749   2.510   5.211 -0.4149 -0.1699 -0.3484
14449TIP3    H164838   0.691   2.434   5.219 -0.0346 -0.9304 -3.5091
14449TIP3    H264839   0.744   2.553   5.296 -1.7469 -2.9360  1.0899
14450TIP3   OH264840   5.847   6.978  15.314 -0.0817 -0.0618 -0.0817
14450TIP3    H164841   5.780   6.914  15.340 -1.1036  1.5314  1.4628
14450TIP3    H264842   5.802   7.035  15.252  0.4842 -0.1721 -0.5966
14451TIP3   OH264843   2.384   6.776   3.821  0.0013 -0.5735  0.6821
14451TIP3    H164844   2.425   6.751   3.738  0.4662  0.4042  0.5951
14451TIP3    H264845   2.358   6.694   3.861 -1.7618 -1.0037 -1.1863
14452TIP3   OH264846   4.973   5.055  11.516  0.6886  0.5890 -0.3273
14452TIP3    H164847   4.889   5.016  11.490 -0.0979  2.1400 -0.2605
14452TIP3    H264848   4.972   5.049  11.612  1.1553 -0.3389 -0.3695
14453TIP3   OH264849   1.269   6.074   3.551 -0.2592 -0.0297 -0.5008
14453TIP3    H164850   1.277   6.143   3.616 -1.0252  0.0559 -0.4941
14453TIP3    H264851   1.358   6.038   3.543 -0.0127  0.4526  0.0380
14454TIP3   OH264852   4.669   2.830  15.178  0.1192  0.5848  0.2306
14454TIP3    H164853   4.651   2.798  15.266 -1.3142 -2.0703 -0.9336
14454TIP3    H264854   4.698   2.753  15.130 -2.8349  1.0341 -2.5687
14455TIP3   OH264855   0.510   4.666  13.865 -0.6529 -0.5603 -0.0953
14455TIP3    H164856   0.576   4.699  13.805 -1.0293  0.5795  0.0723
14455TIP3    H264857   0.526   4.714  13.946 -0.3313 -1.8674  0.6435
14456TIP3   OH264858   5.824   3.132   1.056 -0.4694  0.7320  0.3361
14456TIP3    H164859   5.880   3.202   1.022  0.9514 -0.9413 -0.9108
14456TIP3    H264860   5.869   3.101   1.134  0.0868 -0.2094 -0.3314
14457TIP3   OH264861   0.272   5.622   4.667 -0.1992  0.7554  0.1078
14457TIP3    H164862   0.233   5.552   4.616  1.2316 -0.4983  0.6460
14457TIP3    H264863   0.324   5.672   4.604  1.4392 -0.6936  0.2266
14458TIP3   OH264864   3.461   0.083  13.431  0.3067  0.7237 -0.1872
14458TIP3    H164865   3.498   0.156  13.482  1.6258  0.0978 -0.2027
14458TIP3    H264866   3.488   0.005  13.478 -0.3048  0.2070 -0.6781
14459TIP3   OH264867   4.901   3.422   4.770 -0.0400  0.1941 -0.4493
14459TIP3    H164868   4.906   3.327   4.774 -1.2901  0.1658  1.0643
14459TIP3    H264869   4.992   3.451   4.777  0.1677 -0.8309  1.9148
14460TIP3   OH264870   6.332   5.651   5.565  0.4170 -0.0355  0.5435
14460TIP3    H164871   6.397   5.703   5.613  2.2208 -1.2699 -0.4045
14460TIP3    H264872   6.318   5.699   5.483  0.4500  0.0461  0.5866
14461TIP3   OH264873   3.151   3.929   3.868  0.8910 -0.0463 -0.3300
14461TIP3    H164874   3.220   3.952   3.930  2.2613 -1.7756 -1.1163
14461TIP3    H264875   3.196   3.918   3.784 -0.7387  1.1252 -1.4316
14462TIP3   OH264876   0.249   4.596   4.196 -0.0883 -0.6988 -0.1296
14462TIP3    H164877   0.267   4.551   4.279 -2.1153 -0.0104  0.7269
14462TIP3    H264878   0.170   4.554   4.163 -0.5627  0.5469 -0.5902
14463TIP3   OH264879   3.316   0.581  15.163  0.1508  0.9537  0.1590
14463TIP3    H164880   3.409   0.603  15.161  0.0860  1.1691 -0.4394
14463TIP3    H264881   3.287   0.607  15.250  0.6092  1.0450  0.2860
14464TIP3   OH264882   4.417   0.443   0.428  0.0787  0.0918  0.1461
14464TIP3    H164883   4.367   0.376   0.476 -0.4260  1.2077  1.2456
14464TIP3    H264884   4.502   0.402   0.411  0.7465 -0.0194  3.0841
14465TIP3   OH264885   1.809   0.304  11.445 -0.7927  0.8562 -0.0582
14465TIP3    H164886   1.808   0.352  11.362  2.2222  0.8514 -0.2064
14465TIP3    H264887   1.766   0.221  11.426 -0.3778  0.9639 -1.5286
14466TIP3   OH264888   2.843   1.870  12.512  0.1854 -0.0325 -0.2664
14466TIP3    H164889   2.936   1.873  12.532  0.4360  0.1931 -1.3672
14466TIP3    H264890   2.826   1.953  12.468 -0.7954  0.4275  0.9243
14467TIP3   OH264891   0.221   0.670  12.853 -0.2471  0.3025 -0.2419
14467TIP3    H164892   0.244   0.591  12.902  0.2741  0.3992 -0.3311
14467TIP3    H264893   0.159   0.716  12.910 -1.2904 -0.6236 -0.5885
14468TIP3   OH264894   1.476   0.009   3.650  0.0604  0.8648 -0.3816
14468TIP3    H164895   1.559  -0.025   3.683  0.1530  0.8718 -0.5979
14468TIP3    H264896   1.465  -0.034   3.565  0.6920  2.0983 -1.1380
14469TIP3   OH264897   0.506   6.583   4.038 -0.3063 -0.7427  0.0804
14469TIP3    H164898   0.571   6.514   4.027 -0.1070 -0.4680 -0.5430
14469TIP3    H264899   0.426   6.547   4.000 -0.0351 -0.4005 -0.8471
14470TIP3   OH264900   0.211   3.054  15.712 -0.3966  0.3263  0.4479
14470TIP3    H164901   0.277   3.035  15.779 -1.3154 -0.8465  1.0651
14470TIP3    H264902   0.189   2.968  15.676 -0.5001  0.8656 -0.8113
14471TIP3   OH264903   6.911   3.809   5.473 -0.5041  0.7422 -0.3400
14471TIP3    H164904   6.825   3.767   5.483  0.6101 -1.6762 -0.2147
14471TIP3    H264905   6.956   3.789   5.555  0.5258  1.1335 -0.8034
14472TIP3   OH264906   6.218   3.897   4.169  0.1901  0.0043 -0.1196
14472TIP3    H164907   6.186   3.869   4.083  0.9132 -1.2652  0.0015
14472TIP3    H264908   6.183   3.986   4.180 -1.2615 -0.4113 -1.0274
14473TIP3   OH264909   1.412   6.570   3.063 -0.1334 -0.6231 -0.0996
14473TIP3    H164910   1.317   6.580   3.071 -0.1367 -2.1341  2.6048
14473TIP3    H264911   1.424   6.481   3.031  0.4016 -0.7917  0.5760
14474TIP3   OH264912   4.828   1.812   4.897 -0.2012 -0.0287 -0.1329
14474TIP3    H164913   4.761   1.849   4.840  1.8271 -0.0008 -2.6487
14474TIP3    H264914   4.901   1.874   4.893  0.7975 -1.0796  0.8000
14475TIP3   OH264915   1.200   0.318   3.987  0.7015  0.6851  0.0430
14475TIP3    H164916   1.196   0.263   3.909  1.1161 -0.1773  0.6061
14475TIP3    H264917   1.294   0.329   4.003  0.6184  1.3024  0.1169
14476TIP3   OH264918   0.506   3.234   3.437 -0.1958  0.6452 -0.3418
14476TIP3    H164919   0.441   3.283   3.486  0.4853  0.2859  0.9543
14476TIP3    H264920   0.495   3.263   3.346 -1.0602  1.7696  0.1082
14477TIP3   OH264921   0.258   3.647   1.852  0.7240  0.5042 -0.2132
14477TIP3    H164922   0.270   3.710   1.780  1.8309 -1.3082 -1.7294
14477TIP3    H264923   0.335   3.659   1.907  2.6724 -1.5038 -2.2319
14478TIP3   OH264924   2.773   3.302   4.177  0.0805 -0.3201 -0.1686
14478TIP3    H164925   2.694   3.343   4.212 -0.1037  0.0043 -0.9442
14478TIP3    H264926   2.781   3.220   4.225 -0.1878  0.0948  0.5956
14479TIP3   OH264927   5.938   2.822   2.035  0.5425  0.2032 -0.1554
14479TIP3    H164928   6.021   2.869   2.023  0.5742  0.1877  0.0075
14479TIP3    H264929   5.887   2.844   1.957  1.6686 -1.8112 -1.5649
14480TIP3   OH264930   4.094   3.042   3.227  0.6485  0.1049  0.0278
14480TIP3    H164931   4.182   3.056   3.261  1.4917 -2.6164 -0.8110
14480TIP3    H264932   4.042   3.017   3.303  1.2122 -0.6531  0.1738
14481TIP3   OH264933   2.026   4.728  13.427  0.1985 -0.2587 -0.5765
14481TIP3    H164934   1.986   4.813  13.446 -1.2355 -1.1093  0.3888
14481TIP3    H264935   2.067   4.739  13.341 -1.3058  0.9540 -1.1745
14482TIP3   OH264936   2.941   3.597  13.598 -0.4288  0.0696 -0.2249
14482TIP3    H164937   2.942   3.673  13.539 -0.4248  0.4344  0.2319
14482TIP3    H264938   2.891   3.627  13.674  2.1393  0.7163  1.3482
14483TIP3   OH264939   3.564   5.587  15.164 -0.1850  0.0429 -0.0514
14483TIP3    H164940   3.529   5.622  15.245 -0.7963 -1.5728  0.4141
14483TIP3    H264941   3.659   5.604  15.170 -0.1800 -0.3230  1.1347
14484TIP3   OH264942   0.248   6.259   0.244  0.2409 -0.3155  0.3222
14484TIP3    H164943   0.295   6.251   0.161  1.8381  1.6588  0.9513
14484TIP3    H264944   0.156   6.271   0.219  0.6354 -0.1708 -1.1327
14485TIP3   OH264945   1.173   4.013   2.956 -0.4600  0.0521  0.3670
14485TIP3    H164946   1.132   3.960   2.887 -0.5098  0.3854  0.1398
14485TIP3    H264947   1.263   4.025   2.927  0.2578 -1.9285  1.5715
14486TIP3   OH264948   1.131   5.308   2.617  0.0183  0.2236  0.5948
14486TIP3    H164949   1.222   5.336   2.615  0.0359  0.2467 -2.1032
14486TIP3    H264950   1.132   5.218   2.585 -0.9052  0.3471  0.1547
14487TIP3   OH264951   5.199   5.513  12.216 -0.0705 -0.1334  0.4968
14487TIP3    H164952   5.220   5.593  12.168  1.8888 -1.2128 -0.5544
14487TIP3    H264953   5.204   5.538  12.308 -0.1758  1.0969  0.1855
14488TIP3   OH264954   3.194   6.742   2.700  0.1191 -0.2260 -0.3083
14488TIP3    H164955   3.178   6.655   2.664 -0.7575  0.2444 -1.0900
14488TIP3    H264956   3.194   6.801   2.624  0.5451  0.4855  0.2219
14489TIP3   OH264957   0.325   5.740   4.365 -0.1962  0.2906  0.3321
14489TIP3    H164958   0.239   5.699   4.359  0.3108 -0.6444 -1.0160
14489TIP3    H264959   0.364   5.726   4.279  0.7613  1.9512  0.4624
14490TIP3   OH264960   6.311   5.370   5.792 -0.9301  0.5426 -0.1327
14490TIP3    H164961   6.340   5.279   5.804  1.1194  1.1405 -0.1656
14490TIP3    H264962   6.260   5.389   5.870 -0.8358 -0.4521  0.1893
14491TIP3   OH264963   5.463   7.101   4.140 -0.0092 -0.5707  0.0998
14491TIP3    H164964   5.438   7.046   4.215 -2.0719 -1.4700 -1.1717
14491TIP3    H264965   5.518   7.045   4.086  0.3558 -0.3658  0.2510
14492TIP3   OH264966   3.841   1.851  10.592  0.2481  0.1074 -0.3335
14492TIP3    H164967   3.800   1.837  10.677 -0.0458 -0.0617 -0.5040
14492TIP3    H264968   3.927   1.811  10.600  0.7214  1.2044  0.3095
14493TIP3   OH264969   1.937   1.184   2.755 -0.0936  0.4980  0.0974
14493TIP3    H164970   1.956   1.262   2.807 -0.5684  1.5353 -1.2263
14493TIP3    H264971   1.844   1.192   2.734  0.0239 -0.0349 -0.6665
14494TIP3   OH264972   0.249   0.557  15.072 -0.2301  0.3971  0.3067
14494TIP3    H164973   0.222   0.466  15.056  0.1771  0.1200  1.1813
14494TIP3    H264974   0.184   0.590  15.134  1.1353 -0.1539  2.1264
14495TIP3   OH264975   7.074   3.627   4.003  0.6499  0.3014 -0.3778
14495TIP3    H164976   7.114   3.693   4.060  1.0967  0.3222 -0.7045
14495TIP3    H264977   7.091   3.659   3.914  0.9020 -0.2639 -0.5400
14496TIP3   OH264978   6.899   2.369   0.505 -0.1940  0.1818 -0.1446
14496TIP3    H164979   6.986   2.335   0.484 -0.6245 -0.6276 -0.7201
14496TIP3    H264980   6.872   2.319   0.582  0.7007  1.9558  1.3705
14497TIP3   OH264981   0.198   2.809   0.888 -0.3273  0.5627 -0.4661
14497TIP3    H164982   0.132   2.876   0.907 -0.1189  1.2711 -2.0615
14497TIP3    H264983   0.282   2.851   0.907 -0.2573  0.2148  0.0135
14498TIP3   OH264984   5.450   4.053  10.477  0.3881 -0.7389 -0.3258
14498TIP3    H164985   5.399   4.111  10.534 -0.0741 -0.3329 -1.1350
14498TIP3    H264986   5.541   4.077  10.494  0.2110  0.0593 -0.4692
14499TIP3   OH264987   5.741   2.086   3.395 -0.0076 -0.2141  0.1948
14499TIP3    H164988   5.783   2.054   3.475 -0.9022 -0.6710  0.4957
14499TIP3    H264989   5.672   2.145   3.426  1.3112  1.6824 -0.3338
14500TIP3   OH264990   4.183   4.724   5.103 -0.5261 -0.7697 -0.6103
14500TIP3    H164991   4.116   4.788   5.081 -0.7094 -1.3365 -1.7432
14500TIP3    H264992   4.259   4.749   5.050 -0.4631 -1.2501 -0.7527
14501TIP3   OH264993   5.162   0.144  15.688  0.3008  1.0055 -0.9082
14501TIP3    H164994   5.115   0.070  15.725 -0.2297  1.4518 -0.6774
14501TIP3    H264995   5.105   0.177  15.618  1.1603  0.3457 -1.9621
14502TIP3   OH264996   2.921   1.834   3.133 -0.1729  0.6455  0.7304
14502TIP3    H164997   2.918   1.850   3.039  0.5125  2.3063  0.9710
14502TIP3    H264998   3.014   1.831   3.154 -0.3185 -0.0194  1.3212
14503TIP3   OH264999   3.353   0.060   4.824  0.5686 -0.0910  0.1764
14503TIP3    H165000   3.388  -0.005   4.763  1.1112  0.9310 -0.6329
14503TIP3    H265001   3.347   0.013   4.908  3.5487 -0.4636  0.3075
14504TIP3   OH265002   4.412   0.668   5.380 -0.4406 -0.0339  0.4092
14504TIP3    H165003   4.414   0.575   5.404  0.4235  0.2751  1.6495
14504TIP3    H265004   4.351   0.708   5.442 -0.3368  0.3192  0.2895
14505TIP3   OH265005   1.869   2.289   5.806 -0.2280  0.1123  0.1666
14505TIP3    H165006   1.904   2.305   5.894 -0.5230  0.7268  0.1724
14505TIP3    H265007   1.867   2.375   5.764 -0.9758 -0.0370 -0.1128
14506TIP3   OH265008   1.226   3.184  11.479  0.0307  0.3979 -0.0607
14506TIP3    H165009   1.258   3.096  11.456  1.5739  0.6586  0.9687
14506TIP3    H265010   1.300   3.242  11.460 -0.9381  1.4914 -0.6456
14507TIP3   OH265011   0.590   3.384   2.006 -0.2612  0.1094 -0.4333
14507TIP3    H165012   0.590   3.479   1.995 -2.3794  0.0047 -1.9050
14507TIP3    H265013   0.499   3.358   1.993 -0.0138 -2.0072  1.3728
14508TIP3   OH265014   5.259   2.371   0.786 -0.3439 -0.4057  0.1202
14508TIP3    H165015   5.276   2.465   0.780  1.6664 -0.5123  2.3668
14508TIP3    H265016   5.163   2.364   0.793 -0.5155  1.4691  0.0600
14509TIP3   OH265017   4.452   5.383  12.074 -0.2213  0.7919 -0.0682
14509TIP3    H165018   4.515   5.442  12.032  0.4911  0.3477  0.3609
14509TIP3    H265019   4.402   5.346  12.001  2.1369 -1.3054 -0.7548
14510TIP3   OH265020   2.224   3.767   5.746  0.3894 -0.1839 -0.4790
14510TIP3    H165021   2.153   3.784   5.806  1.4689  1.0495  0.4970
14510TIP3    H265022   2.275   3.847   5.745  0.4784 -0.1849 -2.9846
14511TIP3   OH265023   0.596   1.982  13.528 -0.4479  0.1921 -0.1883
14511TIP3    H165024   0.659   2.054  13.522  0.5268 -0.6367 -0.2294
14511TIP3    H265025   0.593   1.961  13.621  0.5692 -0.8082 -0.3620
14512TIP3   OH265026   1.083   1.443  11.858 -0.0386  0.7815 -0.1750
14512TIP3    H165027   1.133   1.514  11.898  1.3080 -0.5141  0.5123
14512TIP3    H265028   1.148   1.387  11.816 -1.0099 -0.3191 -0.2753
14513TIP3   OH265029   3.099   1.857   9.433  0.0653 -0.1297  0.3198
14513TIP3    H165030   3.078   1.890   9.521 -0.3850 -0.7201  0.4397
14513TIP3    H265031   3.044   1.779   9.423  0.5999 -0.4441 -0.2305
14514TIP3   OH265032   1.556   1.715  15.355 -0.7029  0.1984 -0.7372
14514TIP3    H165033   1.560   1.809  15.337  2.8713  0.2970 -0.2594
14514TIP3    H265034   1.576   1.707  15.448  0.3307 -1.0394 -1.0319
14515TIP3   OH265035   3.738   6.818  12.078 -0.0196  0.0893  0.0508
14515TIP3    H165036   3.650   6.809  12.042 -0.2672  0.3905  0.5627
14515TIP3    H265037   3.737   6.903  12.122  0.1246 -0.4512  1.1521
14516TIP3   OH265038   1.568   4.875   1.554  0.0864  0.1834 -0.0203
14516TIP3    H165039   1.559   4.865   1.460 -1.9492  0.3157  0.0957
14516TIP3    H265040   1.537   4.792   1.590  3.3464 -0.9142  0.5377
14517TIP3   OH265041   6.543   2.097   4.413  0.1425 -0.0302  0.1578
14517TIP3    H165042   6.638   2.108   4.412  0.0177  1.1462 -0.0409
14517TIP3    H265043   6.525   2.065   4.502  0.6619  0.3835  0.4236
14518TIP3   OH265044   7.062   6.250   5.603 -0.1278  0.1975  0.1653
14518TIP3    H165045   7.036   6.177   5.546 -2.0193 -0.0757  1.2753
14518TIP3    H265046   7.012   6.325   5.570  1.4487  0.9170 -0.6739
14519TIP3   OH265047   5.766   1.452   0.542  0.0221 -0.6099 -0.0154
14519TIP3    H165048   5.710   1.509   0.595 -0.3324 -0.5230 -0.4796
14519TIP3    H265049   5.709   1.420   0.472  0.8967  0.6592 -1.3813
14520TIP3   OH265050   6.809   3.942   2.214  0.1086 -0.5306  0.0220
14520TIP3    H165051   6.795   4.019   2.271  0.9663 -0.0533 -0.3938
14520TIP3    H265052   6.727   3.892   2.221 -1.6060  1.7783 -1.8113
14521TIP3   OH265053   4.650   3.545   4.579  0.3713 -0.5687 -0.4626
14521TIP3    H165054   4.615   3.629   4.547 -2.2379 -1.4398 -0.1489
14521TIP3    H265055   4.705   3.568   4.654 -1.9484  0.8005  0.9381
14522TIP3   OH265056   6.721   7.148   2.993  0.4847  0.4962  0.9316
14522TIP3    H165057   6.681   7.202   3.061 -1.0134  0.2840  0.2582
14522TIP3    H265058   6.707   7.197   2.912  2.8341  1.0655  0.8003
14523TIP3   OH265059   1.051   2.299   2.092 -0.2214 -0.0471  0.2339
14523TIP3    H165060   0.970   2.322   2.139  0.5492  4.1899 -0.1479
14523TIP3    H265061   1.116   2.287   2.161 -0.2770  0.8420  0.4569
14524TIP3   OH265062   5.937   6.441   2.243 -0.3676  0.0784 -0.1310
14524TIP3    H165063   5.952   6.523   2.195 -0.2139  0.6173  0.8123
14524TIP3    H265064   5.944   6.466   2.335 -2.6371 -0.5013  0.2652
14525TIP3   OH265065   3.965   6.497   5.554 -0.1510 -0.2405  0.3530
14525TIP3    H165066   4.037   6.546   5.594  1.3021 -1.7533 -0.2742
14525TIP3    H265067   3.916   6.461   5.628  0.3109  0.0084  0.7854
14526TIP3   OH265068   3.847   4.263   2.337 -0.2287 -0.6052  0.0523
14526TIP3    H165069   3.936   4.280   2.366 -0.1375  1.2918 -1.1556
14526TIP3    H265070   3.856   4.203   2.264  0.2419  0.7536 -1.0531
14527TIP3   OH265071   2.716   1.558  12.600  0.2514  1.0365 -0.7484
14527TIP3    H165072   2.647   1.618  12.628  0.5494  1.2285 -0.4171
14527TIP3    H265073   2.741   1.512  12.679  0.5853  1.0507 -0.8454
14528TIP3   OH265074   0.553   4.663  14.668 -0.7103 -0.2489 -0.1641
14528TIP3    H165075   0.539   4.742  14.720  3.6800  1.1282 -0.5978
14528TIP3    H265076   0.573   4.595  14.733  0.7935  0.4569  0.1663
14529TIP3   OH265077   1.724   2.504   4.176 -0.3925  0.0552 -0.4288
14529TIP3    H165078   1.816   2.510   4.151 -0.4710 -0.3333 -0.8245
14529TIP3    H265079   1.677   2.553   4.109 -0.3404  1.7676  0.7247
14530TIP3   OH265080   5.514   0.856  13.092 -0.5163  0.1226 -0.6454
14530TIP3    H165081   5.588   0.860  13.153 -0.6924  0.1990 -0.4353
14530TIP3    H265082   5.497   0.948  13.070  0.8730  0.0116 -2.4354
14531TIP3   OH265083   6.384   2.085  14.050  0.0106  0.2319 -0.5209
14531TIP3    H165084   6.384   2.004  13.998 -1.2857 -1.0108  1.2680
14531TIP3    H265085   6.307   2.077  14.107 -0.4334  2.9927 -0.6194
14532TIP3   OH265086   6.244   5.974   5.748 -0.0691 -0.3526 -0.1355
14532TIP3    H165087   6.237   6.053   5.802  0.3601 -0.5611  0.2307
14532TIP3    H265088   6.338   5.963   5.734 -0.1301 -0.7663 -0.2300
14533TIP3   OH265089   5.491   3.929   5.578  0.0036  0.5881 -0.2332
14533TIP3    H165090   5.515   3.880   5.500  0.2224  0.7544 -0.2717
14533TIP3    H265091   5.449   4.008   5.544  0.6316  0.9401 -0.1989
14534TIP3   OH265092   0.649   1.413  13.997  0.4656 -0.4818  0.0382
14534TIP3    H165093   0.730   1.365  13.981  0.1591 -2.2109  2.9077
14534TIP3    H265094   0.581   1.362  13.953  0.6719 -0.0990 -0.7439
14535TIP3   OH265095   2.975   2.567   3.474 -0.3896  0.3746 -0.1957
14535TIP3    H165096   3.061   2.608   3.487 -0.4580  0.5733 -0.3697
14535TIP3    H265097   2.995   2.479   3.444 -0.2464  0.7282 -1.1727
14536TIP3   OH265098   4.879   5.664  15.270  0.2088 -0.2570 -0.1668
14536TIP3    H165099   4.818   5.629  15.206 -0.7567 -0.4699  0.8369
14536TIP3    H265100   4.830   5.734  15.314  1.3696  0.9159 -0.6776
14537TIP3   OH265101   4.001   2.723   2.948  0.8330 -0.3941 -0.2463
14537TIP3    H165102   3.929   2.661   2.950  1.0529 -0.6709 -0.8525
14537TIP3    H265103   3.998   2.761   2.860  0.4433  0.7634  0.2426
14538TIP3   OH265104   1.468   0.247   4.298  0.5000 -0.5491 -0.1151
14538TIP3    H165105   1.527   0.301   4.351 -1.5865 -0.3822  2.1675
14538TIP3    H265106   1.516   0.165   4.286  1.8535  0.1558  0.2608
14539TIP3   OH265107   6.496   6.040   2.075  0.0742  0.3074 -0.2014
14539TIP3    H165108   6.509   6.036   1.980 -1.1725 -0.0075 -0.3791
14539TIP3    H265109   6.429   6.106   2.087 -1.1150 -0.9530  0.2955
14540TIP3   OH265110   3.823   0.590  14.723 -0.0900  0.0705  0.0243
14540TIP3    H165111   3.795   0.522  14.785 -0.2000 -0.9455 -1.1066
14540TIP3    H265112   3.770   0.574  14.645 -1.7287  2.8118  0.4274
14541TIP3   OH265113   2.083   0.366   3.309 -0.3218 -0.2157  0.2305
14541TIP3    H165114   2.011   0.421   3.279 -0.0910  0.9020  1.6542
14541TIP3    H265115   2.092   0.386   3.402  0.3702 -1.9974  0.5892
14542TIP3   OH265116   0.501   5.508   3.491  0.1934  0.3924 -0.6927
14542TIP3    H165117   0.471   5.565   3.420 -1.8321 -0.0887 -0.3089
14542TIP3    H265118   0.457   5.543   3.569  0.5217 -0.4852 -0.1001
14543TIP3   OH265119   0.142   1.227   4.463  0.0615  0.4825 -0.1977
14543TIP3    H165120   0.138   1.311   4.507 -1.6656 -0.1042  0.8708
14543TIP3    H265121   0.151   1.163   4.534  1.0497 -0.2652 -0.9637
14544TIP3   OH265122   4.403   6.888   4.425 -0.0544  0.0383 -0.5698
14544TIP3    H165123   4.480   6.846   4.464 -0.5933  0.0331  0.5035
14544TIP3    H265124   4.369   6.945   4.494 -0.8464  0.2756 -1.1425
14545TIP3   OH265125   0.204   4.372   1.424 -0.1935 -0.1434 -0.6396
14545TIP3    H165126   0.110   4.377   1.442 -0.1809  0.8231 -0.8188
14545TIP3    H265127   0.210   4.331   1.338 -0.4559 -0.0572 -0.6998
14546TIP3   OH265128   5.380   3.086  15.544 -0.3500  0.0932  0.0092
14546TIP3    H165129   5.374   2.998  15.507 -1.3440 -0.4531  1.3796
14546TIP3    H265130   5.347   3.077  15.634 -0.2405  1.8177  0.2659
14547TIP3   OH265131   7.083   2.878   4.062  0.3023 -0.1901 -0.2453
14547TIP3    H165132   7.054   2.962   4.028 -0.5711 -1.1795 -2.0780
14547TIP3    H265133   7.142   2.844   3.995  1.8950 -0.3791  1.1947
14548TIP3   OH265134   6.794   1.576   4.392 -0.4303 -0.0012 -0.2503
14548TIP3    H165135   6.746   1.509   4.345  0.2821 -0.5170 -0.2502
14548TIP3    H265136   6.848   1.528   4.456 -2.2080  0.7147  1.9258
14549TIP3   OH265137   4.441   2.363   5.297  0.1768 -0.3672  0.0964
14549TIP3    H165138   4.512   2.399   5.244  1.1124  0.4852  1.8675
14549TIP3    H265139   4.468   2.273   5.315  0.3502 -0.3392 -0.0228
14550TIP3   OH265140   7.027   1.711   0.370  0.2159 -0.0389  0.5753
14550TIP3    H165141   6.992   1.722   0.281  1.9537  1.4135 -0.0064
14550TIP3    H265142   7.122   1.713   0.358  0.5437  2.5583  2.6826
14551TIP3   OH265143   6.065   5.484   2.704 -0.3611  0.5846 -0.1648
14551TIP3    H165144   6.042   5.391   2.698 -1.0343  0.7783 -0.8467
14551TIP3    H265145   6.028   5.512   2.787 -0.1216  0.2294  0.0638
14552TIP3   OH265146   0.145   6.321  12.064  0.3073 -0.3131 -0.3698
14552TIP3    H165147   0.073   6.295  12.121 -0.2236  0.7117 -0.5578
14552TIP3    H265148   0.163   6.412  12.088 -0.5447  0.4481 -2.4534
14553TIP3   OH265149   5.297   1.776   1.313  0.4386  0.6922 -0.4752
14553TIP3    H165150   5.392   1.775   1.300  0.1937  0.0753 -2.5896
14553TIP3    H265151   5.286   1.758   1.407  2.3859  0.8179 -0.1663
14554TIP3   OH265152   1.240   6.288   2.724 -0.1869 -0.4229  0.1495
14554TIP3    H165153   1.284   6.299   2.640 -0.8581 -0.5636 -0.2241
14554TIP3    H265154   1.152   6.258   2.702 -0.9503  1.1667  0.7993
14555TIP3   OH265155   0.382   4.249   2.949 -0.1040 -0.1324 -0.2891
14555TIP3    H165156   0.396   4.249   3.043 -0.6897 -0.7863 -0.1915
14555TIP3    H265157   0.459   4.292   2.912  0.6560 -0.8928  0.4036
14556TIP3   OH265158   0.152   7.155   2.890 -0.3433  0.2783  0.0572
14556TIP3    H165159   0.097   7.214   2.839  0.3412  1.0262  0.1578
14556TIP3    H265160   0.127   7.171   2.981  0.3809  1.0034  0.1426
14557TIP3   OH265161   1.011   3.007   2.497 -0.2087 -0.3603 -0.4737
14557TIP3    H165162   0.964   3.044   2.571 -0.6825 -0.3517 -0.7736
14557TIP3    H265163   1.102   3.007   2.523 -0.2850  0.3969 -0.2133
14558TIP3   OH265164   2.970   1.044  15.064  0.4517  0.2106  0.2507
14558TIP3    H165165   3.060   1.078  15.071  2.5405 -4.1901 -1.3039
14558TIP3    H265166   2.977   0.953  15.094 -2.3716 -1.7241 -4.0371
14559TIP3   OH265167   4.946   3.732   3.733 -0.6181  0.4507 -0.2958
14559TIP3    H165168   4.956   3.663   3.798  1.9195  2.6158  1.8186
14559TIP3    H265169   5.035   3.748   3.701 -1.2830  1.9982 -1.5156
14560TIP3   OH265170   4.077   1.838   3.684  0.5059  0.8112  0.2887
14560TIP3    H165171   4.101   1.749   3.709 -1.6270  0.3657  0.9147
14560TIP3    H265172   4.160   1.886   3.683  1.5039 -0.8089  1.4848
14561TIP3   OH265173   5.302   3.238   0.366  0.2087  0.5496  0.1958
14561TIP3    H165174   5.372   3.286   0.409  1.2532  0.6752 -1.5152
14561TIP3    H265175   5.325   3.242   0.273 -1.8848  0.2626 -0.3798
14562TIP3   OH265176   6.380   1.604   2.015 -0.0319 -0.4977 -0.0742
14562TIP3    H165177   6.371   1.590   2.109  0.5282  2.6378  0.5548
14562TIP3    H265178   6.359   1.697   2.002 -1.1229 -1.0337 -3.2210
14563TIP3   OH265179   4.200   3.071   4.492 -0.6571 -0.0539 -0.2545
14563TIP3    H165180   4.127   3.129   4.470  1.2201  3.4062  1.6517
14563TIP3    H265181   4.254   3.069   4.413 -2.5174 -2.4280 -1.5868
14564TIP3   OH265182   0.127   5.063  10.479 -0.0811  0.3099 -0.1003
14564TIP3    H165183   0.079   5.135  10.520  2.1441  2.8110 -1.6375
14564TIP3    H265184   0.068   5.030  10.411 -1.8173 -0.6254  1.7351
14565TIP3   OH265185   5.625   0.290  15.086 -0.2601  0.1477 -0.3298
14565TIP3    H165186   5.640   0.306  15.179 -0.0249  0.1343 -0.3651
14565TIP3    H265187   5.673   0.359  15.041  1.6168 -1.2076 -0.5152
14566TIP3   OH265188   5.410   6.853   4.898 -1.3372 -0.3591  0.0591
14566TIP3    H165189   5.456   6.888   4.822 -2.2497 -1.1406 -0.8818
14566TIP3    H265190   5.449   6.767   4.912 -1.1401 -0.2005  0.5290
14567TIP3   OH265191   0.379   5.161  12.390  0.4761 -0.0924  0.4467
14567TIP3    H165192   0.387   5.251  12.357  1.4449  0.1462  1.2880
14567TIP3    H265193   0.462   5.120  12.367 -0.4152 -1.1688 -1.0084
14568TIP3   OH265194   5.148   7.061   3.408 -0.0616  0.5288  0.0087
14568TIP3    H165195   5.225   7.035   3.356 -0.8911  1.5496 -1.8230
14568TIP3    H265196   5.094   7.110   3.347 -0.9229  2.1677  1.9817
14569TIP3   OH265197   3.404   0.134   0.921 -0.0794 -0.2172 -0.4703
14569TIP3    H165198   3.439   0.185   0.848  0.0959  0.9697  0.4115
14569TIP3    H265199   3.481   0.107   0.971 -0.2858  0.6813  0.3603
14570TIP3   OH265200   4.065   3.215   5.825 -0.3202  0.5228 -0.1450
14570TIP3    H165201   4.024   3.285   5.877 -2.1664  1.4573 -2.6324
14570TIP3    H265202   3.994   3.152   5.811  0.4670 -0.2965 -0.4966
14571TIP3   OH265203   5.905   0.184   5.719  0.0925 -0.4714 -0.1586
14571TIP3    H165204   5.898   0.277   5.701 -0.5944 -0.3975  0.4567
14571TIP3    H265205   5.991   0.173   5.759  0.5841 -0.2620 -1.1358
14572TIP3   OH265206   6.424   5.885  13.140  0.0145  0.7847  0.1887
14572TIP3    H165207   6.507   5.856  13.101 -0.8630  0.1587 -1.3304
14572TIP3    H265208   6.369   5.806  13.141 -0.7769  1.3260  0.5479
14573TIP3   OH265209   0.247   4.131  13.020 -0.2086 -0.0899 -0.2653
14573TIP3    H165210   0.299   4.057  13.051  0.3560  0.7710  0.8871
14573TIP3    H265211   0.302   4.173  12.953  0.4306  0.5648  0.6467
14574TIP3   OH265212   1.803   0.553  15.575  0.0459 -0.0672 -0.1801
14574TIP3    H165213   1.763   0.484  15.522  0.4636  0.2958 -0.9772
14574TIP3    H265214   1.778   0.634  15.531  0.3356  0.2454  0.2299
14575TIP3   OH265215   3.155   2.056  12.413  0.1385 -0.3277 -0.1266
14575TIP3    H165216   3.106   2.117  12.357  0.5627  0.3722  0.2423
14575TIP3    H265217   3.128   2.080  12.502  1.0407 -0.0171  0.0755
14576TIP3   OH265218   0.916   4.862  10.399 -0.0189  0.4195 -0.0490
14576TIP3    H165219   0.834   4.870  10.447  0.5320  2.3626  0.6542
14576TIP3    H265220   0.916   4.938  10.340  2.0124  1.4566  1.1819
14577TIP3   OH265221   1.887   3.288   3.201 -0.3144  0.1491  0.3329
14577TIP3    H165222   1.965   3.334   3.171 -1.3336  0.9526 -1.1953
14577TIP3    H265223   1.910   3.195   3.195  0.2105  0.3513 -1.0624
14578TIP3   OH265224   3.207   7.044   2.670  0.6264  0.1364  0.0209
14578TIP3    H165225   3.203   7.136   2.698  0.4797 -0.1055  0.8271
14578TIP3    H265226   3.251   6.999   2.742 -1.9434 -0.9306  1.0492
14579TIP3   OH265227   4.017   1.338  15.724  0.0651 -0.5587 -0.0497
14579TIP3    H165228   4.044   1.382  15.805 -0.7909  0.1998 -0.1464
14579TIP3    H265229   4.071   1.260  15.719  3.2540  1.5214 -0.9838
14580TIP3   OH265230   3.405   2.086   5.033 -0.1596  0.6032 -0.2806
14580TIP3    H165231   3.471   2.050   4.975  0.6956 -0.0693  1.0727
14580TIP3    H265232   3.345   2.133   4.975  1.0615  0.5701 -1.6162
14581TIP3   OH265233   0.582   6.055   3.307 -0.0558 -0.2730  0.5429
14581TIP3    H165234   0.505   6.103   3.275 -1.1357 -1.3891  1.3719
14581TIP3    H265235   0.546   5.979   3.353  1.5784 -2.0229 -0.8762
14582TIP3   OH265236   6.402   4.958   1.627 -1.1682 -0.2510  0.6111
14582TIP3    H165237   6.363   5.041   1.601 -0.0424 -0.0963 -0.7095
14582TIP3    H265238   6.449   4.978   1.708 -1.5805  0.1867  0.7507
14583TIP3   OH265239   6.734   5.457   1.991  0.2456  0.2408  0.6887
14583TIP3    H165240   6.670   5.515   2.032 -0.2260  0.4930 -0.3729
14583TIP3    H265241   6.718   5.372   2.032 -0.8944  0.2577  0.3298
14584TIP3   OH265242   4.837   2.043   3.513 -0.3818  0.1498 -0.4437
14584TIP3    H165243   4.801   2.094   3.441 -1.1556  0.6001  0.2475
14584TIP3    H265244   4.822   1.952   3.488  0.0112  0.2769 -1.1743
14585TIP3   OH265245   4.560   0.921   4.031  0.0429  0.3595  0.4191
14585TIP3    H165246   4.579   0.961   4.116  2.1299 -0.0567  0.2098
14585TIP3    H265247   4.621   0.847   4.026 -0.5399 -0.0468 -1.1440
14586TIP3   OH265248   0.389   2.447   1.965  0.1273 -0.4780  0.3793
14586TIP3    H165249   0.432   2.497   2.035 -1.5363 -0.2074  1.2710
14586TIP3    H265250   0.459   2.423   1.905  1.2137  1.6260  0.7286
14587TIP3   OH265251   2.011   6.353   1.098  0.1001 -0.0624 -0.2086
14587TIP3    H165252   2.020   6.411   1.022  0.5737 -1.1546 -1.0078
14587TIP3    H265253   2.089   6.371   1.151 -0.1271  0.5515 -0.0662
14588TIP3   OH265254   0.734   3.875   4.748 -0.1710 -0.1624  0.2292
14588TIP3    H165255   0.685   3.837   4.821 -0.6201 -0.3392 -0.1571
14588TIP3    H265256   0.820   3.895   4.785 -0.6635  0.5388  1.0262
14589TIP3   OH265257   2.241   2.457   3.399 -0.2562  0.1335  0.2347
14589TIP3    H165258   2.319   2.489   3.444 -0.1628  0.1038  0.0927
14589TIP3    H265259   2.260   2.468   3.306 -0.3204 -0.1078  0.1926
14590TIP3   OH265260   3.627   2.652   4.056  0.1545  0.3911 -0.4995
14590TIP3    H165261   3.698   2.663   3.993  0.6985  0.1952  0.0721
14590TIP3    H265262   3.667   2.672   4.141 -0.0493 -1.3203  0.0253
14591TIP3   OH265263   0.063   7.097   4.729 -0.1718  0.0096  0.2259
14591TIP3    H165264   0.080   7.033   4.659 -0.0306 -0.0833  0.3445
14591TIP3    H265265   0.142   7.095   4.784 -0.8150 -0.9289  1.1667
14592TIP3   OH265266   2.184   2.510   5.784  0.2886  0.2591  0.4382
14592TIP3    H165267   2.167   2.472   5.870  1.6407 -1.0597  0.1528
14592TIP3    H265268   2.277   2.533   5.785  1.3806 -3.2683 -1.8846
14593TIP3   OH265269   7.011   1.138  11.993 -0.7105  0.3731  0.0251
14593TIP3    H165270   6.919   1.128  11.969 -1.2234 -1.0581  2.2273
14593TIP3    H265271   7.008   1.173  12.082  0.8912  0.5253  0.0415
14594TIP3   OH265272   0.347   1.067   4.951  0.4581 -0.1219  0.3057
14594TIP3    H165273   0.428   1.044   4.905  0.5790 -0.2733  0.5893
14594TIP3    H265274   0.355   1.023   5.036 -0.2081 -0.6790  0.0909
14595TIP3   OH265275   2.461   6.283  12.130 -0.4669 -0.6787  0.0488
14595TIP3    H165276   2.492   6.257  12.043  3.1166  0.3141  0.8483
14595TIP3    H265277   2.392   6.347  12.113 -1.6092 -2.3018 -1.9574
14596TIP3   OH265278   4.380   4.478  11.488 -0.1560  0.3808 -0.4162
14596TIP3    H165279   4.379   4.489  11.393 -1.1332  0.5105 -0.3987
14596TIP3    H265280   4.289   4.456  11.510  0.4531 -1.6510  0.2537
14597TIP3   OH265281   3.589   3.715  14.711  0.4503 -0.4716 -0.3344
14597TIP3    H165282   3.560   3.627  14.735  1.2206  0.0528  3.1897
14597TIP3    H265283   3.638   3.745  14.788  1.7051  2.4065 -2.0929
14598TIP3   OH265284   6.994   4.435   3.194  0.0639  0.3782 -0.2560
14598TIP3    H165285   6.930   4.492   3.237 -0.5183 -1.0176  0.8356
14598TIP3    H265286   7.043   4.396   3.266  1.3478  0.4977 -1.0364
14599TIP3   OH265287   4.710   3.588   2.943 -0.2253  0.2788  0.0132
14599TIP3    H165288   4.724   3.604   2.850  0.0148  1.0494  0.1741
14599TIP3    H265289   4.791   3.617   2.985  1.1409 -3.3008  0.1697
14600TIP3   OH265290   2.404   3.649   3.784 -0.2019 -0.3961 -0.3273
14600TIP3    H165291   2.326   3.703   3.796  0.4805  0.1903  1.8950
14600TIP3    H265292   2.408   3.594   3.862  0.8623 -1.4184 -1.0633
14601TIP3   OH265293   5.196   1.649  12.417 -0.5820 -0.1636  0.0908
14601TIP3    H165294   5.249   1.683  12.489 -1.0436  1.2918 -0.2239
14601TIP3    H265295   5.125   1.600  12.461 -0.7261  0.5088  0.6276
14602TIP3   OH265296   4.050   4.748   4.306 -0.0497 -0.8047  0.1560
14602TIP3    H165297   4.114   4.722   4.239  1.7061 -1.2759  1.9206
14602TIP3    H265298   4.097   4.812   4.360 -1.6273  0.0096  0.6260
14603TIP3   OH265299   6.685   3.441   2.661  0.2952 -0.5588  0.7999
14603TIP3    H165300   6.612   3.395   2.619  0.6910 -1.7432  1.3735
14603TIP3    H265301   6.667   3.433   2.755  0.0449  1.0345  0.9071
14604TIP3   OH265302   4.086   4.419   2.964  0.4699  0.4218  0.3093
14604TIP3    H165303   4.086   4.346   2.902  1.6452  1.0329 -0.4551
14604TIP3    H265304   4.006   4.467   2.944 -1.0700 -1.3874  1.7722
14605TIP3   OH265305   4.835   6.023   2.738 -0.3518  0.3935  0.1892
14605TIP3    H165306   4.748   6.063   2.740 -0.5652 -0.0137 -0.5865
14605TIP3    H265307   4.894   6.095   2.714 -0.1864  1.1109  2.4891
14606TIP3   OH265308   5.312   1.372  12.923 -0.1278  0.0715  0.0828
14606TIP3    H165309   5.269   1.396  12.841 -1.0002 -1.1907  0.1537
14606TIP3    H265310   5.398   1.339  12.897 -0.0019  0.6354 -0.2303
14607TIP3   OH265311   3.449   0.062   5.514 -0.1750  0.1255  0.5654
14607TIP3    H165312   3.522   0.089   5.570 -0.5027  0.3818  0.8696
14607TIP3    H265313   3.446   0.128   5.445  1.4441 -1.2102 -0.8695
14608TIP3   OH265314   6.982   7.031  14.092  0.3238  0.1071  0.3839
14608TIP3    H165315   7.063   7.032  14.144  1.2301  0.3191 -0.9900
14608TIP3    H265316   6.912   7.046  14.156  1.3406 -0.3577  1.6347
14609TIP3   OH265317   4.210   2.591   2.250  0.4618 -0.0496 -0.1451
14609TIP3    H165318   4.259   2.669   2.276 -0.7390  0.9947 -0.8795
14609TIP3    H265319   4.124   2.625   2.225 -0.1544 -1.6515 -0.2720
14610TIP3   OH265320   5.756   4.121  13.503 -0.1775  0.5671  0.9214
14610TIP3    H165321   5.685   4.058  13.519  0.8253 -0.7816  0.3022
14610TIP3    H265322   5.830   4.085  13.551  0.2906  1.5949  0.9949
14611TIP3   OH265323   1.503   0.069  15.558  0.1760 -0.3206 -0.2257
14611TIP3    H165324   1.579   0.034  15.511  0.7769  0.7366 -0.0612
14611TIP3    H265325   1.428   0.042  15.504  0.7130 -0.7718 -0.7678
14612TIP3   OH265326   3.680   6.557   5.233  0.4441  0.6004 -0.1736
14612TIP3    H165327   3.651   6.640   5.270 -1.7954 -0.6668  1.1477
14612TIP3    H265328   3.602   6.521   5.190  0.5407 -1.9241  1.5073
14613TIP3   OH265329   4.010   2.054  13.115 -0.0674 -0.0897 -0.3486
14613TIP3    H165330   3.990   2.097  13.032 -0.3129  0.2679 -0.1070
14613TIP3    H265331   4.037   2.125  13.174 -0.1928 -0.3006 -0.0314
14614TIP3   OH265332   1.840   2.817  11.114  0.1539  0.8295 -0.2747
14614TIP3    H165333   1.768   2.764  11.078  0.8728  0.3011 -0.9831
14614TIP3    H265334   1.873   2.866  11.039  1.9941 -0.6442 -0.5006
14615TIP3   OH265335   3.838   3.743   2.394 -0.0055 -0.2184 -0.3423
14615TIP3    H165336   3.787   3.818   2.364  0.3420 -0.0092 -0.4106
14615TIP3    H265337   3.896   3.779   2.462  0.7948 -0.2419 -1.0006
14616TIP3   OH265338   4.029   6.287   2.090  0.5970  0.6888 -0.3649
14616TIP3    H165339   4.016   6.378   2.062 -1.2208  0.9910  1.2831
14616TIP3    H265340   4.020   6.289   2.185  1.4098 -1.1120 -0.2054
14617TIP3   OH265341   2.424   1.581   1.480 -0.3269  0.2505  0.2929
14617TIP3    H165342   2.518   1.599   1.486 -0.4321  0.9823 -0.1408
14617TIP3    H265343   2.401   1.544   1.565  0.7656 -1.8947 -0.2784
14618TIP3   OH265344   4.370   6.999   2.988 -0.0771 -0.1943 -0.2237
14618TIP3    H165345   4.334   7.067   2.930 -1.1470 -0.7711 -0.2671
14618TIP3    H265346   4.304   6.989   3.057  1.5423  1.0645  1.6067
14619TIP3   OH265347   4.677   6.161   3.720  0.5804  0.8841 -0.0913
14619TIP3    H165348   4.728   6.154   3.640  1.1844 -0.0937  0.3625
14619TIP3    H265349   4.730   6.218   3.777  1.3743 -0.4088  0.5082
14620TIP3   OH265350   3.873   4.388   4.184  0.6006 -0.6140 -0.2482
14620TIP3    H165351   3.850   4.350   4.099  0.3297  1.4241 -1.1467
14620TIP3    H265352   3.878   4.483   4.167  0.8968 -0.1948  1.9348
14621TIP3   OH265353   5.926   2.062   4.603  0.6716 -0.3032  0.0522
14621TIP3    H165354   5.879   2.016   4.673 -0.7208 -0.2851 -0.8317
14621TIP3    H265355   5.882   2.033   4.523  1.2535  0.8442 -0.6943
14622TIP3   OH265356   4.787   4.367   4.810 -0.3146 -0.2203  0.7690
14622TIP3    H165357   4.735   4.405   4.880  0.6902  0.3767  1.2017
14622TIP3    H265358   4.871   4.412   4.814  1.5384 -3.4672  2.3310
14623TIP3   OH265359   4.416   1.481   2.930 -0.1653 -0.0530  0.2751
14623TIP3    H165360   4.484   1.531   2.975  0.1096  0.5487 -0.7720
14623TIP3    H265361   4.458   1.398   2.908  1.3692  1.4284 -3.1211
14624TIP3   OH265362   4.523   1.693   2.477  0.2601  0.2219  0.4759
14624TIP3    H165363   4.559   1.773   2.516 -0.1691  1.4756 -1.5837
14624TIP3    H265364   4.437   1.719   2.445 -0.9993 -1.7702  1.9876
14625TIP3   OH265365   6.690   1.324   1.326  0.3832 -0.1168 -0.5037
14625TIP3    H165366   6.718   1.363   1.409 -0.5288  0.1332 -0.3004
14625TIP3    H265367   6.639   1.394   1.284  0.9826 -0.1801 -1.3581
14626TIP3   OH265368   4.876   1.539   3.212  0.2870  0.5324  0.1462
14626TIP3    H165369   4.942   1.563   3.147 -0.4313 -1.8183 -1.5944
14626TIP3    H265370   4.912   1.462   3.256 -0.5851  0.1891  0.2854
14627TIP3   OH265371   1.699   1.429   5.611 -0.4570 -0.3630  0.0264
14627TIP3    H165372   1.739   1.377   5.681  1.6165 -2.2717 -2.3977
14627TIP3    H265373   1.634   1.371   5.573  0.0998 -0.2565 -1.1144
14628TIP3   OH265374   1.471   4.601   3.507 -0.1340 -0.6011  0.1514
14628TIP3    H165375   1.561   4.589   3.478  0.5284  0.4675  1.6272
14628TIP3    H265376   1.460   4.696   3.514 -1.1123 -0.7419  0.7583
14629TIP3   OH265377   4.524   3.896   2.842  0.1890 -0.0962 -0.1770
14629TIP3    H165378   4.544   3.924   2.931  0.9040  0.5375 -0.5164
14629TIP3    H265379   4.597   3.837   2.819  0.3423  0.2363 -0.5531
14630TIP3   OH265380   2.532   1.716   5.356  0.7267 -0.0237 -0.2697
14630TIP3    H165381   2.596   1.786   5.345  3.2595 -2.1514  0.0719
14630TIP3    H265382   2.519   1.710   5.451 -0.2513  0.5919 -0.3531
14631TIP3   OH265383   2.028   3.061  15.395  0.1059  0.1684  0.0536
14631TIP3    H165384   2.071   2.980  15.368 -0.0151  0.1115  0.0329
14631TIP3    H265385   1.935   3.046  15.379 -0.0224 -0.0465  0.9455
14632TIP3   OH265386   1.365   7.040   5.566  0.0495 -0.9269 -0.1149
14632TIP3    H165387   1.288   7.026   5.511  0.4093 -0.7501 -0.6749
14632TIP3    H265388   1.439   7.015   5.511  0.5483  0.9398 -0.3527
14633TIP3   OH265389   4.892   1.816  13.347 -0.1529  0.8895 -0.3333
14633TIP3    H165390   4.815   1.816  13.403 -0.7777 -0.7614 -1.1085
14633TIP3    H265391   4.942   1.893  13.374 -2.0815  2.0380  0.1664
14634TIP3   OH265392   6.047   2.681   1.707  0.2894 -0.2329 -0.2539
14634TIP3    H165393   6.118   2.737   1.739  1.3297 -0.8621 -1.3668
14634TIP3    H265394   5.978   2.741   1.682  0.2386  0.3728  1.2539
14635TIP3   OH265395   1.066   5.985   0.138 -0.3040  0.1852 -0.9120
14635TIP3    H165396   1.053   5.964   0.231  0.8655 -1.7519 -1.1402
14635TIP3    H265397   0.992   5.943   0.093  0.0657 -0.3522 -1.0199
14636TIP3   OH265398   2.336   1.764   2.205 -0.2385  0.0191 -0.7004
14636TIP3    H165399   2.315   1.845   2.250  0.1172  0.2852 -1.0082
14636TIP3    H265400   2.259   1.709   2.216 -0.4493  0.3701 -0.4278
14637TIP3   OH265401   6.703   0.756   5.393 -0.4456  0.1838 -0.2655
14637TIP3    H165402   6.739   0.845   5.389 -1.5984  0.6610 -0.5987
14637TIP3    H265403   6.664   0.751   5.481 -1.4462  0.4601 -0.6794
14638TIP3   OH265404   4.806   5.872  15.530  0.0276 -0.2223  0.2086
14638TIP3    H165405   4.747   5.798  15.541  0.4553 -0.4469  1.0528
14638TIP3    H265406   4.831   5.897  15.619  1.4998 -0.3800 -0.1285
14639TIP3   OH265407   0.584   0.655   5.180 -0.4447  0.3966 -0.2222
14639TIP3    H165408   0.610   0.722   5.116  1.3474 -0.8864 -0.9148
14639TIP3    H265409   0.574   0.576   5.128  0.4207 -0.5387  0.9988
14640TIP3   OH265410   1.301   2.778   1.483 -0.0200  0.2846 -0.0342
14640TIP3    H165411   1.266   2.795   1.571 -0.7046 -2.8370  0.3939
14640TIP3    H265412   1.279   2.857   1.433 -0.7117  1.6270  2.2649
14641TIP3   OH265413   2.334   5.077   3.592  0.0840 -0.1211  1.1439
14641TIP3    H165414   2.379   5.154   3.557 -2.1668  0.7583 -0.0107
14641TIP3    H265415   2.318   5.098   3.684  0.9369  0.0537  1.2579
14642TIP3   OH265416   3.829   1.237  12.034 -0.1657 -0.3945 -0.0593
14642TIP3    H165417   3.810   1.222  11.942 -0.6272 -2.5074  0.3380
14642TIP3    H265418   3.855   1.152  12.068 -1.6065 -0.0453  2.1313
14643TIP3   OH265419   4.457   0.354  10.325  0.5049  0.0122  0.2793
14643TIP3    H165420   4.443   0.434  10.274  1.5949  1.0471  1.5396
14643TIP3    H265421   4.370   0.313  10.329 -0.0164  0.9733 -0.6235
14644TIP3   OH265422   2.256   3.226   4.857  1.1326  0.1539 -0.1055
14644TIP3    H165423   2.255   3.142   4.904  2.1134  0.6316  0.8302
14644TIP3    H265424   2.256   3.202   4.765  1.4080 -0.8865  0.1450
14645TIP3   OH265425   5.435   0.826   0.005  0.3844  0.1128 -0.0128
14645TIP3    H165426   5.382   0.764   0.055  0.4600  1.1665  1.4234
14645TIP3    H265427   5.388   0.909   0.012  0.5093  0.3467 -1.5527
14646TIP3   OH265428   2.645   2.136   2.103  0.3213 -0.1352  0.0637
14646TIP3    H165429   2.731   2.155   2.065 -0.8670 -0.7524 -3.2358
14646TIP3    H265430   2.592   2.213   2.083 -0.0874  0.0115  1.5983
14647TIP3   OH265431   5.086   5.698   1.923  0.3453 -0.0394  0.3335
14647TIP3    H165432   5.098   5.700   1.828 -0.1885  0.7415  0.2759
14647TIP3    H265433   5.173   5.715   1.959  0.7751 -1.4353  0.0101
14648TIP3   OH265434   7.099   0.139   3.580  0.4587  0.3819  0.1615
14648TIP3    H165435   7.027   0.114   3.638  1.5670 -1.0489  1.0106
14648TIP3    H265436   7.082   0.231   3.559 -2.7022 -0.4263 -1.3731
14649TIP3   OH265437   3.982   6.179   4.490 -0.1036 -0.4413 -0.0169
14649TIP3    H165438   3.914   6.219   4.545  0.1578 -1.2101  0.8826
14649TIP3    H265439   3.937   6.110   4.441 -0.3143  0.1766 -0.7207
14650TIP3   OH265440   1.632   2.758  12.246 -0.3840  0.0035 -0.3349
14650TIP3    H165441   1.692   2.768  12.171  0.6945 -0.8617  0.3786
14650TIP3    H265442   1.685   2.783  12.322  0.3986 -4.2190  0.7823
14651TIP3   OH265443   6.535   7.123   5.385  0.2073 -0.0791 -0.4849
14651TIP3    H165444   6.460   7.064   5.389  0.5881 -0.5257  0.4651
14651TIP3    H265445   6.546   7.153   5.476  1.1440  0.0188 -0.6214
14652TIP3   OH265446   5.359   0.304   4.689  0.9113 -0.3344 -0.5259
14652TIP3    H165447   5.294   0.265   4.630  1.8490 -0.1274 -1.7335
14652TIP3    H265448   5.307   0.356   4.750 -0.0195  0.5258 -1.9993
14653TIP3   OH265449   0.376   3.747   3.326 -0.3347 -0.0137 -0.0828
14653TIP3    H165450   0.336   3.763   3.411 -1.0638 -1.4490 -0.1268
14653TIP3    H265451   0.321   3.796   3.264 -0.5696 -0.0116  0.1279
14654TIP3   OH265452   0.332   3.576  11.983  0.0754 -0.2515  0.4715
14654TIP3    H165453   0.416   3.538  12.008  0.9652  1.2648 -0.1030
14654TIP3    H265454   0.353   3.665  11.956 -1.7547  0.2206  0.4920
14655TIP3   OH265455   4.999   0.639   5.087 -0.3249  0.0955 -0.3775
14655TIP3    H165456   4.928   0.684   5.133 -0.5401 -0.2430 -0.3734
14655TIP3    H265457   5.066   0.627   5.153 -0.4690 -0.0289 -0.2527
14656TIP3   OH265458   0.806   3.387  14.637  0.0981 -0.1218 -0.1419
14656TIP3    H165459   0.724   3.436  14.644 -0.4645 -1.1596  1.0475
14656TIP3    H265460   0.874   3.453  14.649 -0.5560  0.7477 -1.0948
14657TIP3   OH265461   6.070   1.738   5.978  0.7402  0.0320  0.2808
14657TIP3    H165462   6.078   1.769   6.068 -0.6239  1.6216 -0.0944
14657TIP3    H265463   6.007   1.798   5.938  0.6908 -1.1518 -1.5071
14658TIP3   OH265464   2.689   1.993   3.049 -0.2946  0.1429  0.5893
14658TIP3    H165465   2.765   1.953   3.093  1.2638  1.2399 -0.9733
14658TIP3    H265466   2.650   1.921   2.999 -0.2456 -0.4100  1.3235
14659TIP3   OH265467   1.303   2.752   3.863  0.0339 -0.2298 -0.3213
14659TIP3    H165468   1.355   2.715   3.792  2.1869 -0.2929  1.1859
14659TIP3    H265469   1.364   2.809   3.909 -1.7773  1.1130  0.5025
14660TIP3   OH265470   3.854   6.021  15.349  0.1511  0.2080  0.4132
14660TIP3    H165471   3.761   6.026  15.329  0.3499 -1.8054 -1.3296
14660TIP3    H265472   3.888   6.107  15.325 -0.7667 -0.0185 -1.9878
14661TIP3   OH265473   5.549   5.072   1.429 -0.5486  0.3891  0.6531
14661TIP3    H165474   5.468   5.026   1.451 -0.9725  0.9564  0.3055
14661TIP3    H265475   5.589   5.020   1.360  0.3194 -0.8951  2.0587
14662TIP3   OH265476   0.354   0.378  13.071  0.4716  0.6434  0.4114
14662TIP3    H165477   0.413   0.454  13.066  0.9504  0.1871 -2.5927
14662TIP3    H265478   0.411   0.302  13.061 -0.3618  0.0613 -0.0407
14663TIP3   OH265479   5.788   4.933   0.114  0.5795  0.3687  0.3789
14663TIP3    H165480   5.810   4.997   0.182  0.9665  0.4101  0.2125
14663TIP3    H265481   5.702   4.962   0.082  1.0176  1.1723 -0.1204
14664TIP3   OH265482   5.586   5.247  14.617 -0.3703 -0.1616 -0.3885
14664TIP3    H165483   5.556   5.159  14.596  0.1473 -0.2232 -0.9055
14664TIP3    H265484   5.509   5.303  14.605 -0.9041 -0.6479  0.7260
14665TIP3   OH265485   1.764   2.649  13.694  0.5093  0.5327 -0.2979
14665TIP3    H165486   1.854   2.635  13.666  1.0565  0.9503  1.1645
14665TIP3    H265487   1.747   2.579  13.757 -0.0938  0.6421 -0.3248
14666TIP3   OH265488   1.266   4.795  13.110 -0.1157  0.0907  0.6971
14666TIP3    H165489   1.350   4.815  13.070 -0.2274  0.9391  0.8715
14666TIP3    H265490   1.218   4.747  13.043  0.1641  0.4085  0.2659
14667TIP3   OH265491   4.306   1.221   0.081 -0.3508  0.4390  0.2645
14667TIP3    H165492   4.269   1.172   0.008 -0.0650 -1.5553  1.3898
14667TIP3    H265493   4.234   1.231   0.143 -0.1352  0.5192  0.5075
14668TIP3   OH265494   1.257   0.908   0.980  0.2129  0.2865  0.6052
14668TIP3    H165495   1.253   0.814   1.001 -1.2696  0.2961  0.4233
14668TIP3    H265496   1.328   0.941   1.036 -1.0243 -0.4480  2.7274
14669TIP3   OH265497   0.871   3.652   3.188  0.0432 -0.0552  0.0036
14669TIP3    H165498   0.967   3.648   3.185  0.0368 -0.0826 -0.2119
14669TIP3    H265499   0.848   3.722   3.128 -0.0605  0.1487  0.2785
14670TIP3   OH265500   0.028   4.759   2.794 -0.2051 -0.3589  0.1134
14670TIP3    H165501  -0.005   4.689   2.850  0.5705 -1.4444 -0.7572
14670TIP3    H265502  -0.039   4.827   2.799 -0.0336 -0.2907  2.5542
14671TIP3   OH265503   3.888   2.404   1.880  0.0489  0.1961  0.1802
14671TIP3    H165504   3.813   2.422   1.936 -1.4071  1.0030 -1.9044
14671TIP3    H265505   3.918   2.490   1.851  0.9953 -0.1822 -0.0330
14672TIP3   OH265506   6.814   5.631   4.527 -0.5950 -0.5144  0.1827
14672TIP3    H165507   6.787   5.542   4.505 -0.6930 -0.8436  1.5074
14672TIP3    H265508   6.756   5.687   4.476  0.4576 -1.1635 -1.8391
14673TIP3   OH265509   3.758   5.726  11.318  0.1118  0.0190 -0.6089
14673TIP3    H165510   3.754   5.630  11.327  1.0862  0.1038  0.9405
14673TIP3    H265511   3.811   5.740  11.240 -1.0111 -0.6926 -1.5369
14674TIP3   OH265512   5.543   6.610   4.866 -0.2625  0.2109 -0.5631
14674TIP3    H165513   5.557   6.515   4.861 -2.1590 -0.3047  1.8840
14674TIP3    H265514   5.617   6.642   4.917 -0.7259 -0.3312  0.4800
14675TIP3   OH265515   3.532   5.305  15.690  0.6638 -0.1668 -0.0897
14675TIP3    H165516   3.556   5.314  15.598 -0.4814 -0.6494 -0.4556
14675TIP3    H265517   3.496   5.216  15.696  0.2136  0.0627  0.6978
14676TIP3   OH265518   4.002   4.874   4.647 -0.0645 -0.5180  0.3797
14676TIP3    H165519   3.933   4.901   4.586  0.5296 -1.6839 -0.8695
14676TIP3    H265520   4.055   4.953   4.658  0.3018 -0.4848 -1.3212
14677TIP3   OH265521   1.630   2.636  11.029  0.4024  0.3876  0.2995
14677TIP3    H165522   1.643   2.546  10.999 -0.7725  0.1977  0.2998
14677TIP3    H265523   1.575   2.676  10.962 -0.0373  0.7542  0.8660
14678TIP3   OH265524   1.024   6.473   5.334  0.0175  0.3836  0.1570
14678TIP3    H165525   1.026   6.431   5.420 -0.7511  0.7618  0.3711
14678TIP3    H265526   0.932   6.468   5.307  0.3587 -0.2650 -0.9221
14679TIP3   OH265527   0.248   5.435   1.643  0.3414 -0.4997 -0.3244
14679TIP3    H165528   0.213   5.499   1.581 -2.4196  0.7752  2.2562
14679TIP3    H265529   0.323   5.478   1.684  1.2924 -0.7900 -1.7118
14680TIP3   OH265530   0.987   2.807   0.749 -0.2473  0.5758  0.4147
14680TIP3    H165531   1.033   2.877   0.703 -0.7540 -1.3495 -3.4102
14680TIP3    H265532   0.900   2.807   0.710 -0.3537 -1.9517  0.5192
14681TIP3   OH265533   5.636   1.501   9.667  0.4678 -0.1175  0.1612
14681TIP3    H165534   5.637   1.558   9.591  1.7568 -0.2919  0.0393
14681TIP3    H265535   5.611   1.415   9.633  2.6671 -0.5980 -0.3936
14682TIP3   OH265536   6.861   1.480   3.947  0.2655 -0.3215  0.2979
14682TIP3    H165537   6.825   1.399   3.985 -1.4657  0.1208 -0.3338
14682TIP3    H265538   6.801   1.502   3.876  0.4269  1.7873  0.7557
14683TIP3   OH265539   0.084   3.812   3.846  0.0751 -0.0578 -0.4464
14683TIP3    H165540   0.100   3.775   3.933  0.6669 -1.2574 -1.0370
14683TIP3    H265541   0.019   3.881   3.861 -1.8132 -1.9270  0.6031
14684TIP3   OH265542   3.228   5.611   3.562  0.4685 -0.4792  0.4435
14684TIP3    H165543   3.313   5.587   3.599  0.9773  0.5163 -0.0648
14684TIP3    H265544   3.181   5.653   3.634  0.3189 -1.2035  0.7800
14685TIP3   OH265545   1.154   0.179   2.328  0.0759  0.3513  0.0371
14685TIP3    H165546   1.082   0.119   2.311  0.0728  0.2070  0.5311
14685TIP3    H265547   1.111   0.259   2.360  0.0986  0.4860 -0.2736
14686TIP3   OH265548   1.484   3.422   4.499 -0.0956  0.1313  0.0648
14686TIP3    H165549   1.547   3.357   4.470  1.6061  2.1632 -1.0143
14686TIP3    H265550   1.498   3.428   4.594  0.5385 -0.2447 -0.0006
14687TIP3   OH265551   4.797   1.942  12.604 -0.0096 -0.2584 -0.5328
14687TIP3    H165552   4.741   2.017  12.584 -0.4745  0.1908  2.1024
14687TIP3    H265553   4.832   1.961  12.690  2.0383 -1.8562 -0.9393
14688TIP3   OH265554   2.545   3.501   4.762  0.1851 -0.0455  0.1760
14688TIP3    H165555   2.592   3.576   4.726 -1.1496  1.8019  2.0869
14688TIP3    H265556   2.454   3.530   4.769  0.2052 -0.3218  4.4375
14689TIP3   OH265557   0.720   4.012   3.528 -0.1190 -0.2319 -0.5960
14689TIP3    H165558   0.657   3.998   3.600  0.3195 -0.0845 -0.1783
14689TIP3    H265559   0.700   3.944   3.465  2.2325 -3.1731  1.5541
14690TIP3   OH265560   0.829   3.123   1.556 -0.1731 -0.5372 -0.6293
14690TIP3    H165561   0.802   3.111   1.646  0.9217  2.0171  0.1464
14690TIP3    H265562   0.910   3.072   1.548  0.1173 -0.2135  0.0939
14691TIP3   OH265563   3.606   3.326   3.919  0.0514 -1.2163 -0.1888
14691TIP3    H165564   3.588   3.263   3.990 -0.3102 -0.7099  0.1779
14691TIP3    H265565   3.528   3.381   3.916  0.3426 -0.8191 -0.5468
14692TIP3   OH265566   4.980   3.097   5.268 -0.1746  0.0900 -0.1830
14692TIP3    H165567   5.065   3.096   5.224 -0.3082  1.2354 -0.4874
14692TIP3    H265568   4.918   3.116   5.199 -0.3912  1.9087  0.4599
14693TIP3   OH265569   4.082   3.511   2.486 -0.1908  0.2101  0.3301
14693TIP3    H165570   3.989   3.502   2.507  0.1774 -2.4352  1.2211
14693TIP3    H265571   4.084   3.524   2.391 -1.4660  0.9014  0.3740
14694TIP3   OH265572   5.946   6.423   3.750  0.8535 -0.4033 -0.0159
14694TIP3    H165573   5.852   6.415   3.762  1.0469 -1.7965  0.8739
14694TIP3    H265574   5.958   6.502   3.697 -0.7626  0.1236  0.3701
14695TIP3   OH265575   3.732   2.613   0.678 -0.0795  0.1920 -0.1253
14695TIP3    H165576   3.762   2.660   0.600 -0.6400  1.2216  0.2715
14695TIP3    H265577   3.784   2.532   0.678  2.1009  1.4997  0.0501
14696TIP3   OH265578   6.591   2.653   4.024  0.5888  0.1041 -0.4665
14696TIP3    H165579   6.674   2.678   3.981  0.2125 -0.0972 -1.3299
14696TIP3    H265580   6.525   2.665   3.956  0.3330 -3.0897 -0.9503
14697TIP3   OH265581   3.421   3.372  12.304 -0.0895 -0.4947  0.4957
14697TIP3    H165582   3.385   3.431  12.369 -2.9570  0.0786 -1.4514
14697TIP3    H265583   3.408   3.417  12.220  0.4214 -2.5750 -0.7769
14698TIP3   OH265584   2.175   1.604  14.263  0.1622 -0.0659  0.0855
14698TIP3    H165585   2.231   1.548  14.317 -0.7705  0.0973  1.2691
14698TIP3    H265586   2.234   1.642  14.198  1.0427 -1.4368  0.0446
14699TIP3   OH265587   3.768   6.160   2.691 -0.0088 -0.0528  0.5673
14699TIP3    H165588   3.830   6.181   2.621 -0.3147  0.2713  0.3918
14699TIP3    H265589   3.740   6.245   2.725 -0.2355 -0.2014  0.7523
14700TIP3   OH265590   4.410   2.316   4.364 -0.2494 -0.3115  0.5057
14700TIP3    H165591   4.470   2.272   4.304 -0.0332 -0.4484  0.8224
14700TIP3    H265592   4.398   2.403   4.326  0.2952 -0.2176  0.5336
14701TIP3   OH265593   2.163   6.395   6.112  0.0028 -0.0346  0.2659
14701TIP3    H165594   2.120   6.439   6.185  1.0797  0.1218  0.8371
14701TIP3    H265595   2.092   6.354   6.063 -0.7495 -0.1357  1.3975
14702TIP3   OH265596   6.341   0.758   2.409  0.1569 -0.3778  0.1511
14702TIP3    H165597   6.328   0.848   2.441 -0.7250 -0.7244  0.8110
14702TIP3    H265598   6.312   0.760   2.318  0.9669  0.1980 -0.1113
14703TIP3   OH265599   7.050   1.461   4.253  0.1919 -0.4432 -0.7409
14703TIP3    H165600   7.030   1.449   4.346  1.4863  1.2150 -0.1942
14703TIP3    H265601   6.972   1.504   4.218 -0.0022 -0.3683 -0.2304
14704TIP3   OH265602   1.725   3.170   5.462  0.0877 -0.1024 -0.3142
14704TIP3    H165603   1.705   3.104   5.397 -0.0993  1.0231 -1.4326
14704TIP3    H265604   1.662   3.155   5.532 -0.4894 -0.5846 -0.9290
14705TIP3   OH265605   1.301   5.214  12.765 -0.4008 -0.3970 -0.1320
14705TIP3    H165606   1.221   5.244  12.809  1.7660  1.8843  2.6797
14705TIP3    H265607   1.304   5.265  12.684 -0.9452  0.8234  0.5848
14706TIP3   OH265608   3.533   5.435  12.076  0.3782 -0.0365  0.5893
14706TIP3    H165609   3.532   5.409  12.168 -1.9183 -1.3768  0.2525
14706TIP3    H265610   3.456   5.489  12.065  0.3533 -0.3064 -0.6569
14707TIP3   OH265611   3.251   1.550   2.428  1.0412  0.2337  0.1552
14707TIP3    H165612   3.336   1.528   2.390  1.5442  0.2143  1.2597
14707TIP3    H265613   3.223   1.469   2.471 -0.0169 -0.0623 -1.0446
14708TIP3   OH265614   6.646   6.481   4.240 -0.0756  0.0979 -0.4772
14708TIP3    H165615   6.619   6.468   4.331  2.8230 -2.2306  0.2230
14708TIP3    H265616   6.620   6.570   4.220  1.1680  1.5703  3.4633
14709TIP3   OH265617   2.491   1.954   0.514 -0.2876 -0.5939 -0.0896
14709TIP3    H165618   2.549   1.905   0.455 -0.3492  0.8599 -1.4493
14709TIP3    H265619   2.534   1.950   0.599 -0.4582 -3.2132 -0.0594
14710TIP3   OH265620   4.652   3.363   1.386 -0.0894  0.3784  0.2332
14710TIP3    H165621   4.658   3.459   1.379 -2.0419  0.4714 -1.0677
14710TIP3    H265622   4.678   3.332   1.299  1.7275 -0.3838  1.0168
14711TIP3   OH265623   4.437   5.640  14.937 -0.1218  0.2527 -0.5025
14711TIP3    H165624   4.391   5.595  15.008 -0.2959  1.0972 -0.0675
14711TIP3    H265625   4.367   5.669  14.877 -0.1113  0.9260 -0.1982
14712TIP3   OH265626   3.938   0.318  15.644  0.9512  0.8752 -0.3034
14712TIP3    H165627   3.970   0.407  15.629  1.6865  0.2702 -2.8038
14712TIP3    H265628   4.002   0.280  15.704  1.2140  1.7107 -0.0352
14713TIP3   OH265629   7.088   2.458   2.257 -0.1583  0.1654  0.1127
14713TIP3    H165630   7.081   2.363   2.267 -0.1299  0.2617  1.0820
14713TIP3    H265631   7.182   2.474   2.246 -0.3131 -0.0761 -1.8965
14714TIP3   OH265632   5.644   4.311  11.574 -0.1319 -0.4037 -0.0899
14714TIP3    H165633   5.572   4.332  11.633 -1.2791 -1.7953 -0.9419
14714TIP3    H265634   5.621   4.226  11.537  1.3045 -0.2598 -1.4122
14715TIP3   OH265635   5.474   3.903   6.018 -0.5060  0.5967  0.1841
14715TIP3    H165636   5.427   3.905   5.934 -0.0654 -0.1077 -0.0953
14715TIP3    H265637   5.444   3.822   6.060  1.6115 -0.7590 -0.7246
14716TIP3   OH265638   6.808   6.741   4.361  0.6313 -0.0066 -0.3023
14716TIP3    H165639   6.833   6.732   4.453 -0.9850  1.7579  0.3607
14716TIP3    H265640   6.713   6.747   4.362  0.6357  0.8924 -2.0059
14717TIP3   OH265641   0.309   1.906   4.725  0.3491  0.4986 -0.1723
14717TIP3    H165642   0.324   2.001   4.719  0.7981  0.4009 -0.6595
14717TIP3    H265643   0.395   1.867   4.705  0.1018 -0.0186 -0.2395
14718TIP3   OH265644   6.933   4.584  11.868  0.0659  0.6200 -0.4965
14718TIP3    H165645   6.929   4.564  11.775  1.5756 -0.7319 -0.3276
14718TIP3    H265646   6.882   4.514  11.910  1.6022 -0.3881 -0.1932
14719TIP3   OH265647   6.117   0.532   3.916  0.0010  0.6473  0.0621
14719TIP3    H165648   6.041   0.478   3.895 -0.1095  1.2012 -1.0310
14719TIP3    H265649   6.086   0.593   3.983 -0.8398  1.5558 -1.1066
14720TIP3   OH265650   6.839   2.172  13.899  0.1096 -0.3761 -0.0053
14720TIP3    H165651   6.837   2.228  13.821 -0.6123  1.2422  1.1199
14720TIP3    H265652   6.756   2.124  13.896 -0.3322  0.3675  0.2403
14721TIP3   OH265653   5.510   2.863   3.692  0.0639  0.2913 -0.5589
14721TIP3    H165654   5.585   2.809   3.716 -0.1843 -0.0821 -0.6041
14721TIP3    H265655   5.467   2.814   3.622  0.7956  1.3736 -1.8224
14722TIP3   OH265656   4.653   2.817   3.410  0.0032 -0.0781  0.2239
14722TIP3    H165657   4.649   2.830   3.505 -1.5146 -0.5271  0.2386
14722TIP3    H265658   4.699   2.734   3.399 -0.3457 -0.3202  0.5924
14723TIP3   OH265659   6.345   0.940   1.087 -0.3122  0.9528  0.2314
14723TIP3    H165660   6.374   0.853   1.113 -1.2195  0.3548 -0.6662
14723TIP3    H265661   6.342   0.991   1.168 -0.2831 -0.0078  0.8403
14724TIP3   OH265662   1.038   5.999  14.629  0.2288 -0.2394  0.1053
14724TIP3    H165663   0.997   5.915  14.609  2.5536 -1.2876 -0.5807
14724TIP3    H265664   0.983   6.064  14.586 -1.0764 -1.4965 -0.1668
14725TIP3   OH265665   1.973   4.222   2.166  0.4874 -0.3851  0.6345
14725TIP3    H165666   1.892   4.179   2.140  0.0063  2.0658 -2.5577
14725TIP3    H265667   2.041   4.156   2.150 -0.4890 -1.0656 -0.8789
14726TIP3   OH265668   2.269   0.483  15.619 -0.0515  0.4951  0.1232
14726TIP3    H165669   2.192   0.513  15.666 -0.4841  1.3769 -1.0990
14726TIP3    H265670   2.306   0.562  15.581  0.3113 -0.1816 -0.9650
14727TIP3   OH265671   3.756   7.137   4.836 -0.2558  0.2426 -0.2966
14727TIP3    H165672   3.784   7.206   4.776  1.1052 -1.2849 -1.4925
14727TIP3    H265673   3.835   7.086   4.853 -0.8568 -0.0612  1.9312
14728TIP3   OH265674   0.062   3.139   0.688 -0.1056 -0.5502 -0.3584
14728TIP3    H165675   0.010   3.073   0.642  0.5856  0.1820 -2.2683
14728TIP3    H265676   0.153   3.117   0.667  0.2017  0.1955  0.1287
14729TIP3   OH265677   5.029   0.084   4.554  0.7156 -0.1263  0.3213
14729TIP3    H165678   5.071   0.069   4.469 -0.0799 -1.7086  0.1757
14729TIP3    H265679   5.026   0.179   4.562 -0.7180  0.1427 -2.2214
14730TIP3   OH265680   4.119   1.245   4.009 -0.5390 -0.2301  0.0457
14730TIP3    H165681   4.213   1.252   4.026 -0.6928  1.5445  0.3676
14730TIP3    H265682   4.099   1.153   4.026  1.1925 -0.7384 -0.3898
14731TIP3   OH265683   1.840   3.994   2.003 -0.4639 -0.7810 -0.3716
14731TIP3    H165684   1.883   3.970   1.921  0.3709 -2.6174  0.5338
14731TIP3    H265685   1.886   3.943   2.070 -1.0629  0.7320  1.2616
14732TIP3   OH265686   5.367   5.430   3.630 -0.2836  0.2127 -0.0989
14732TIP3    H165687   5.435   5.372   3.665 -0.1113  1.6312  2.0859
14732TIP3    H265688   5.287   5.400   3.673 -0.3346  1.0573  0.3988
14733TIP3   OH265689   0.391   6.368   5.652  0.3272 -0.4904 -0.1519
14733TIP3    H165690   0.302   6.371   5.687 -0.2943 -1.1716 -1.5700
14733TIP3    H265691   0.446   6.400   5.723 -0.9390 -1.0525  1.1380
14734TIP3   OH265692   6.863   2.241   1.076  0.1077  0.2789  0.0612
14734TIP3    H165693   6.907   2.186   1.141  0.0365 -0.8030 -0.7902
14734TIP3    H265694   6.932   2.299   1.044  0.4289 -0.0140  0.2169
14735TIP3   OH265695   1.508   6.783   5.192  0.8431 -0.1348  0.1347
14735TIP3    H165696   1.434   6.843   5.194 -0.3747 -1.5786 -0.1256
14735TIP3    H265697   1.563   6.815   5.120  0.5278  0.9796  0.3654
14736TIP3   OH265698   2.058   1.171   1.836 -0.3099  0.5510 -0.0537
14736TIP3    H165699   2.132   1.152   1.778 -0.4051 -0.5971  0.1662
14736TIP3    H265700   1.994   1.215   1.779 -0.2993 -0.3360 -0.7798
14737TIP3   OH265701   2.226   5.570  15.744 -0.4259 -0.4988 -0.4336
14737TIP3    H165702   2.247   5.496  15.800  1.5156  0.9411  0.8604
14737TIP3    H265703   2.169   5.625  15.797  2.9819  1.8566  1.1261
14738TIP3   OH265704   5.943   5.144   2.030 -0.4435  0.2888  0.2509
14738TIP3    H165705   5.971   5.206   1.962 -0.5506  1.5077  1.2774
14738TIP3    H265706   5.899   5.074   1.982  0.1568  0.7422 -0.9946
14739TIP3   OH265707   3.579   6.225   3.431  0.2545 -0.2264  0.3881
14739TIP3    H165708   3.649   6.160   3.425  1.3200  0.6884  2.2226
14739TIP3    H265709   3.517   6.198   3.363  1.0654 -2.6301  0.4878
14740TIP3   OH265710   5.374   3.426   1.292 -0.1913 -0.1760 -0.2318
14740TIP3    H165711   5.401   3.494   1.354  0.0638  1.0032 -1.5816
14740TIP3    H265712   5.453   3.377   1.273 -0.2934 -0.6125  0.4421
14741TIP3   OH265713   3.494   7.094  14.222 -0.2809  0.3408  0.7964
14741TIP3    H165714   3.399   7.102  14.214 -0.3094 -1.1504 -1.2664
14741TIP3    H265715   3.508   7.009  14.265  0.0397 -0.9437 -1.6289
14742TIP3   OH265716   0.162   0.455  11.822 -0.0062  0.4420 -0.4450
14742TIP3    H165717   0.142   0.378  11.875  0.6884  0.5142 -0.0686
14742TIP3    H265718   0.087   0.513  11.836 -0.6160 -0.2320 -0.8719
14743TIP3   OH265719   3.950   4.774   5.414  0.1053  0.2334  0.1928
14743TIP3    H165720   3.900   4.855   5.426  0.8079  0.6125  0.6372
14743TIP3    H265721   3.886   4.710   5.385 -0.2735  1.2561 -1.4040
14744TIP3   OH265722   4.884   3.136   1.028  0.1879  0.7931  0.6604
14744TIP3    H165723   4.971   3.113   0.996  0.3048  2.6762 -0.4965
14744TIP3    H265724   4.824   3.085   0.974  0.5229  0.3736  0.6804
14745TIP3   OH265725   4.817   2.396  12.847  0.3921 -0.3476 -0.7374
14745TIP3    H165726   4.761   2.386  12.924  0.7783  2.4232  0.0309
14745TIP3    H265727   4.757   2.420  12.776  0.2931 -0.1370 -0.5850
14746TIP3   OH265728   6.026   2.295   0.197 -0.0403  0.3191 -0.1985
14746TIP3    H165729   5.967   2.260   0.130 -0.1169 -1.5187  0.7656
14746TIP3    H265730   5.982   2.278   0.280  1.3747 -0.2407  0.4826
14747TIP3   OH265731   4.079   3.568  15.101 -0.4246  0.3664 -0.4757
14747TIP3    H165732   4.033   3.484  15.094  0.6661 -0.3876  0.7744
14747TIP3    H265733   4.170   3.546  15.077  0.2284  0.7943  1.4221
14748TIP3   OH265734   4.196   6.079   5.994  0.1618 -0.4604 -0.1713
14748TIP3    H165735   4.110   6.116   6.013 -0.6704 -3.3364  2.6421
14748TIP3    H265736   4.184   6.030   5.913 -0.0484  1.2166 -1.2074
14749TIP3   OH265737   6.910   3.478   2.491  0.0461 -0.4024 -0.3974
14749TIP3    H165738   6.860   3.474   2.572  1.0103 -0.4106  0.2047
14749TIP3    H265739   6.890   3.564   2.455 -1.9961 -1.1505 -1.2289
14750TIP3   OH265740   2.641   0.031   4.113  0.2591 -0.4410  0.0651
14750TIP3    H165741   2.599   0.018   4.197 -1.5324 -0.2358 -0.7425
14750TIP3    H265742   2.700   0.105   4.126  0.5280 -0.8600  1.2916
14751TIP3   OH265743   5.086   0.931   1.641  0.2679 -0.0712 -0.2469
14751TIP3    H165744   5.174   0.897   1.626 -0.2636 -0.3018 -3.5502
14751TIP3    H265745   5.031   0.853   1.646 -0.4043 -0.0505 -3.9775
14752TIP3   OH265746   2.124   2.621  12.707  0.5510  0.0682 -0.5113
14752TIP3    H165747   2.181   2.670  12.766  1.2761 -0.0479 -1.1009
14752TIP3    H265748   2.050   2.679  12.690 -1.0947 -0.8707  2.6396
14753TIP3   OH265749   5.267   1.356  14.452  0.1736  0.4960 -0.9043
14753TIP3    H165750   5.215   1.345  14.372  0.6733  1.9612 -1.4748
14753TIP3    H265751   5.203   1.376  14.520 -0.0754  1.9066 -1.5179
14754TIP3   OH265752   4.146   5.951   1.766 -0.0071  0.2178 -0.1389
14754TIP3    H165753   4.186   5.961   1.851 -1.8209  1.6018  0.6223
14754TIP3    H265754   4.144   6.039   1.729 -0.9509 -0.0423 -0.7621
14755TIP3   OH265755   4.470   1.412   0.173  0.1598 -0.5141 -0.6452
14755TIP3    H165756   4.496   1.414   0.265  0.0357  2.5265 -0.5870
14755TIP3    H265757   4.408   1.339   0.168  0.0505 -0.6648  1.7185
14756TIP3   OH265758   5.266   3.031  14.640 -0.0207  0.6871 -0.3519
14756TIP3    H165759   5.257   2.993  14.552  1.2114 -1.0128  0.2140
14756TIP3    H265760   5.180   3.070  14.657 -0.4566  0.6174 -2.1015
14757TIP3   OH265761   6.310   5.725  11.182  0.4546  0.1456  0.1182
14757TIP3    H165762   6.242   5.785  11.151  0.1818  0.0782  0.5759
14757TIP3    H265763   6.267   5.674  11.250  0.7445 -0.4319 -0.1246
14758TIP3   OH265764   5.933   3.525  13.650 -0.1055 -0.3457 -0.2510
14758TIP3    H165765   5.978   3.476  13.718  0.8303  1.1696  0.2791
14758TIP3    H265766   5.966   3.488  13.568  2.3859  0.8740  0.1175
14759TIP3   OH265767   0.092   1.508  14.913  0.0796  0.1310 -0.7445
14759TIP3    H165768   0.082   1.417  14.887 -0.7646  0.5349 -1.9193
14759TIP3    H265769   0.006   1.547  14.900  0.3635  1.0486 -0.0285
14760TIP3   OH265770   2.550   1.891   1.733  0.5945 -0.1612 -0.8292
14760TIP3    H165771   2.577   1.802   1.714  1.0446  0.2344 -2.1585
14760TIP3    H265772   2.498   1.884   1.813  0.6292 -1.6033 -0.9116
14761TIP3   OH265773   0.775   6.033  12.201 -0.8807  0.4438 -0.3913
14761TIP3    H165774   0.797   6.083  12.123 -0.3299 -0.0657 -0.5691
14761TIP3    H265775   0.707   5.971  12.172 -1.1058  0.6568 -0.3220
14762TIP3   OH265776   2.183   0.344   3.890 -0.0524  0.3830 -0.0687
14762TIP3    H165777   2.155   0.432   3.913 -0.8616 -0.0326  0.5818
14762TIP3    H265778   2.149   0.289   3.960  2.9294 -0.1009  1.1298
14763TIP3   OH265779   0.131   1.328   3.625 -0.5152 -0.3423  0.2635
14763TIP3    H165780   0.045   1.323   3.584 -0.8186  0.4361  0.7723
14763TIP3    H265781   0.183   1.383   3.565 -1.1730  1.4059  1.2300
14764TIP3   OH265782   2.396   6.314   0.057 -0.0749 -0.0906  0.1197
14764TIP3    H165783   2.398   6.236   0.113  0.2676  0.2053  0.5314
14764TIP3    H265784   2.415   6.387   0.117 -0.3883  0.3099 -0.2589
14765TIP3   OH265785   0.469   1.548   5.680  0.3667  0.3440 -0.3949
14765TIP3    H165786   0.564   1.557   5.689  0.3641  0.2668 -0.2906
14765TIP3    H265787   0.439   1.520   5.767  0.2904  0.0233 -0.5211
14766TIP3   OH265788   4.933   6.880   1.763 -0.1341 -0.0101 -0.7656
14766TIP3    H165789   4.977   6.959   1.792 -0.5822  0.2506 -0.7944
14766TIP3    H265790   4.846   6.909   1.735 -0.0283 -0.3867 -1.5160
14767TIP3   OH265791   1.787   4.623  13.900 -0.0791  0.3111  0.5184
14767TIP3    H165792   1.807   4.640  13.808  1.5050 -1.2377  0.5187
14767TIP3    H265793   1.715   4.683  13.921 -0.2920  0.8815 -1.6376
14768TIP3   OH265794   3.835   5.528  14.011  0.3102 -0.1876  0.2238
14768TIP3    H165795   3.882   5.476  14.077 -0.5503 -1.2216  0.0664
14768TIP3    H265796   3.747   5.538  14.048  0.1349  0.1581 -0.2826
14769TIP3   OH265797   5.947   2.042   2.641 -0.2626 -0.3668  0.2920
14769TIP3    H165798   5.950   1.947   2.652  2.0978 -0.2561  1.1524
14769TIP3    H265799   5.958   2.077   2.729  1.8028  0.6617 -0.3094
14770TIP3   OH265800   4.824   0.776  15.197  0.2439 -1.0585  0.0740
14770TIP3    H165801   4.813   0.830  15.119 -0.0690 -1.1411  0.0618
14770TIP3    H265802   4.775   0.821  15.266  1.5204 -0.3216  0.5516
14771TIP3   OH265803   5.635   2.731   1.074  0.2897  0.5727 -0.2219
14771TIP3    H165804   5.589   2.672   1.015  0.5355 -0.7038  0.8225
14771TIP3    H265805   5.727   2.723   1.049  0.3242  0.4996 -0.0742
14772TIP3   OH265806   6.315   1.588   2.266 -0.0006 -0.2679  0.0527
14772TIP3    H165807   6.303   1.683   2.269  0.9772 -0.1407  0.3211
14772TIP3    H265808   6.364   1.568   2.346 -1.7679 -1.2526  0.9725
14773TIP3   OH265809   1.683   2.428   2.636 -0.2495 -0.0681  0.0007
14773TIP3    H165810   1.719   2.518   2.634  0.4937 -0.3587 -0.3245
14773TIP3    H265811   1.761   2.372   2.631 -0.7575 -0.7252 -0.6761
14774TIP3   OH265812   6.618   2.507   0.723  0.5312 -0.0796  0.0338
14774TIP3    H165813   6.530   2.478   0.702  1.0466 -1.2522 -0.5792
14774TIP3    H265814   6.676   2.441   0.684  1.6975  0.9037  0.0269
14775TIP3   OH265815   3.310   5.149  13.879  0.0095  0.3851 -1.0131
14775TIP3    H165816   3.395   5.156  13.921 -1.0958  0.9606  1.3390
14775TIP3    H265817   3.274   5.238  13.882 -1.6449 -0.2522  0.4197
14776TIP3   OH265818   0.040   0.571   1.705  0.0188  0.1156 -0.4299
14776TIP3    H165819   0.079   0.545   1.622  1.4250 -1.7478  0.7128
14776TIP3    H265820   0.103   0.632   1.744 -0.1591  0.2246 -0.3074
14777TIP3   OH265821   4.547   6.676   5.283 -0.2860  0.1882  0.0032
14777TIP3    H165822   4.500   6.624   5.348  0.9500 -0.2452  0.6018
14777TIP3    H265823   4.588   6.746   5.335  0.8664 -0.2682 -0.2659
14778TIP3   OH265824   2.657   6.816  12.188  0.3574 -0.3610 -0.5110
14778TIP3    H165825   2.689   6.887  12.244 -0.5114 -0.0777 -0.3521
14778TIP3    H265826   2.575   6.850  12.151 -0.2696 -1.4149 -0.1375
14779TIP3   OH265827   0.452   1.306   1.552 -0.1400 -0.1308  0.2776
14779TIP3    H165828   0.528   1.255   1.581  0.5509  0.9721  0.4467
14779TIP3    H265829   0.381   1.280   1.612  0.9640  1.2583  2.2973
14780TIP3   OH265830   2.186   4.043   2.184  0.3670  0.2947 -0.5677
14780TIP3    H165831   2.223   4.074   2.101 -0.4176  0.1601 -0.9800
14780TIP3    H265832   2.232   3.961   2.202 -0.0291 -0.0921 -1.2921
14781TIP3   OH265833   1.566   5.337   3.582 -0.5004  0.7361  0.1843
14781TIP3    H165834   1.642   5.286   3.609  0.4858  2.0274 -0.0177
14781TIP3    H265835   1.595   5.383   3.503 -1.6864  0.8175 -0.2223
14782TIP3   OH265836   3.306   2.689   2.349 -0.6835  0.3615 -0.5046
14782TIP3    H165837   3.219   2.725   2.334 -1.1169 -0.6053 -0.3355
14782TIP3    H265838   3.312   2.679   2.444 -1.6008 -2.4603 -0.6675
14783TIP3   OH265839   3.415   6.488   5.895  0.0640 -0.4041 -0.1431
14783TIP3    H165840   3.392   6.545   5.822  0.3311  3.2505  2.3456
14783TIP3    H265841   3.331   6.466   5.935  0.0511  0.0651  0.0993
14784TIP3   OH265842   0.865   6.437  13.666 -0.0999  0.4094 -0.6725
14784TIP3    H165843   0.865   6.436  13.761  1.2721  0.8254 -0.6524
14784TIP3    H265844   0.815   6.516  13.643  1.0274  1.2742 -0.2541
14785TIP3   OH265845   0.333   1.576   2.751  0.0880 -0.1416  0.4837
14785TIP3    H165846   0.278   1.594   2.675 -0.2288 -1.5412  0.3420
14785TIP3    H265847   0.421   1.560   2.714  0.6813  2.2409  0.7227
14786TIP3   OH265848   7.073   4.335  14.527 -0.8315  0.4821 -0.0080
14786TIP3    H165849   7.027   4.352  14.445  0.0806 -1.1504 -0.9070
14786TIP3    H265850   7.009   4.286  14.580 -0.8480  0.0223 -0.4400
14787TIP3   OH265851   2.737   2.494  11.599  0.0599  0.5411  0.6355
14787TIP3    H165852   2.670   2.441  11.556 -2.0884  1.2537  2.8979
14787TIP3    H265853   2.788   2.431  11.651 -0.5473  0.3209  0.9648
14788TIP3   OH265854   4.534   4.797   4.037 -0.0339 -0.4999  0.7009
14788TIP3    H165855   4.460   4.736   4.037  0.7775 -1.5027  1.2012
14788TIP3    H265856   4.495   4.881   4.012 -1.2966 -1.0607  0.6963
14789TIP3   OH265857   5.070   5.486   2.295  0.4803  0.4748  0.0456
14789TIP3    H165858   5.144   5.437   2.330 -0.3779 -1.3613 -0.5915
14789TIP3    H265859   5.039   5.540   2.368  0.7881 -0.7492  1.0989
14790TIP3   OH265860   3.415   1.454   2.099  0.3524  0.1750 -0.4786
14790TIP3    H165861   3.358   1.516   2.054  2.0841  2.1602 -0.0761
14790TIP3    H265862   3.487   1.440   2.038  1.8383  1.5285  0.8720
14791TIP3   OH265863   2.244   2.761   0.293 -0.2364  0.2872 -0.0100
14791TIP3    H165864   2.311   2.706   0.253 -0.5649  0.6110 -1.0392
14791TIP3    H265865   2.201   2.805   0.219 -1.1353  0.5954  0.6716
14792TIP3   OH265866   4.859   4.500  14.121 -0.1882  0.2806  0.2703
14792TIP3    H165867   4.789   4.488  14.056 -1.6752  0.2904  1.7990
14792TIP3    H265868   4.901   4.583  14.097 -1.0796  0.5628 -0.3553
14793TIP3   OH265869   2.978   3.432   4.918 -0.4999 -0.9449 -0.1344
14793TIP3    H165870   2.966   3.499   4.851  2.0940 -0.0100  0.2145
14793TIP3    H265871   2.958   3.477   5.000 -0.2460 -1.0382 -0.0195
14794TIP3   OH265872   2.313   4.844   5.711 -0.6411  0.1801 -0.3201
14794TIP3    H165873   2.256   4.771   5.733 -0.5550  0.0358 -0.5663
14794TIP3    H265874   2.260   4.898   5.651 -0.2791 -0.3168 -1.0985
14795TIP3   OH265875   6.723   2.492  10.067 -0.1979  0.4104  0.2779
14795TIP3    H165876   6.670   2.513   9.990  1.3715 -0.0291 -0.9682
14795TIP3    H265877   6.813   2.511  10.040  0.8487 -3.2956  0.6774
14796TIP3   OH265878   1.707   2.967   4.189 -0.2562 -0.0861 -0.3856
14796TIP3    H165879   1.781   2.927   4.235 -0.5948 -0.5274 -0.2168
14796TIP3    H265880   1.745   3.042   4.144  1.1579 -2.4553 -3.5988
14797TIP3   OH265881   3.055   0.882   4.511  0.4917  0.0059 -0.3171
14797TIP3    H165882   3.019   0.811   4.564  1.2552 -0.3577 -0.2782
14797TIP3    H265883   3.002   0.881   4.431 -0.4383  0.3339  0.2704
14798TIP3   OH265884   2.909   6.502  14.969 -0.1060 -0.3068 -0.1517
14798TIP3    H165885   2.938   6.411  14.968 -1.0137 -0.5990 -0.5789
14798TIP3    H265886   2.976   6.548  15.020  0.1959 -1.2686  0.3417
14799TIP3   OH265887   5.744   4.952   1.945 -0.0724 -0.1419  0.2492
14799TIP3    H165888   5.662   4.955   1.895  0.3621  2.5624 -0.4613
14799TIP3    H265889   5.800   4.893   1.896 -0.5232  0.5196 -1.1052
14800TIP3   OH265890   5.559   2.246  13.562  0.2468  0.5613  0.0383
14800TIP3    H165891   5.543   2.272  13.472 -1.3009  1.3837  0.5128
14800TIP3    H265892   5.582   2.328  13.607 -0.4908  0.4259  0.6855
14801TIP3   OH265893   1.177   4.889   5.138  0.1847  0.8365 -0.1322
14801TIP3    H165894   1.202   4.807   5.181 -1.1706  1.1527  1.3650
14801TIP3    H265895   1.228   4.957   5.182  0.7768  0.8901 -0.8820
14802TIP3   OH265896   3.612   2.227  15.417 -0.1680 -0.0179 -0.4232
14802TIP3    H165897   3.698   2.247  15.455 -0.4580 -0.2057  0.3317
14802TIP3    H265898   3.572   2.165  15.478 -1.1750  0.6907 -0.3525
14803TIP3   OH265899   1.888   3.261   0.107  0.7010  0.3546  0.3355
14803TIP3    H165900   1.811   3.280   0.161 -0.6459  0.3292 -1.4860
14803TIP3    H265901   1.940   3.341   0.109 -0.1121  0.8899  0.4016
14804TIP3   OH265902   0.142   1.813  15.000  0.5103  0.6103 -0.3825
14804TIP3    H165903   0.220   1.857  15.035  1.0388  1.0875 -2.0850
14804TIP3    H265904   0.147   1.724  15.035  1.0841  1.0203  0.6194
14805TIP3   OH265905   2.313   7.122   0.968 -0.4296 -0.7927 -0.5061
14805TIP3    H165906   2.305   7.057   0.898  1.2331 -0.0186 -1.4528
14805TIP3    H265907   2.240   7.182   0.954 -0.0325 -0.5701 -1.6654
14806TIP3   OH265908   6.953   5.056  12.022  0.5065 -0.7905  0.1508
14806TIP3    H165909   6.975   5.142  11.988  0.9096 -1.0924 -0.3731
14806TIP3    H265910   6.894   5.073  12.095 -2.6713 -0.2010 -2.3316
14807TIP3   OH265911   6.480   4.727   1.857 -0.0289 -0.1997  0.0425
14807TIP3    H165912   6.452   4.659   1.917  2.3689 -0.8975  0.4878
14807TIP3    H265913   6.438   4.705   1.774  0.9148 -2.4186  0.0999
14808TIP3   OH265914   5.934   3.400   1.243 -0.3871 -0.3246 -0.6386
14808TIP3    H165915   5.867   3.444   1.190  1.0228  1.3298 -1.1514
14808TIP3    H265916   5.979   3.342   1.182  0.0746  0.2441 -0.8515
14809TIP3   OH265917   4.521   1.099   3.526  0.3780 -0.0377 -0.1216
14809TIP3    H165918   4.524   1.042   3.603 -2.8011 -0.0281  0.1406
14809TIP3    H265919   4.436   1.142   3.531  1.5795  2.7702 -1.7528
14810TIP3   OH265920   6.234   6.832  13.807  0.4132 -0.0396 -0.8865
14810TIP3    H165921   6.221   6.762  13.743  0.7141  0.6634 -1.7252
14810TIP3    H265922   6.217   6.913  13.759  0.0516  0.4733  0.0818
14811TIP3   OH265923   1.154   3.098   2.764  0.0474  0.2345 -0.3627
14811TIP3    H165924   1.108   3.179   2.743 -0.8125 -0.3810 -0.9416
14811TIP3    H265925   1.246   3.116   2.744 -0.1662  0.9861 -0.6968
14812TIP3   OH265926   0.318   3.205  15.488  0.6786  0.8434  0.1565
14812TIP3    H165927   0.284   3.190  15.576  0.0137 -1.2531 -0.4180
14812TIP3    H265928   0.241   3.230  15.436 -0.0126 -2.9598 -0.9217
14813TIP3   OH265929   2.443   2.098   9.490  0.0595  0.5489 -0.3748
14813TIP3    H165930   2.525   2.089   9.538  0.7897  1.9248 -1.2768
14813TIP3    H265931   2.423   2.010   9.459  0.6757  0.0296  0.6740
14814TIP3   OH265932   3.414   0.872  11.339 -0.3534 -0.4885  0.1650
14814TIP3    H165933   3.481   0.910  11.396  0.6263 -1.4002 -0.3446
14814TIP3    H265934   3.452   0.878  11.251 -0.5899 -1.7322 -0.0354
14815TIP3   OH265935   1.342   5.074   5.246  0.3665 -0.2331  0.1527
14815TIP3    H165936   1.422   5.064   5.195  0.3715 -0.6535  0.2381
14815TIP3    H265937   1.371   5.089   5.336  0.3778  1.5565 -0.1133
14816TIP3   OH265938   6.453   6.602  13.117  0.2131  0.1292  0.1291
14816TIP3    H165939   6.516   6.572  13.051  0.9315  1.6542  0.0660
14816TIP3    H265940   6.450   6.531  13.181  1.0146 -0.5294 -0.5322
14817TIP3   OH265941   1.755   4.891   2.935 -0.4511  0.0683  0.2853
14817TIP3    H165942   1.776   4.816   2.878  1.4600  1.0145 -0.3417
14817TIP3    H265943   1.827   4.953   2.920 -1.6178  1.7369  1.3164
14818TIP3   OH265944   1.590   5.808   0.159 -0.0233 -0.0964  0.2316
14818TIP3    H165945   1.587   5.839   0.068  0.1628  1.3336  0.6968
14818TIP3    H265946   1.498   5.806   0.187 -0.0376  0.0073  0.1915
14819TIP3   OH265947   1.642   1.528   4.211 -0.4131 -0.3476 -0.2491
14819TIP3    H165948   1.733   1.559   4.217 -0.1801 -1.2352  2.9561
14819TIP3    H265949   1.593   1.602   4.177  1.0996  1.2144  0.8152
14820TIP3   OH265950   4.543   4.615   4.394  0.2196 -0.4184  0.2082
14820TIP3    H165951   4.456   4.587   4.422 -0.4975  0.2781 -1.1945
14820TIP3    H265952   4.599   4.602   4.470 -1.6273  1.5635  2.0568
14821TIP3   OH265953   6.736   5.477  10.561 -0.0005  0.2123  0.3478
14821TIP3    H165954   6.792   5.452  10.487 -1.8648  1.1043 -1.4291
14821TIP3    H265955   6.738   5.400  10.618  1.5955 -0.4513 -0.5189
14822TIP3   OH265956   4.186   6.717   5.384 -0.3864  0.4143  0.9089
14822TIP3    H165957   4.173   6.722   5.479 -2.5380  0.5652  0.6419
14822TIP3    H265958   4.103   6.684   5.350  0.8255 -1.0244 -0.8211
14823TIP3   OH265959   2.499   5.635   0.188  0.0641  0.8221 -0.0826
14823TIP3    H165960   2.588   5.625   0.220 -0.2791  0.8239  0.9098
14823TIP3    H265961   2.485   5.559   0.131 -0.1220 -0.5306  1.7144
14824TIP3   OH265962   2.387   6.883   0.184  0.2797 -0.4966 -0.0125
14824TIP3    H165963   2.369   6.967   0.143 -1.5280 -1.3001 -0.9804
14824TIP3    H265964   2.391   6.821   0.111 -2.2477 -1.8439  0.8822
14825TIP3   OH265965   6.261   3.850  13.210 -0.2209 -0.5470 -0.3850
14825TIP3    H165966   6.318   3.869  13.284  0.0609 -1.5994 -0.3228
14825TIP3    H265967   6.280   3.759  13.187  1.7446  0.4782 -3.4932
14826TIP3   OH265968   2.952   0.173   4.956  0.0561 -0.3766 -0.4822
14826TIP3    H165969   3.025   0.203   5.011 -1.4584  2.0159  0.3705
14826TIP3    H265970   2.880   0.159   5.017 -0.8085 -0.6739 -1.5385
14827TIP3   OH265971   0.150   2.650   0.511 -0.4675 -0.2651 -0.8123
14827TIP3    H165972   0.175   2.737   0.480 -2.4926  0.7101  0.1019
14827TIP3    H265973   0.064   2.634   0.470 -0.8121 -1.1717  0.2126
14828TIP3   OH265974   6.667   1.255   0.013  0.2046  0.0619 -0.4457
14828TIP3    H165975   6.690   1.162   0.015 -1.3831 -0.3987 -1.7397
14828TIP3    H265976   6.709   1.290  -0.065 -1.6283 -0.3066 -1.6529
14829TIP3   OH265977   5.404   5.853   1.347 -0.1435 -0.3761 -0.2019
14829TIP3    H165978   5.430   5.893   1.264 -0.9326 -0.4080 -0.4711
14829TIP3    H265979   5.434   5.914   1.414  0.7426 -0.4811 -0.4909
14830TIP3   OH265980   4.138   6.251   4.835 -0.2357  0.6750 -0.5456
14830TIP3    H165981   4.088   6.195   4.894  0.9853  0.3918  0.2483
14830TIP3    H265982   4.096   6.239   4.749 -0.1231 -1.3279 -0.3654
14831TIP3   OH265983   6.394   3.520  15.270  0.0277  0.2464  0.8985
14831TIP3    H165984   6.304   3.500  15.292 -0.5750  0.1458 -1.4051
14831TIP3    H265985   6.388   3.588  15.202  1.6724  0.3617  0.8234
14832TIP3   OH265986   7.019   5.418   3.139  0.2746 -0.3596 -0.0730
14832TIP3    H165987   7.030   5.327   3.111  1.6522  0.2022 -1.4879
14832TIP3    H265988   7.101   5.440   3.182  0.5266  0.6174 -1.0019
14833TIP3   OH265989   2.491   6.029   4.557 -1.5751 -0.1781 -0.2178
14833TIP3    H165990   2.417   5.969   4.551 -1.7934  0.0890 -0.1788
14833TIP3    H265991   2.565   5.979   4.521 -1.2415 -1.3301  1.8986
14834TIP3   OH265992   4.971   1.866   3.948  0.3307 -0.5016 -0.3463
14834TIP3    H165993   4.995   1.875   3.856  0.7703  0.2237 -0.1704
14834TIP3    H265994   4.876   1.852   3.947 -0.1071  1.9176 -0.8378
14835TIP3   OH265995   1.947   6.995   3.477 -0.2512 -0.0364 -0.1999
14835TIP3    H165996   1.997   6.991   3.395 -0.0345  0.1460 -0.0770
14835TIP3    H265997   1.999   7.050   3.535 -0.0183 -0.8009  0.3301
14836TIP3   OH265998   3.677   5.544   1.308 -0.1796 -0.2177  0.2869
14836TIP3    H165999   3.621   5.622   1.315  0.4764  0.2267  0.6444
14836TIP3    H266000   3.670   5.501   1.393 -0.8841 -0.8023 -0.0503
14837TIP3   OH266001   4.394   4.809   5.802  0.5679  0.7884 -0.4047
14837TIP3    H166002   4.387   4.899   5.770  0.3944  0.4861 -1.2460
14837TIP3    H266003   4.328   4.761   5.752  1.7342 -0.1248 -1.1256
14838TIP3   OH266004   4.119   5.818   3.613 -0.5273  0.1726 -0.3148
14838TIP3    H166005   4.067   5.898   3.610 -0.2541  0.3988  0.5841
14838TIP3    H266006   4.054   5.748   3.601 -0.5032  0.5408 -3.2793
14839TIP3   OH266007   3.632   3.143   1.990  0.0818  0.5839 -0.3314
14839TIP3    H166008   3.615   3.211   2.056  0.4816  0.5582 -0.1993
14839TIP3    H266009   3.559   3.082   2.000 -0.3766  1.0838 -0.5687
14840TIP3   OH266010   3.372   3.876   1.957 -0.2054 -0.6976 -0.4641
14840TIP3    H166011   3.293   3.823   1.970 -0.9903  0.1771 -1.4288
14840TIP3    H266012   3.400   3.856   1.867 -0.2884  0.2149 -0.6994
14841TIP3   OH266013   1.455   1.267   5.485 -0.6349 -0.1172  0.5086
14841TIP3    H166014   1.485   1.199   5.545  1.6063  0.9451  0.7131
14841TIP3    H266015   1.370   1.295   5.520 -1.1631 -2.1418  0.9268
14842TIP3   OH266016   6.733   3.632   5.235  0.0798 -0.3754  0.2993
14842TIP3    H166017   6.714   3.573   5.162 -1.3548 -0.3369  0.6140
14842TIP3    H266018   6.797   3.584   5.289 -0.9322 -1.5781  0.4605
14843TIP3   OH266019   6.143   7.010   1.799 -0.1842  0.3470 -0.3904
14843TIP3    H166020   6.050   7.014   1.818  0.1185  0.6661  1.1232
14843TIP3    H266021   6.166   7.097   1.767 -1.0304 -0.6480 -4.1260
14844TIP3   OH266022   1.251   5.088  11.381 -0.0848 -0.1072  0.2307
14844TIP3    H166023   1.206   5.095  11.466 -1.6692 -1.2190 -0.4598
14844TIP3    H266024   1.320   5.024  11.397  0.4290  0.6146  0.9818
14845TIP3   OH266025   4.166   4.354   1.213  0.1475 -0.2033 -0.0583
14845TIP3    H166026   4.194   4.265   1.191  0.7633 -0.2203  0.7581
14845TIP3    H266027   4.091   4.342   1.270 -0.5404 -0.1751 -0.9374
14846TIP3   OH266028   0.317   1.144   4.268  0.1082  0.0516 -0.1239
14846TIP3    H166029   0.265   1.181   4.339  1.6035 -2.8835  2.7934
14846TIP3    H266030   0.406   1.179   4.282  0.6227 -1.2878  0.1256
14847TIP3   OH266031   6.600   2.847   4.904 -0.3086 -0.1032  0.0470
14847TIP3    H166032   6.524   2.903   4.888  0.4365  0.7477 -0.6261
14847TIP3    H266033   6.647   2.847   4.821  2.8336  3.0903  1.5830
14848TIP3   OH266034   6.744   5.552   2.786  0.2943  0.0633  0.3046
14848TIP3    H166035   6.694   5.503   2.721  1.0238 -0.1046 -0.1510
14848TIP3    H266036   6.698   5.536   2.869 -1.0853  0.9067 -0.2727
14849TIP3   OH266037   1.558   1.972   5.674 -0.1707  0.4424 -0.0769
14849TIP3    H166038   1.470   1.965   5.713 -0.5928 -0.7977 -1.1633
14849TIP3    H266039   1.542   2.005   5.586  0.6982  2.4237  0.4605
14850TIP3   OH266040   2.866   4.884  12.064  0.6752 -0.0937  0.1324
14850TIP3    H166041   2.931   4.842  12.121  0.9912  1.3119  0.8377
14850TIP3    H266042   2.880   4.978  12.076  1.1271  0.2860 -2.6797
14851TIP3   OH266043   6.776   0.151   2.194  0.7276 -0.7144  0.1618
14851TIP3    H166044   6.708   0.123   2.133 -0.8923  0.1620  1.4650
14851TIP3    H266045   6.853   0.101   2.169 -0.3125 -1.5551 -1.5555
14852TIP3   OH266046   1.402   7.031   5.125 -0.0702 -0.3406 -0.1532
14852TIP3    H166047   1.415   7.124   5.145  0.5202 -0.4506 -0.0293
14852TIP3    H266048   1.477   7.006   5.071  0.0984 -0.8951  0.3225
14853TIP3   OH266049   5.695   4.662  15.751 -0.5041 -0.2510  0.4473
14853TIP3    H166050   5.603   4.685  15.739 -0.3184  0.6524  0.7055
14853TIP3    H266051   5.730   4.731  15.807  0.7067  0.2458 -0.8643
14854TIP3   OH266052   4.038   7.037   0.263  0.0357  0.1927 -0.2393
14854TIP3    H166053   4.001   6.987   0.336  0.4634 -0.0843 -0.2129
14854TIP3    H266054   4.107   6.981   0.228 -0.5340  0.0788 -1.2129
14855TIP3   OH266055   2.752   5.749   2.229  0.3869  0.3375 -0.4266
14855TIP3    H166056   2.702   5.668   2.230 -0.8539  1.0561 -1.0274
14855TIP3    H266057   2.761   5.773   2.321  2.7908 -1.6266 -0.0603
14856TIP3   OH266058   1.272   5.523   4.039 -0.0984  0.0824 -0.5850
14856TIP3    H166059   1.347   5.482   3.998 -1.0580 -0.4584 -1.8630
14856TIP3    H266060   1.287   5.617   4.028 -0.1117 -0.0426 -1.7980
14857TIP3   OH266061   3.982   0.353   5.607  0.0040 -0.2612 -0.4890
14857TIP3    H166062   3.999   0.266   5.571  0.1666 -1.0673  1.4501
14857TIP3    H266063   3.923   0.337   5.681  1.5632  1.0344  1.1137
14858TIP3   OH266064   5.619   4.586  11.935  0.1109 -0.3160  0.2289
14858TIP3    H166065   5.695   4.616  11.985  0.1090 -0.0168  0.0510
14858TIP3    H266066   5.656   4.548  11.855  0.0194  0.8591 -0.3903
14859TIP3   OH266067   0.504   6.178  14.080  0.2432  0.1920 -0.1180
14859TIP3    H166068   0.588   6.211  14.047 -0.0484  0.5023 -0.5547
14859TIP3    H266069   0.438   6.218  14.023 -0.1641 -0.5346 -0.1789
14860TIP3   OH266070   6.439   3.533   2.338 -0.1626  0.1761  0.3087
14860TIP3    H166071   6.401   3.565   2.256 -0.3353  1.6906  0.9407
14860TIP3    H266072   6.511   3.593   2.356  2.3048 -2.3245 -0.5846
14861TIP3   OH266073   5.721   4.760  13.024 -0.3834 -0.3709 -0.1259
14861TIP3    H166074   5.627   4.743  13.020 -0.1562 -1.9587  0.6286
14861TIP3    H266075   5.741   4.769  13.117  0.4373 -1.6097 -0.1537
14862TIP3   OH266076   6.436   0.852   4.740  0.3327 -0.4331  0.5403
14862TIP3    H166077   6.341   0.862   4.744  0.2516 -0.5844 -0.7490
14862TIP3    H266078   6.469   0.942   4.736  0.2173 -0.3914  0.5115
14863TIP3   OH266079   5.477   5.697   4.447  0.7251 -0.6764  0.1877
14863TIP3    H166080   5.478   5.735   4.535  0.3077 -0.3084  0.0374
14863TIP3    H266081   5.425   5.758   4.395 -1.9097 -2.5165  0.4344
14864TIP3   OH266082   0.045   4.738   1.808 -0.1090 -0.4282  0.1969
14864TIP3    H166083   0.019   4.650   1.780 -1.0804  0.1091 -0.6477
14864TIP3    H266084  -0.028   4.794   1.784  0.4731  0.6180  0.7717
14865TIP3   OH266085   5.080   6.450  10.803  0.6525  0.0624  0.0763
14865TIP3    H166086   5.121   6.439  10.889 -0.4291  0.3753  0.6518
14865TIP3    H266087   5.003   6.505  10.820 -0.3300 -0.9635 -0.8635
14866TIP3   OH266088   4.316   5.577   5.767  0.3631  1.1310  0.2795
14866TIP3    H166089   4.290   5.486   5.765  0.7723  1.0073  0.4297
14866TIP3    H266090   4.236   5.626   5.749 -0.0781  0.7842  1.2092
14867TIP3   OH266091   2.514   1.870  13.126 -0.4904  0.8007  0.1417
14867TIP3    H166092   2.518   1.915  13.041  2.3209  1.2373  0.4113
14867TIP3    H266093   2.532   1.938  13.190  1.0994 -0.1570  0.7628
14868TIP3   OH266094   1.618   3.059   4.924  0.0040  0.0290  0.5792
14868TIP3    H166095   1.594   3.094   5.010  0.7407 -0.3744  0.9641
14868TIP3    H266096   1.535   3.050   4.878 -0.4599 -0.2600  1.4434
14869TIP3   OH266097   6.988   5.156   2.330  0.2481 -0.7388  0.0977
14869TIP3    H166098   7.038   5.086   2.372  0.2828 -0.6780  0.1586
14869TIP3    H266099   7.026   5.237   2.364  0.4188 -0.6863 -0.2205
14870TIP3   OH266100   3.736   6.104  13.010 -0.0604 -0.0805 -0.1243
14870TIP3    H166101   3.699   6.119  12.923 -0.7639  0.7639  0.3094
14870TIP3    H266102   3.817   6.156  13.011 -0.1201  0.0135 -0.2252
14871TIP3   OH266103   0.640   5.357   4.785  0.0777 -0.2471 -0.4593
14871TIP3    H166104   0.641   5.402   4.870  0.8518  0.7094 -0.9558
14871TIP3    H266105   0.718   5.301   4.787  0.3158  0.0744 -0.6908
14872TIP3   OH266106   4.987   3.197   9.988 -0.0024 -0.8971 -0.2388
14872TIP3    H166107   4.997   3.148   9.907 -1.2464 -2.4758  0.4941
14872TIP3    H266108   4.945   3.136  10.048  0.4326  0.3745  1.4576
14873TIP3   OH266109   4.999   1.442   2.130  0.4300  0.0588  0.1110
14873TIP3    H166110   4.925   1.488   2.091  1.7225  0.9170 -1.4443
14873TIP3    H266111   4.977   1.349   2.123 -1.8231  0.3070  2.4807
14874TIP3   OH266112   2.223   4.337   4.920  0.1520  0.3425 -0.3819
14874TIP3    H166113   2.290   4.294   4.973 -0.8348 -0.0998  0.5256
14874TIP3    H266114   2.143   4.329   4.971 -0.3070  2.2009 -0.7459
14875TIP3   OH266115   0.974   0.426   2.809 -0.6371 -0.0381  0.5121
14875TIP3    H166116   1.066   0.402   2.801 -0.2677  0.1879  3.0700
14875TIP3    H266117   0.974   0.521   2.815 -0.7497 -0.1074  2.4896
14876TIP3   OH266118   6.566   5.333   3.778  0.3047  0.3731 -0.3029
14876TIP3    H166119   6.488   5.282   3.797 -0.5733  1.3689 -1.1046
14876TIP3    H266120   6.549   5.418   3.819  0.5483  0.9099 -1.2938
14877TIP3   OH266121   2.973   5.371  14.678 -0.1216 -0.3584  0.4183
14877TIP3    H166122   2.907   5.358  14.611 -0.1176 -1.9687  0.6807
14877TIP3    H266123   3.025   5.445  14.647  0.1160 -1.2984 -1.5540
14878TIP3   OH266124   3.348   1.808  14.715  0.9580  0.9046  0.5817
14878TIP3    H166125   3.331   1.854  14.632  1.9162 -0.1766 -0.2479
14878TIP3    H266126   3.416   1.744  14.693 -0.1927 -0.8074  1.7056
14879TIP3   OH266127   2.737   4.744   1.320 -0.0347  0.1575  0.0740
14879TIP3    H166128   2.718   4.762   1.412  2.1541  1.9528  0.2660
14879TIP3    H266129   2.762   4.651   1.318 -0.9405 -0.1272  1.1035
14880TIP3   OH266130   5.337   5.752  13.065  0.0964 -0.0648 -0.4260
14880TIP3    H166131   5.379   5.835  13.041 -1.3415  0.7646 -0.1955
14880TIP3    H266132   5.271   5.739  12.997 -1.7673  0.5972  1.1677
14881TIP3   OH266133   5.792   2.968   0.209  0.3613 -0.7278 -0.0716
14881TIP3    H166134   5.848   2.909   0.260  0.0359  0.9308  2.3781
14881TIP3    H266135   5.850   3.040   0.184 -0.6506  1.3691  3.1051
14882TIP3   OH266136   2.499   4.943   0.722  0.3782 -0.2546  0.3726
14882TIP3    H166137   2.594   4.941   0.715  0.3818  0.6675  0.0471
14882TIP3    H266138   2.471   5.010   0.660 -0.4851 -0.4668  0.5057
14883TIP3   OH266139   5.105   1.245  14.236  0.1262 -0.7989  0.2036
14883TIP3    H166140   5.141   1.207  14.156 -1.2262  1.5582 -1.6511
14883TIP3    H266141   5.013   1.263  14.216 -0.0168  0.7862  1.9072
14884TIP3   OH266142   5.874   3.157   2.307  0.0133 -0.1751  0.2816
14884TIP3    H166143   5.889   3.249   2.289 -0.8741 -0.0262  0.2762
14884TIP3    H266144   5.933   3.111   2.246 -0.0209  0.3758 -0.1775
14885TIP3   OH266145   3.619   0.177   2.553  0.5736 -0.0709 -0.0731
14885TIP3    H166146   3.558   0.243   2.518 -0.1480 -0.6295  0.1116
14885TIP3    H266147   3.623   0.110   2.485 -0.1592 -0.7404  0.5302
14886TIP3   OH266148   3.562   5.529   1.008 -0.3771 -0.8649 -1.0212
14886TIP3    H166149   3.607   5.533   1.092  0.3762 -0.9683 -1.4070
14886TIP3    H266150   3.499   5.458   1.017 -0.3528 -0.8292 -0.5280
14887TIP3   OH266151   6.747   5.168  15.580 -0.5269  0.0710 -0.2242
14887TIP3    H166152   6.791   5.138  15.659 -0.7627  2.3701  0.8780
14887TIP3    H266153   6.818   5.185  15.518  0.1301  2.4434  1.0639
14888TIP3   OH266154   2.446   1.143   1.839  0.0278  0.5104 -0.2884
14888TIP3    H166155   2.535   1.113   1.858 -0.6347 -2.2533 -1.1230
14888TIP3    H266156   2.408   1.162   1.925  0.3732 -1.6581  0.4048
14889TIP3   OH266157   6.608   3.819   0.300 -0.5674  0.2746 -0.4396
14889TIP3    H166158   6.589   3.876   0.374  1.1135  2.3793 -1.5205
14889TIP3    H266159   6.554   3.853   0.228 -1.7066 -1.3473 -0.4242
14890TIP3   OH266160   5.841   1.456  14.849  0.3409 -0.2776  0.6158
14890TIP3    H166161   5.868   1.399  14.921 -0.6189  1.0376  2.0779
14890TIP3    H266162   5.784   1.520  14.889  1.4848  1.8464 -0.9359
14891TIP3   OH266163   5.683   6.234  13.040 -0.0524 -0.2711 -0.1016
14891TIP3    H166164   5.661   6.282  13.121 -1.7794 -1.3346  0.1174
14891TIP3    H266165   5.661   6.295  12.970  1.7125  0.7632  0.1843
14892TIP3   OH266166   2.332   6.960   0.451 -0.0719 -0.2594  0.5850
14892TIP3    H166167   2.410   6.988   0.404 -0.0054  0.8741  1.3269
14892TIP3    H266168   2.291   6.895   0.394  1.1389 -0.4961 -0.0362
14893TIP3   OH266169   7.130   6.259   0.184  0.8335 -0.4679  0.4723
14893TIP3    H166170   7.049   6.221   0.219  0.3045 -0.2228 -0.4334
14893TIP3    H266171   7.103   6.345   0.151  1.9536  0.6611  2.2950
14894TIP3   OH266172   0.003   6.284   5.266  0.3284 -0.2993 -0.2083
14894TIP3    H166173   0.075   6.222   5.257 -0.3662 -0.9059 -2.1778
14894TIP3    H266174   0.035   6.365   5.227  0.6512  0.0742  0.8193
14895TIP3   OH266175   0.292   4.656   3.162  0.2463 -0.3443  0.3786
14895TIP3    H166176   0.301   4.709   3.241  1.2278 -0.6446  0.4900
14895TIP3    H266177   0.364   4.685   3.106  1.5599 -2.3178  0.9175
14896TIP3   OH266178   7.004   2.667   2.412 -0.0052 -0.2607  0.2137
14896TIP3    H166179   6.949   2.731   2.366  1.2077  0.6575 -0.0260
14896TIP3    H266180   7.008   2.592   2.352 -2.3864 -1.1138  0.9985
14897TIP3   OH266181   0.430   0.750  14.508  0.1640 -0.3605  0.0259
14897TIP3    H166182   0.380   0.669  14.507 -0.5661  0.0649  0.4620
14897TIP3    H266183   0.445   0.770  14.416 -2.6853  0.7855 -0.3055
14898TIP3   OH266184   3.568   1.689   4.846 -0.0700 -0.3176  0.1719
14898TIP3    H166185   3.626   1.683   4.921 -0.0478 -1.5578  0.0830
14898TIP3    H266186   3.480   1.686   4.883 -0.0600 -0.1409  0.2063
14899TIP3   OH266187   1.020   1.388   3.604  0.4524 -0.1025  0.0765
14899TIP3    H166188   0.954   1.348   3.546  0.2755  0.9661 -0.4884
14899TIP3    H266189   1.095   1.329   3.599  1.3813  1.1375 -3.2255
14900TIP3   OH266190   6.203   1.649  10.108  0.2200  0.0601 -0.5611
14900TIP3    H166191   6.211   1.676  10.017 -2.4916 -0.0384 -0.9192
14900TIP3    H266192   6.234   1.724  10.159  0.3519  0.7078 -1.5714
14901TIP3   OH266193   6.547   3.582  13.325  0.0117  0.4839 -0.9930
14901TIP3    H166194   6.500   3.614  13.248  0.0445  0.5751 -0.9755
14901TIP3    H266195   6.567   3.491  13.306  0.1177  0.5379 -1.1396
14902TIP3   OH266196   2.026   5.327   1.601  0.3400 -0.5193 -0.4424
14902TIP3    H166197   1.990   5.252   1.647 -0.7740 -0.4314 -1.1559
14902TIP3    H266198   2.121   5.322   1.618  0.6646 -3.4816 -2.4714
14903TIP3   OH266199   4.591   0.957   3.760 -0.0336 -0.1219 -0.1710
14903TIP3    H166200   4.572   0.883   3.703 -0.4567  0.1361 -0.3713
14903TIP3    H266201   4.560   0.929   3.847 -1.7021  0.4068 -0.5465
14904TIP3   OH266202   3.020   4.468   5.813  0.2627 -0.1744  0.5351
14904TIP3    H166203   3.031   4.472   5.908 -2.4698  0.1688  0.9196
14904TIP3    H266204   3.061   4.385   5.788 -1.5351 -1.7883  2.5159
14905TIP3   OH266205   2.494   2.150  14.358  0.8943 -0.2048  0.6999
14905TIP3    H166206   2.453   2.235  14.378  1.7939  0.1574  1.0450
14905TIP3    H266207   2.564   2.172  14.297  0.6194 -0.8158  0.1551
14906TIP3   OH266208   1.074   3.094   5.233 -0.2144  0.3693  0.3299
14906TIP3    H166209   1.018   3.103   5.310 -0.7217 -2.2310  0.3673
14906TIP3    H266210   1.121   3.012   5.248  3.8746  2.4677  0.3865
14907TIP3   OH266211   1.468   1.475   2.391  0.2936 -0.1654 -0.0627
14907TIP3    H166212   1.492   1.391   2.430  0.3497  0.5638  1.5219
14907TIP3    H266213   1.373   1.469   2.379  0.2054 -0.2202  0.6443
14908TIP3   OH266214   3.956   6.544  13.508 -0.5574  0.4725  0.1474
14908TIP3    H166215   3.902   6.582  13.578 -0.8191  0.1169  0.1444
14908TIP3    H266216   3.978   6.457  13.541 -1.4295 -0.0367 -0.5998
14909TIP3   OH266217   6.964   0.594   5.764  0.2179 -0.1795 -0.4568
14909TIP3    H166218   6.949   0.685   5.789  0.2065 -0.1618 -0.5270
14909TIP3    H266219   7.038   0.566   5.817 -0.3038 -0.3848  0.1689
14910TIP3   OH266220   2.362   2.857  12.915 -0.6228 -0.4145 -0.0331
14910TIP3    H166221   2.290   2.901  12.960 -0.7690  0.8451 -1.4108
14910TIP3    H266222   2.398   2.924  12.857  2.4055 -0.6581  1.3942
14911TIP3   OH266223   3.389   2.995   1.973 -0.2465 -0.5161  0.1044
14911TIP3    H166224   3.366   3.059   1.905  0.0911 -1.3768 -0.8551
14911TIP3    H266225   3.389   2.911   1.927  1.4239 -0.9549  0.8398
14912TIP3   OH266226   4.847   4.294   3.063  0.0730 -0.2004 -0.2781
14912TIP3    H166227   4.930   4.293   3.017  0.6714 -0.2279  0.7804
14912TIP3    H266228   4.784   4.327   2.998  0.7656 -0.7908 -1.2858
14913TIP3   OH266229   5.193   1.824   3.242 -0.0793 -0.5431 -0.1863
14913TIP3    H166230   5.152   1.812   3.328  2.0350  1.0442  1.1226
14913TIP3    H266231   5.275   1.776   3.248  0.3867  0.1237 -1.0910
14914TIP3   OH266232   3.971   0.299   5.974 -1.0450  0.0192  0.1042
14914TIP3    H166233   3.931   0.380   6.007 -1.7977 -1.2112  2.4069
14914TIP3    H266234   3.921   0.278   5.895 -0.9895  1.6319 -0.3984
14915TIP3   OH266235   1.775   4.613   1.749  0.3604  0.4337  0.2707
14915TIP3    H166236   1.826   4.535   1.769  0.9418  0.3488 -1.3386
14915TIP3    H266237   1.701   4.582   1.697 -0.0585  0.8158  0.6352
14916TIP3   OH266238   0.590   2.920   5.015 -0.6336 -0.2538  0.0789
14916TIP3    H166239   0.613   2.853   4.950 -1.3054 -0.3175 -0.1032
14916TIP3    H266240   0.578   2.871   5.096 -0.9656 -0.3409 -0.0190
14917TIP3   OH266241   1.741   7.038   4.055 -0.0141 -0.4398  0.1210
14917TIP3    H166242   1.833   7.040   4.031  1.2853  0.6798  4.3200
14917TIP3    H266243   1.723   6.947   4.078  0.4598 -0.4524  0.4592
14918TIP3   OH266244   4.843   6.986   4.541  0.1084  0.5759  0.1059
14918TIP3    H166245   4.819   7.033   4.622 -4.3067  0.5342 -0.8981
14918TIP3    H266246   4.833   7.052   4.472 -2.2514 -0.6929 -0.9022
14919TIP3   OH266247   3.104   0.219  12.952 -0.1227 -0.3000  0.3380
14919TIP3    H166248   3.058   0.209  12.869  0.6617 -1.2479 -0.0043
14919TIP3    H266249   3.174   0.281  12.932 -0.0202 -0.4200  0.3212
14920TIP3   OH266250   3.362   2.728   0.019  0.5840 -0.1224  0.0479
14920TIP3    H166251   3.376   2.816  -0.015  0.6046 -0.3208 -0.4618
14920TIP3    H266252   3.448   2.687   0.019  0.2660 -0.8627 -1.7548
14921TIP3   OH266253   1.060   5.564   1.561 -0.3296  0.0030  0.1395
14921TIP3    H166254   1.011   5.582   1.480 -1.4030 -2.7061  0.0856
14921TIP3    H266255   1.010   5.608   1.630 -0.2822  1.0164 -0.4507
14922TIP3   OH266256   6.188   1.449   5.364 -0.3590  0.3170  0.0029
14922TIP3    H166257   6.221   1.471   5.451 -0.8751  0.8106  0.0829
14922TIP3    H266258   6.213   1.524   5.309 -1.3633  0.7236  0.0780
14923TIP3   OH266259   0.355   6.343   1.971 -0.2011  0.2124  0.0083
14923TIP3    H166260   0.363   6.311   2.061 -1.0153  0.6942  0.2638
14923TIP3    H266261   0.437   6.317   1.929 -0.1159 -0.6729  0.6788
14924TIP3   OH266262   5.382   0.034   3.639 -0.3510  0.6902 -0.1470
14924TIP3    H166263   5.464  -0.001   3.605 -1.1607  0.0924 -1.5977
14924TIP3    H266264   5.357   0.102   3.576 -1.0468  0.7309  0.1571
14925TIP3   OH266265   0.195   1.109   2.559 -0.5889  0.3442 -0.0912
14925TIP3    H166266   0.180   1.025   2.516 -0.2133 -0.8943  2.0410
14925TIP3    H266267   0.110   1.153   2.555 -1.0145 -0.4881 -0.5501
14926TIP3   OH266268   0.293   3.377   4.244 -0.5387  0.2152 -0.1844
14926TIP3    H166269   0.248   3.294   4.259 -0.5037  0.6071  2.6756
14926TIP3    H266270   0.228   3.432   4.201 -1.3908 -0.5380  0.1042
14927TIP3   OH266271   5.933   0.640   4.104 -0.1841 -0.2927 -0.6162
14927TIP3    H166272   5.972   0.679   4.182 -1.0217  0.2620 -0.4607
14927TIP3    H266273   5.862   0.586   4.137 -1.2904  0.8446 -1.0353
14928TIP3   OH266274   5.479   0.887   3.019 -0.0786 -0.1895  0.2679
14928TIP3    H166275   5.536   0.811   3.030 -0.1397 -0.2027  0.4888
14928TIP3    H266276   5.415   0.858   2.953  0.9333  0.2666 -0.9651
14929TIP3   OH266277   4.631   0.571  13.770  0.3681 -0.4420  0.1228
14929TIP3    H166278   4.605   0.557  13.861  0.7499  0.0833  0.3154
14929TIP3    H266279   4.714   0.522  13.762 -1.0450 -2.8820 -0.7359
14930TIP3   OH266280   1.646   5.380   6.157 -0.3596 -0.5352  0.1879
14930TIP3    H166281   1.638   5.475   6.158  1.2494 -0.3552  1.8524
14930TIP3    H266282   1.739   5.363   6.145 -0.6645 -1.9262 -0.4381
14931TIP3   OH266283   4.408   3.058  13.734  0.0743  0.7498  0.4010
14931TIP3    H166284   4.435   3.121  13.801 -0.0015  1.3352 -0.1197
14931TIP3    H266285   4.352   2.996  13.781 -0.1389  1.2716  0.8388
14932TIP3   OH266286   2.508   6.242   3.855  0.2610  0.3882  0.4072
14932TIP3    H166287   2.413   6.234   3.864  0.2986 -1.0308 -0.2017
14932TIP3    H266288   2.523   6.336   3.845 -0.7488  1.0131  3.5721
14933TIP3   OH266289   6.220   5.801   1.769  0.3354 -0.1422 -0.2057
14933TIP3    H166290   6.158   5.874   1.766 -1.5874 -1.6505  1.0060
14933TIP3    H266291   6.231   5.783   1.863  1.4066 -0.9324 -0.4639
14934TIP3   OH266292   0.677   2.937   4.500 -0.3027  0.3026 -0.1371
14934TIP3    H166293   0.650   2.851   4.470 -1.0094  0.6828 -0.6273
14934TIP3    H266294   0.617   2.958   4.572 -1.4093  1.1825 -1.2764
14935TIP3   OH266295   2.586   5.715   1.804  0.0539 -0.9198 -0.2412
14935TIP3    H166296   2.672   5.736   1.767  0.0926 -1.4029 -0.4361
14935TIP3    H266297   2.576   5.621   1.789  1.0017 -1.6295  2.8362
14936TIP3   OH266298   3.747   0.917   2.702 -0.6350 -0.2357  0.5888
14936TIP3    H166299   3.807   0.944   2.772  1.3613 -0.4757 -0.9610
14936TIP3    H266300   3.669   0.972   2.715 -0.3939 -0.3531  3.0433
14937TIP3   OH266301   4.559   5.469   5.501  0.1190  0.0787  0.4797
14937TIP3    H166302   4.469   5.438   5.513  0.7509 -1.3194  2.0359
14937TIP3    H266303   4.612   5.390   5.509  1.5451  1.0010  0.3780
14938TIP3   OH266304   4.695   2.802   4.449 -0.2054  0.3403  0.3255
14938TIP3    H166305   4.787   2.816   4.429 -0.3857  1.1291  0.0070
14938TIP3    H266306   4.648   2.852   4.383 -0.8368  1.9750  1.9050
14939TIP3   OH266307   6.062   0.952  10.025  0.6656 -0.1382  0.2171
14939TIP3    H166308   6.082   1.043  10.003  1.4197 -0.1166  0.9415
14939TIP3    H266309   6.080   0.945  10.119 -3.6255  0.0925  1.2509
14940TIP3   OH266310   1.818   3.337  11.970 -0.5932 -0.2120  0.3166
14940TIP3    H166311   1.799   3.396  12.043  0.3911  0.9307 -0.3139
14940TIP3    H266312   1.913   3.343  11.958 -0.5240 -1.6595  0.0034
14941TIP3   OH266313   6.027   6.241  15.745  0.3778  0.0294 -0.6832
14941TIP3    H166314   6.003   6.152  15.773  0.0035 -0.2793 -1.9262
14941TIP3    H266315   6.072   6.228  15.661  0.7807  0.9823 -0.6243
14942TIP3   OH266316   3.134   3.822  10.226  0.7006  0.1146 -0.3328
14942TIP3    H166317   3.151   3.819  10.132  1.4706 -2.7364 -0.1841
14942TIP3    H266318   3.148   3.914  10.249  1.6310  0.6809 -2.7890
14943TIP3   OH266319   1.564   5.057   5.057  0.7129 -0.6838 -0.2311
14943TIP3    H166320   1.600   5.022   4.976  2.7555  1.5462 -0.4012
14943TIP3    H266321   1.615   5.136   5.074 -1.9167  0.8189  1.4265
14944TIP3   OH266322   5.955   5.860   1.134 -0.5869  0.0763  0.7048
14944TIP3    H166323   5.928   5.783   1.184  0.6739 -0.0199  1.2761
14944TIP3    H266324   6.013   5.824   1.066 -1.6923  0.2923 -0.3964
14945TIP3   OH266325   4.724   0.493   4.986  0.8959  0.1975  0.8410
14945TIP3    H166326   4.818   0.474   4.985  0.8392 -0.2632 -1.3054
14945TIP3    H266327   4.683   0.411   4.961 -0.0398  0.5848  1.0709
14946TIP3   OH266328   2.962   2.827   3.730  0.0414  0.1420 -0.1643
14946TIP3    H166329   2.941   2.917   3.754 -2.1276  0.3405 -2.4141
14946TIP3    H266330   3.044   2.808   3.776  1.2604  3.6793 -0.6083
14947TIP3   OH266331   0.479   6.288  11.258 -0.1701 -0.1898 -0.6878
14947TIP3    H166332   0.509   6.364  11.308  0.2325 -0.2610 -0.8114
14947TIP3    H266333   0.421   6.241  11.317 -1.9943  1.2370 -1.2659
14948TIP3   OH266334   6.573   4.386   4.023 -0.4608 -0.9695 -0.0774
14948TIP3    H166335   6.626   4.439   3.964 -1.0396 -0.2056  0.0760
14948TIP3    H266336   6.602   4.411   4.111 -0.7358 -0.9120 -0.0029
14949TIP3   OH266337   3.969   2.191  14.954  0.0900 -0.1865  0.2572
14949TIP3    H166338   4.015   2.154  15.029  0.5940  1.1224  0.6322
14949TIP3    H266339   3.961   2.119  14.892 -2.5553 -2.0561  2.4965
14950TIP3   OH266340   6.336   6.376   3.132  0.1329  0.5496  0.2919
14950TIP3    H166341   6.404   6.443   3.125  1.4584 -0.9310 -3.4847
14950TIP3    H266342   6.382   6.293   3.124 -1.9050 -0.6142 -0.1385
14951TIP3   OH266343   2.755   0.337   3.500  0.4594  0.5698  0.0228
14951TIP3    H166344   2.835   0.341   3.447 -0.9531 -1.7830 -2.5119
14951TIP3    H266345   2.760   0.252   3.544 -0.5386  0.4931  0.0062
14952TIP3   OH266346   3.705   4.846   6.108 -0.4919 -0.5173 -0.2140
14952TIP3    H166347   3.654   4.879   6.035  1.2832 -0.0966 -1.3234
14952TIP3    H266348   3.715   4.752   6.089 -0.3709 -0.4856 -0.3102
14953TIP3   OH266349   2.030   2.158   3.633 -0.2489  0.6864  0.4095
14953TIP3    H166350   2.053   2.203   3.715 -0.2454  0.0190  0.7789
14953TIP3    H266351   2.050   2.222   3.565  0.9199  0.8044  0.8436
14954TIP3   OH266352   4.521   6.115   1.467  0.0333  0.1232 -0.1470
14954TIP3    H166353   4.526   6.193   1.523 -0.2560  0.5461 -0.7084
14954TIP3    H266354   4.471   6.142   1.391  0.6794 -0.3651 -0.7649
14955TIP3   OH266355   4.779   6.299  10.018  0.4166  0.0843  0.2595
14955TIP3    H166356   4.757   6.368   9.956 -0.2905  0.1073  0.5181
14955TIP3    H266357   4.863   6.264   9.988  1.4136  1.8723  0.8336
14956TIP3   OH266358   6.603   2.160   0.623  0.4893  0.2610 -0.0884
14956TIP3    H166359   6.695   2.149   0.600  0.4932  1.1045 -0.5553
14956TIP3    H266360   6.565   2.073   0.613  0.9508  0.1718 -1.2818
14957TIP3   OH266361   0.889   0.358  15.461  0.4075  0.0315  0.4039
14957TIP3    H166362   0.875   0.357  15.366  0.8836 -0.0076  0.3354
14957TIP3    H266363   0.823   0.419  15.493 -0.3846 -0.6661  0.1526
14958TIP3   OH266364   2.989   0.223  13.198 -0.2780 -0.0735 -0.0713
14958TIP3    H166365   3.048   0.148  13.198 -1.6910 -1.2311  0.8564
14958TIP3    H266366   2.998   0.261  13.110  1.2662 -0.6555 -0.1830
14959TIP3   OH266367   3.689   3.393   4.733  0.2233 -0.5942 -0.0860
14959TIP3    H166368   3.747   3.464   4.709 -0.8947 -0.0947 -1.4048
14959TIP3    H266369   3.746   3.316   4.737  1.6209  0.4384  2.2101
14960TIP3   OH266370   4.079   2.397   0.415 -0.6962  0.3586 -0.1998
14960TIP3    H166371   4.135   2.467   0.449 -0.9916  0.3897  0.2361
14960TIP3    H266372   4.016   2.442   0.358 -1.2644  0.5400  0.5482
14961TIP3   OH266373   5.748   1.153  15.277  0.2214 -0.1649 -0.1188
14961TIP3    H166374   5.829   1.163  15.327 -1.2802  1.3990  2.2331
14961TIP3    H266375   5.706   1.075  15.313  0.6567 -1.0092 -1.3723
14962TIP3   OH266376   5.771   6.872  13.154  0.6784  0.0247 -0.2061
14962TIP3    H166377   5.742   6.783  13.135  0.2025 -0.1419  1.1933
14962TIP3    H266378   5.866   6.868  13.146  0.8157 -1.0459  1.4225
14963TIP3   OH266379   6.347   4.697   3.960 -0.5198  0.6213  0.0185
14963TIP3    H166380   6.429   4.724   3.919  0.5220 -2.9907 -0.6471
14963TIP3    H266381   6.359   4.716   4.053  0.4890  1.3791 -0.2461
14964TIP3   OH266382   3.077   1.558   0.955  0.4176  0.0327 -0.1563
14964TIP3    H166383   3.061   1.577   0.863 -0.4037  2.0147  0.3555
14964TIP3    H266384   3.086   1.644   0.996  0.6550 -0.8107  1.6404
14965TIP3   OH266385   6.132   5.551  13.365 -0.2636 -0.1492  0.1440
14965TIP3    H166386   6.204   5.609  13.389 -1.0845  0.4698  1.2072
14965TIP3    H266387   6.084   5.600  13.298 -0.5340  0.0924  0.5095
14966TIP3   OH266388   3.245   1.156   1.838 -0.3631  0.1402  0.2325
14966TIP3    H166389   3.250   1.202   1.922  0.2450  1.9750 -0.7532
14966TIP3    H266390   3.210   1.222   1.777 -0.2284 -0.9697 -1.0822
14967TIP3   OH266391   0.731   4.940   5.115 -0.5213  0.5402  0.3743
14967TIP3    H166392   0.821   4.948   5.083 -0.4219  1.3769  0.8211
14967TIP3    H266393   0.702   5.031   5.127 -1.8558  0.3371 -0.9104
14968TIP3   OH266394   6.264   4.356   0.790 -0.3310 -0.4314 -0.6254
14968TIP3    H166395   6.306   4.270   0.784  0.8502  0.2248 -3.1173
14968TIP3    H266396   6.178   4.338   0.828  0.8057 -2.3329  1.2709
14969TIP3   OH266397   3.956   0.706   1.398  0.0666  0.2984  0.4084
14969TIP3    H166398   3.873   0.753   1.387  0.6336  1.0926 -0.7064
14969TIP3    H266399   4.020   0.775   1.416  0.5881 -0.2465  0.6480
14970TIP3   OH266400   2.817   3.381  11.197 -0.4894  0.5388  0.0566
14970TIP3    H166401   2.774   3.303  11.233 -0.4083  0.8441  0.8313
14970TIP3    H266402   2.881   3.347  11.136 -0.9036  0.0199 -0.0979
14971TIP3   OH266403   1.616   3.210   4.364 -0.2055 -0.2282 -0.1150
14971TIP3    H166404   1.695   3.251   4.330 -0.8257  0.5840 -0.6200
14971TIP3    H266405   1.641   3.120   4.382  0.8519  0.0419 -0.1852
14972TIP3   OH266406   2.166   1.095   2.915 -0.4739 -0.4616 -0.5028
14972TIP3    H166407   2.087   1.142   2.942  0.9568  1.1526  1.1212
14972TIP3    H266408   2.183   1.127   2.826 -1.6470 -0.8644 -0.8851
14973TIP3   OH266409   6.548   1.591  15.356  0.1960 -0.0848  0.2479
14973TIP3    H166410   6.522   1.642  15.433 -0.9936 -1.4510  0.7944
14973TIP3    H266411   6.624   1.638  15.321  0.1357  1.1417  1.6538
14974TIP3   OH266412   2.907   1.460  11.914  0.5195  0.2768 -0.8014
14974TIP3    H166413   2.936   1.511  11.989  1.0584 -0.2126 -0.6675
14974TIP3    H266414   2.863   1.523  11.857  0.0848  0.6402 -0.0636
14975TIP3   OH266415   3.865   2.384   4.137  0.6185 -0.3562  0.0706
14975TIP3    H166416   3.771   2.396   4.149  0.2024 -1.8099 -1.3428
14975TIP3    H266417   3.881   2.291   4.157  1.4324 -0.5438 -1.2746
14976TIP3   OH266418   0.295   1.324   5.006 -0.3946 -0.2893 -0.0809
14976TIP3    H166419   0.350   1.336   5.084  0.6086  0.9738 -0.9541
14976TIP3    H266420   0.307   1.232   4.982  1.5603  0.0249 -0.4084
14977TIP3   OH266421   6.275   0.772   0.282  0.2222  0.1680  0.5077
14977TIP3    H166422   6.233   0.691   0.254 -0.3098  0.4983  0.3252
14977TIP3    H266423   6.205   0.821   0.325 -0.0272  1.4340 -1.2364
14978TIP3   OH266424   0.365   1.440   5.901  0.2786 -0.0265 -0.0355
14978TIP3    H166425   0.271   1.431   5.920  0.5270 -0.9123  0.9158
14978TIP3    H266426   0.405   1.450   5.988  1.1937 -1.1817 -0.2987
14979TIP3   OH266427   3.691   2.702   3.248 -0.1759  0.4735  0.0629
14979TIP3    H166428   3.722   2.778   3.199 -1.0393 -0.3655 -1.9251
14979TIP3    H266429   3.596   2.715   3.255 -0.4420 -0.6845 -0.8998
14980TIP3   OH266430   0.826   0.896  11.164  0.1289  0.7837 -0.3452
14980TIP3    H166431   0.735   0.927  11.167  0.0963  0.6304  0.7400
14980TIP3    H266432   0.828   0.835  11.090 -1.3045 -1.1093  1.0664
14981TIP3   OH266433   3.325   1.491  14.935 -0.0939 -0.3791 -0.1396
14981TIP3    H166434   3.382   1.563  14.959  0.1977  0.2677 -2.5565
14981TIP3    H266435   3.383   1.427  14.892 -0.6858 -1.1102  0.1210
14982TIP3   OH266436   2.641   3.602  10.327 -0.0236 -0.4008 -0.2256
14982TIP3    H166437   2.587   3.681  10.320  0.3609 -0.0711  0.4205
14982TIP3    H266438   2.730   3.635  10.338  0.6109 -0.9209 -3.0453
14983TIP3   OH266439   2.258   6.787  13.991  0.0182 -0.3668  0.6779
14983TIP3    H166440   2.279   6.807  13.899  1.3854  1.3471  1.3211
14983TIP3    H266441   2.259   6.691  13.995  0.5172 -0.4706 -0.9711
14984TIP3   OH266442   6.641   5.885   4.634  0.3564  0.3899 -0.0245
14984TIP3    H166443   6.586   5.959   4.661  1.3210  1.4692 -0.9019
14984TIP3    H266444   6.585   5.833   4.577 -0.6308 -0.0929  1.3312
14985TIP3   OH266445   0.267   1.561  15.127 -0.5436 -0.7302 -0.2856
14985TIP3    H166446   0.224   1.504  15.063 -0.5449 -1.3624  0.2672
14985TIP3    H266447   0.248   1.521  15.211  2.4982 -2.0392 -0.0856
14986TIP3   OH266448   4.051   5.629  12.092 -0.2797 -0.2826 -0.1087
14986TIP3    H166449   4.134   5.607  12.135 -1.6206 -0.1370  2.8142
14986TIP3    H266450   4.038   5.722  12.110 -2.5134 -0.9407  2.4769
14987TIP3   OH266451   2.023   1.102   4.564  0.2091 -0.0055  0.0025
14987TIP3    H166452   2.069   1.115   4.481 -1.7297  1.7705 -0.8671
14987TIP3    H266453   2.071   1.031   4.606  3.0078  0.9351 -1.3275
14988TIP3   OH266454   7.128   4.919   0.191 -0.0231  0.1045  0.1054
14988TIP3    H166455   7.058   4.859   0.216  0.7299  0.0729  2.3351
14988TIP3    H266456   7.123   4.990   0.255  0.0380  1.7100 -1.5982
14989TIP3   OH266457   5.562   3.587  11.094  0.8101 -0.1336  0.3339
14989TIP3    H166458   5.601   3.658  11.043  0.2388 -0.8549 -1.1368
14989TIP3    H266459   5.470   3.588  11.070  0.5326 -0.5056  1.3495
14990TIP3   OH266460   6.244   3.027  10.480 -0.2039  0.4331  0.6389
14990TIP3    H166461   6.282   2.940  10.468 -0.1259  0.4247  0.9377
14990TIP3    H266462   6.314   3.087  10.454 -0.6863  0.4043 -0.8272
14991TIP3   OH266463   2.386   3.119   4.090 -0.4648  0.9227 -0.2389
14991TIP3    H166464   2.460   3.103   4.149 -0.7221  1.2523  0.1832
14991TIP3    H266465   2.365   3.212   4.104 -1.4637  0.6307  0.2263
14992TIP3   OH266466   1.546   3.040   3.051  0.1634 -0.4677  0.4404
14992TIP3    H166467   1.477   2.997   3.000 -1.5123 -0.1743  2.2964
14992TIP3    H266468   1.584   2.970   3.104 -0.7048 -0.1883  1.4801
14993TIP3   OH266469   2.293   2.130   4.585  0.3655  0.4746 -0.0825
14993TIP3    H166470   2.383   2.124   4.553  0.6898 -0.9939  1.0194
14993TIP3    H266471   2.248   2.057   4.544  0.1863  0.0146  0.9065
14994TIP3   OH266472   0.541   6.400  14.797 -0.3203 -0.3865  0.3020
14994TIP3    H166473   0.619   6.364  14.755  0.2563 -1.0797  1.9256
14994TIP3    H266474   0.472   6.390  14.731  0.6238 -1.0997 -0.6114
14995TIP3   OH266475   4.137   2.625  12.413  0.3609 -0.3102 -0.5817
14995TIP3    H166476   4.229   2.649  12.403 -0.3574  2.2937 -1.7767
14995TIP3    H266477   4.089   2.707  12.398 -2.1909 -1.7098 -0.5989
14996TIP3   OH266478   2.648   3.053   3.452  0.6371  0.3447 -0.4624
14996TIP3    H166479   2.742   3.047   3.468  0.7193  2.6306  0.2012
14996TIP3    H266480   2.619   3.126   3.506 -1.3906  0.1765 -1.2406
14997TIP3   OH266481   6.618   3.143   4.461  0.4423  0.0168  0.1757
14997TIP3    H166482   6.639   3.087   4.386  0.7231  0.9475 -0.4756
14997TIP3    H266483   6.700   3.151   4.509  0.4642  0.0573  0.1318
14998TIP3   OH266484   3.712   3.196   3.226  0.3762 -0.2567  0.2485
14998TIP3    H166485   3.649   3.200   3.154  1.2566 -0.6123 -0.5762
14998TIP3    H266486   3.762   3.116   3.209  0.6760 -0.2811  1.1980
14999TIP3   OH266487   4.475   2.764   4.698 -0.2750 -0.8015  0.1068
14999TIP3    H166488   4.537   2.828   4.663  0.9884 -0.0507  3.3815
14999TIP3    H266489   4.391   2.809   4.700 -0.0643 -0.3661 -0.4703
15000TIP3   OH266490   5.689   2.107   1.266  0.6982 -0.2752  0.4368
15000TIP3    H166491   5.778   2.095   1.301  0.2560  0.7017  1.9778
15000TIP3    H266492   5.649   2.171   1.324 -0.2239  1.2239 -1.7147
15001TIP3   OH266493   4.190   1.947  12.274 -0.1199  0.4814  0.5270
15001TIP3    H166494   4.233   2.026  12.243  0.0566  0.3379  0.4065
15001TIP3    H266495   4.097   1.969  12.275 -0.2107  0.2266 -0.8684
15002TIP3   OH266496   6.658   0.155  14.811 -0.3931  0.1617 -0.8340
15002TIP3    H166497   6.737   0.189  14.767  1.2760  0.1888  1.9634
15002TIP3    H266498   6.688   0.074  14.854 -1.7690  0.3861  0.6183
15003TIP3   OH266499   3.654   4.292   5.506 -0.3280  0.1265  0.2082
15003TIP3    H166500   3.561   4.269   5.511 -0.4711  0.2825 -1.3804
15003TIP3    H266501   3.700   4.213   5.532 -0.8786 -0.6195 -1.0250
15004TIP3   OH266502   0.457   2.911   4.664 -0.3289  0.0430  0.9743
15004TIP3    H166503   0.383   2.929   4.606 -0.6334  3.0076  2.0713
15004TIP3    H266504   0.419   2.914   4.752  0.7364 -0.6803  1.4742
15005TIP3   OH266505   1.867   3.280   2.852 -0.1727  0.5820 -0.0068
15005TIP3    H166506   1.851   3.186   2.845  1.0305  0.2726  1.1643
15005TIP3    H266507   1.940   3.296   2.793 -0.4149  0.8094 -0.2512
15006TIP3   OH266508   5.296   1.817   1.614 -0.4800  0.0649 -0.0399
15006TIP3    H166509   5.269   1.777   1.696 -0.7460 -1.9430 -1.0248
15006TIP3    H266510   5.381   1.857   1.632  0.0190 -1.3827  0.9356
15007TIP3   OH266511   5.790   0.076   4.794  0.3359 -0.0168  0.2453
15007TIP3    H166512   5.841   0.138   4.846  0.5421  1.1415 -1.2597
15007TIP3    H266513   5.703   0.115   4.788  1.1184  1.5854 -2.8605
15008TIP3   OH266514   5.745   5.768   3.611 -0.4165 -0.2948  0.5708
15008TIP3    H166515   5.790   5.687   3.634 -0.1778 -0.6902 -1.1739
15008TIP3    H266516   5.809   5.837   3.628  0.9463 -0.8469 -1.9080
15009TIP3   OH266517   6.038   3.635   1.142 -0.4690 -0.1730  0.2315
15009TIP3    H166518   6.054   3.698   1.212 -0.5606  1.0615 -0.8123
15009TIP3    H266519   6.073   3.553   1.175  0.2684  0.5702  1.3767
15010TIP3   OH266520   5.179   0.303   0.763  0.0069 -0.2470  0.2292
15010TIP3    H166521   5.243   0.251   0.812 -0.1924 -2.3428 -1.5813
15010TIP3    H266522   5.231   0.350   0.698  0.0260  0.7972  0.9656
15011TIP3   OH266523   3.931   0.123   1.844  0.1235 -0.0013 -0.1918
15011TIP3    H166524   3.850   0.101   1.798  0.3353  2.2994 -1.8610
15011TIP3    H266525   3.998   0.070   1.801 -0.1370 -0.0638 -0.5252
15012TIP3   OH266526   3.528   5.998  11.539  0.9845 -0.3328 -0.5074
15012TIP3    H166527   3.543   5.906  11.562  0.5828 -0.1687  0.4510
15012TIP3    H266528   3.450   6.023  11.588  0.9835  0.4737 -0.8963
15013TIP3   OH266529   1.262   1.923   3.970 -0.3269 -0.3946  0.3229
15013TIP3    H166530   1.338   1.903   4.026  1.5070  0.1371 -1.8414
15013TIP3    H266531   1.211   1.842   3.970  0.2439 -0.7968  1.7612
15014TIP3   OH266532   6.515   5.875  13.947  0.2866 -0.0116 -0.1703
15014TIP3    H166533   6.497   5.938  13.877  2.5695  2.5438  1.3275
15014TIP3    H266534   6.596   5.906  13.986 -1.2057 -0.8284  4.0784
15015TIP3   OH266535   3.703   7.019   3.111 -0.4592  0.8860 -0.4142
15015TIP3    H166536   3.643   7.000   3.039  1.1092  0.4453 -1.6539
15015TIP3    H266537   3.699   6.940   3.166  0.0569  0.2517 -1.2663
15016TIP3   OH266538   0.538   0.164   3.063  0.6522 -0.1632  0.0696
15016TIP3    H166539   0.597   0.102   3.105  0.5389 -0.1894  0.1894
15016TIP3    H266540   0.593   0.210   2.999  0.9855  0.3449  0.7094
15017TIP3   OH266541   4.083   0.563   3.710 -0.8476  0.0838 -0.8797
15017TIP3    H166542   3.997   0.587   3.674 -1.0433  0.5847 -0.0791
15017TIP3    H266543   4.145   0.619   3.663 -1.1382  1.0020 -0.1944
15018TIP3   OH266544   5.925   2.069   1.892 -0.1503  0.0303 -0.0822
15018TIP3    H166545   5.857   2.119   1.847 -1.3404 -3.0532 -1.9814
15018TIP3    H266546   5.983   2.039   1.822  1.4817  0.0550  1.1865
15019TIP3   OH266547   6.995   0.465   3.786 -0.2849 -0.1643 -0.4550
15019TIP3    H166548   7.030   0.461   3.697  0.2948  1.4076 -0.3314
15019TIP3    H266549   6.908   0.505   3.776 -0.9124 -1.4754 -0.4602
15020TIP3   OH266550   5.080   5.790   3.101  0.3577 -0.6386  0.0270
15020TIP3    H166551   5.122   5.723   3.154 -0.7713 -1.9456 -0.6655
15020TIP3    H266552   5.007   5.821   3.156  1.0942  0.3139  0.4935
15021TIP3   OH266553   6.563   4.805   2.919  0.4056  0.0318  0.4835
15021TIP3    H166554   6.524   4.888   2.891 -0.2729 -0.1246  0.9598
15021TIP3    H266555   6.500   4.767   2.980  1.7248  0.2371  2.0510
15022TIP3   OH266556   1.629   7.075   3.194 -0.2310  0.2172  0.1639
15022TIP3    H166557   1.605   6.999   3.142 -1.2847  0.1544  0.7082
15022TIP3    H266558   1.567   7.143   3.168  0.5770  0.8472 -0.1801
15023TIP3   OH266559   5.941   5.607   1.260 -0.2150  0.0663  0.1650
15023TIP3    H166560   5.998   5.532   1.242 -0.4791 -0.4807  1.5199
15023TIP3    H266561   5.855   5.568   1.279 -1.0459  0.8661 -1.6639
15024TIP3   OH266562   6.869   2.415   4.371 -0.1613 -0.2650  0.9940
15024TIP3    H166563   6.890   2.503   4.340  1.7785 -0.9364  0.2416
15024TIP3    H266564   6.852   2.426   4.464 -0.3182  0.9571  0.8413
15025TIP3   OH266565   6.220   6.814   1.973  0.0227 -0.2465 -0.2400
15025TIP3    H166566   6.307   6.787   1.943  1.0270  0.9751  1.3972
15025TIP3    H266567   6.195   6.885   1.915  0.6878  0.2336  0.0536
15026TIP3   OH266568   0.350   5.289   0.996  0.1260 -0.4669 -0.3574
15026TIP3    H166569   0.294   5.366   0.998  1.1585  0.2945  0.8218
15026TIP3    H266570   0.351   5.258   1.087 -0.9096 -2.3842 -0.9367
15027TIP3   OH266571   4.379   1.839   4.404 -0.0467  0.1955  0.2777
15027TIP3    H166572   4.338   1.819   4.320 -2.6308 -1.2968  1.7757
15027TIP3    H266573   4.471   1.857   4.382 -0.1081 -2.2239 -2.6286
15028TIP3   OH266574   3.929   0.983   2.884 -0.4080 -0.4721  0.0875
15028TIP3    H166575   3.963   1.072   2.880 -0.8125 -0.2473  1.2093
15028TIP3    H266576   3.993   0.934   2.936 -0.0578 -0.9106 -0.7364
15029TIP3   OH266577   3.099   1.354   1.995  0.1658 -0.6767 -0.1915
15029TIP3    H166578   3.080   1.405   2.074  0.6121  0.3416 -0.7116
15029TIP3    H266579   3.014   1.342   1.952 -0.0733 -1.2087  0.4170
15030TIP3   OH266580   4.603   2.921   1.500 -0.0504 -0.5547  0.4718
15030TIP3    H166581   4.545   2.873   1.441 -0.2127 -0.0333  0.2020
15030TIP3    H266582   4.549   2.994   1.532 -0.1782 -1.1909  1.7702
15031TIP3   OH266583   1.094   2.428   2.386  0.5728 -0.0762 -0.5663
15031TIP3    H166584   1.137   2.386   2.460  1.4515 -0.0728 -1.0532
15031TIP3    H266585   1.157   2.420   2.314 -0.5723 -0.7995 -1.5414
15032TIP3   OH266586   2.919   6.731  14.448  0.3364  0.3391 -0.3390
15032TIP3    H166587   2.986   6.760  14.510  2.4665  0.7034 -2.6565
15032TIP3    H266588   2.901   6.807  14.394 -1.7346  0.1241 -0.0584
15033TIP3   OH266589   1.400   5.712   1.411 -0.3495 -0.0094 -0.0853
15033TIP3    H166590   1.456   5.777   1.369 -0.0880 -0.0767  0.1559
15033TIP3    H266591   1.457   5.636   1.422 -0.2393  0.2171  0.9545
15034TIP3   OH266592   0.981   4.010  13.399  0.6570 -0.4561  0.0960
15034TIP3    H166593   0.981   3.918  13.425  1.6932 -0.8366 -1.1363
15034TIP3    H266594   0.991   4.058  13.481 -0.6062 -1.3981  0.8302
15035TIP3   OH266595   3.823   3.395   2.520  0.6153 -0.4017  0.0519
15035TIP3    H166596   3.735   3.357   2.524 -0.0988  0.9720 -1.4631
15035TIP3    H266597   3.879   3.331   2.565 -1.1386 -1.2925  1.0709
15036TIP3   OH266598   5.628   5.590  15.376  0.1917  0.2397 -0.6275
15036TIP3    H166599   5.654   5.682  15.378  1.0404  0.0087 -0.6912
15036TIP3    H266600   5.709   5.542  15.361 -0.5996 -0.3781 -3.4247
15037TIP3   OH266601   4.969   0.512  11.810  0.5944 -0.2047 -0.1792
15037TIP3    H166602   5.038   0.570  11.777  0.9654 -0.3343  0.3575
15037TIP3    H266603   5.016   0.439  11.849  0.1502 -0.3582  0.0798
15038TIP3   OH266604   2.264   4.405   5.577  0.5545 -0.1779 -0.8734
15038TIP3    H166605   2.242   4.385   5.668  0.6755  1.1741 -0.5206
15038TIP3    H266606   2.350   4.447   5.581 -0.3124  1.7960 -1.3380
15039TIP3   OH266607   1.131   6.194   2.248 -0.1093  0.4217 -0.1951
15039TIP3    H166608   1.125   6.220   2.156 -0.1755  1.7389  0.1635
15039TIP3    H266609   1.107   6.101   2.248  0.9732  0.1021 -1.6469
15040TIP3   OH266610   3.983   3.208  12.881 -0.2771 -0.2461  0.1798
15040TIP3    H166611   4.062   3.178  12.926 -1.3075 -1.9606  0.9275
15040TIP3    H266612   4.004   3.197  12.788  0.8574  0.7071  0.2868
15041TIP3   OH266613   1.713   1.421   3.941  0.0548  0.4115 -0.0653
15041TIP3    H166614   1.655   1.478   3.890  0.6455 -0.1109 -1.3630
15041TIP3    H266615   1.704   1.453   4.031 -2.2150  0.3563 -0.2130
15042TIP3   OH266616   1.606   4.403   1.229  0.4266 -0.2655 -0.2019
15042TIP3    H166617   1.530   4.433   1.180 -0.7082 -1.6922  0.6068
15042TIP3    H266618   1.671   4.472   1.219 -0.5043  0.3849 -1.9941
15043TIP3   OH266619   4.237   6.412  14.082  0.4792 -0.8124  0.3997
15043TIP3    H166620   4.297   6.349  14.121  0.8283 -0.3891  0.5619
15043TIP3    H266621   4.198   6.366  14.008  0.4012 -1.3570  0.7762
15044TIP3   OH266622   1.002   2.751   1.011 -0.1767 -0.3328  0.0450
15044TIP3    H166623   0.972   2.746   0.920  0.7066 -2.8923 -0.1744
15044TIP3    H266624   0.949   2.685   1.057 -0.5972  0.9089  1.4300
15045TIP3   OH266625   5.422   2.924   2.426 -0.0721  0.0395  0.5529
15045TIP3    H166626   5.336   2.966   2.423 -0.0254  0.0737 -1.6981
15045TIP3    H266627   5.462   2.957   2.506 -2.0212  0.2569  1.4989
15046TIP3   OH266628   4.402   4.539   1.799  0.6431 -0.0805  0.1451
15046TIP3    H166629   4.377   4.488   1.723 -0.2126  0.1772  0.2425
15046TIP3    H266630   4.483   4.498   1.831  0.6078 -0.6299 -0.4647
15047TIP3   OH266631   0.617   5.828  10.054  0.2510 -0.5946  0.3449
15047TIP3    H166632   0.704   5.841  10.017  0.5070  1.1355  1.4781
15047TIP3    H266633   0.632   5.814  10.147 -0.5981 -1.9238  0.3103
15048TIP3   OH266634   1.623   0.160   3.481 -0.7043  0.6503  0.4830
15048TIP3    H166635   1.578   0.176   3.563 -0.6306  1.3173  0.4010
15048TIP3    H266636   1.607   0.067   3.461 -1.4277  0.7040  0.8152
15049TIP3   OH266637   6.864   2.542  15.265 -0.8163 -0.4048 -0.4871
15049TIP3    H166638   6.817   2.460  15.278 -0.8175 -0.0836  2.0939
15049TIP3    H266639   6.817   2.606  15.318  0.5688  0.7106 -0.5334
15050TIP3   OH266640   1.434   4.008  11.071 -0.2328  0.3460  0.3039
15050TIP3    H166641   1.519   3.969  11.092 -1.4588 -2.1748  0.9952
15050TIP3    H266642   1.448   4.055  10.989  1.4040 -1.6834 -0.6620
15051TIP3   OH266643   6.764   4.867   6.321  0.2311 -0.3910  0.2906
15051TIP3    H166644   6.798   4.917   6.395 -1.2625  0.4345  0.4646
15051TIP3    H266645   6.692   4.921   6.287  1.3067 -0.3775 -2.2143
15052TIP3   OH266646   6.222   1.977  13.765 -0.3377 -0.3131 -0.0501
15052TIP3    H166647   6.127   1.971  13.767 -0.3449 -0.1256  0.7236
15052TIP3    H266648   6.252   1.901  13.815 -0.1139  0.0788  0.4270
15053TIP3   OH266649   6.019   6.604   4.759  0.1311  0.1182  0.0600
15053TIP3    H166650   6.018   6.610   4.854  0.6969  0.3559  0.0568
15053TIP3    H266651   6.106   6.636   4.734 -0.0187  0.0741 -0.5347
15054TIP3   OH266652   0.937   4.272  12.013  0.2799  0.3264 -0.5347
15054TIP3    H166653   1.028   4.295  12.028  0.1924  1.2452 -1.3324
15054TIP3    H266654   0.940   4.194  11.958  0.5709 -0.4215  0.5070
15055TIP3   OH266655   5.510   6.758   4.418 -0.5323  0.0437 -0.3252
15055TIP3    H166656   5.569   6.816   4.370 -1.3268 -0.0792 -1.5017
15055TIP3    H266657   5.422   6.790   4.395 -0.9636 -1.2361 -0.5043
15056TIP3   OH266658   6.628   4.656   4.565 -0.0446  0.0753 -0.5115
15056TIP3    H166659   6.660   4.585   4.509  1.2963 -0.6937  1.1540
15056TIP3    H266660   6.610   4.728   4.504  1.3181 -0.7258 -1.9321
15057TIP3   OH266661   0.989   6.129   4.709 -0.0356  0.4320 -0.7633
15057TIP3    H166662   0.911   6.136   4.764 -0.8876 -1.0927 -1.6831
15057TIP3    H266663   0.969   6.184   4.633 -1.7483 -2.4160 -2.5658
15058TIP3   OH266664   3.544   6.531   1.389 -0.6328 -0.0183 -0.1455
15058TIP3    H166665   3.479   6.521   1.320  0.1734  1.1525 -1.1074
15058TIP3    H266666   3.523   6.615   1.431 -0.6751 -0.3732  0.5623
15059TIP3   OH266667   6.046   4.027   0.307 -0.0240 -0.4723 -0.1153
15059TIP3    H166668   6.040   3.933   0.320 -1.0607 -0.3224  0.6252
15059TIP3    H266669   6.137   4.048   0.328  0.3097 -1.3460 -0.6263
15060TIP3   OH266670   6.268   5.098   3.996 -0.5879  0.2032 -0.1404
15060TIP3    H166671   6.298   5.152   3.923  0.3887  0.2452  0.2786
15060TIP3    H266672   6.307   5.138   4.074  0.6692 -1.4257  0.1206
15061TIP3   OH266673   6.353   3.724   4.730 -0.2126  0.0974  0.3352
15061TIP3    H166674   6.343   3.790   4.661 -1.3860  0.2924  0.6682
15061TIP3    H266675   6.365   3.774   4.810  2.1041 -0.1267  0.2004
15062TIP3   OH266676   6.258   0.631   9.815  0.1572 -0.5634  0.7300
15062TIP3    H166677   6.228   0.556   9.866  2.4790 -1.4805  0.8448
15062TIP3    H266678   6.300   0.593   9.738 -1.9588  0.7546 -1.2315
15063TIP3   OH266679   2.279   4.128   2.671  0.2898 -0.1998 -0.3125
15063TIP3    H166680   2.264   4.041   2.633  0.2225  0.0233 -0.8003
15063TIP3    H266681   2.241   4.189   2.609 -0.2530  0.1555  0.3488
15064TIP3   OH266682   7.061   6.208   5.928 -0.3269  0.0064  0.4222
15064TIP3    H166683   7.049   6.182   6.019 -0.5867 -0.0504  0.3724
15064TIP3    H266684   6.984   6.261   5.907 -0.9895 -1.1452 -0.1859
15065TIP3   OH266685   4.199   2.205   4.733  0.2766  0.0237 -0.4237
15065TIP3    H166686   4.287   2.220   4.697  1.5149  0.4903  2.4738
15065TIP3    H266687   4.182   2.113   4.718  2.2129 -0.5821  0.7230
15066TIP3   OH266688   0.863   0.375  14.734  0.5801  0.0788  0.3265
15066TIP3    H166689   0.857   0.282  14.756  2.7114 -0.0029  0.8145
15066TIP3    H266690   0.945   0.404  14.775  0.4033  1.9648 -0.5426
15067TIP3   OH266691   4.381   1.678   5.155 -0.6221 -0.0728 -0.1519
15067TIP3    H166692   4.403   1.680   5.248 -0.9152 -2.2534  0.0077
15067TIP3    H266693   4.464   1.690   5.110 -0.3697  0.2104  0.3822
15068TIP3   OH266694   3.376   4.561   5.428  0.5077 -0.5817  0.1609
15068TIP3    H166695   3.297   4.527   5.386  0.0492  0.2602  0.3191
15068TIP3    H266696   3.378   4.518   5.513 -0.2844  0.0447  0.5170
15069TIP3   OH266697   1.791   4.260   3.823 -0.4137  0.1547  0.4174
15069TIP3    H166698   1.816   4.253   3.915  1.0609  1.1833  0.1322
15069TIP3    H266699   1.736   4.338   3.819  0.0053  0.4486  0.3408
15070TIP3   OH266700   0.990   0.824  15.480 -0.1673 -0.0481 -0.0251
15070TIP3    H166701   0.909   0.871  15.463 -0.2511  0.0973  0.7423
15070TIP3    H266702   0.992   0.755  15.415 -1.0164 -0.1822  0.0836
15071TIP3   OH266703   0.652   2.106   2.308 -0.1985  0.3524 -0.2132
15071TIP3    H166704   0.670   2.138   2.396 -0.1924  0.0123 -0.0921
15071TIP3    H266705   0.575   2.051   2.318 -2.2271  2.8564 -0.9241
15072TIP3   OH266706   6.172   5.022  12.991 -0.0318  0.0975  0.2252
15072TIP3    H166707   6.087   4.983  12.967  0.9252 -1.8401 -0.2302
15072TIP3    H266708   6.162   5.048  13.083 -1.4444  0.9302 -0.1302
15073TIP3   OH266709   6.092   2.103   3.516 -0.0755  0.1467  0.0782
15073TIP3    H166710   6.132   2.058   3.442 -0.6463  1.0304 -0.7914
15073TIP3    H266711   6.032   2.038   3.554  0.8977 -0.6140  0.3537
15074TIP3   OH266712   6.710   4.516  13.250 -0.8259 -0.4726  0.3655
15074TIP3    H166713   6.756   4.582  13.198 -0.3923 -1.6019 -0.7333
15074TIP3    H266714   6.674   4.565  13.324 -1.5391  1.2093 -1.0173
15075TIP3   OH266715   3.861   1.798   6.007  0.0151 -0.6942  0.0781
15075TIP3    H166716   3.931   1.803   5.942  0.6639 -0.8054  0.7568
15075TIP3    H266717   3.798   1.865   5.979  1.3431  0.8011  0.5580
15076TIP3   OH266718   3.869   0.725   2.494  0.1005  0.6278  0.0720
15076TIP3    H166719   3.955   0.707   2.530 -1.1084 -2.4432  1.7494
15076TIP3    H266720   3.822   0.770   2.564 -0.8649 -1.4105  0.8213
15077TIP3   OH266721   0.825   4.053  15.272 -0.7250 -0.5284  0.1662
15077TIP3    H166722   0.792   4.134  15.234 -0.3261 -0.3933  0.1051
15077TIP3    H266723   0.847   4.075  15.362  1.2981 -0.0301 -0.4044
15078TIP3   OH266724   5.043   4.555   2.277  0.1453  0.4256  0.3247
15078TIP3    H166725   5.016   4.466   2.300 -2.4028  0.6512 -1.4102
15078TIP3    H266726   4.983   4.581   2.207  1.7262  3.0109 -0.1920
15079TIP3   OH266727   2.471   6.872  10.571  0.0609 -0.5200 -0.1602
15079TIP3    H166728   2.540   6.818  10.534 -0.4193 -0.5361 -1.0580
15079TIP3    H266729   2.429   6.912  10.495 -0.7484 -0.3093  0.3885
15080TIP3   OH266730   4.435   6.579   4.278 -0.3406 -0.0192 -0.2534
15080TIP3    H166731   4.387   6.618   4.351 -0.7495  2.3017 -1.6629
15080TIP3    H266732   4.396   6.617   4.199  2.2359  0.1492 -1.5736
15081TIP3   OH266733   5.356   1.434  12.396  0.3891 -0.1531 -0.2337
15081TIP3    H166734   5.449   1.446  12.373  0.3439  1.2623  0.2542
15081TIP3    H266735   5.310   1.442  12.313  0.6709 -0.6219 -0.4442
15082TIP3   OH266736   0.458   0.035   0.766  0.1377 -0.4718  0.2739
15082TIP3    H166737   0.467   0.128   0.748 -1.6291 -0.3057  0.0370
15082TIP3    H266738   0.545  -0.001   0.751  0.7434  1.0532 -0.0858
15083TIP3   OH266739   2.401   6.334   6.023 -0.2443  0.2205 -0.0030
15083TIP3    H166740   2.457   6.386   6.081  0.5658 -1.2622  0.5776
15083TIP3    H266741   2.315   6.337   6.064  0.0440  0.1973  0.6098
15084TIP3   OH266742   0.218   1.031  11.404 -0.4736 -0.4240 -0.5426
15084TIP3    H166743   0.189   1.122  11.407 -0.4336 -0.4291  0.2184
15084TIP3    H266744   0.183   0.992  11.484 -2.0983 -1.5933 -1.7847
15085TIP3   OH266745   6.645   2.476   5.214 -0.2074  0.0023 -0.0529
15085TIP3    H166746   6.578   2.470   5.146 -0.2311 -0.5086  0.0138
15085TIP3    H266747   6.596   2.496   5.294 -0.1683  0.7193 -0.2007
15086TIP3   OH266748   0.463   0.219   0.385  0.1120 -0.5656  0.0451
15086TIP3    H166749   0.420   0.248   0.304  1.7997  0.2463 -0.6117
15086TIP3    H266750   0.418   0.266   0.455 -0.8207 -0.6407 -0.4859
15087TIP3   OH266751   0.038   3.744  10.615  0.0570  0.1432 -0.2506
15087TIP3    H166752   0.046   3.798  10.536 -0.5346 -0.2958 -0.6148
15087TIP3    H266753  -0.051   3.711  10.613 -0.4041  1.1850  1.3023
15088TIP3   OH266754   3.269   5.188   1.838 -0.4230 -0.2369 -0.6266
15088TIP3    H166755   3.265   5.104   1.884 -2.9235  0.1427  0.0071
15088TIP3    H266756   3.207   5.179   1.766  1.0565  0.2973 -2.0177
15089TIP3   OH266757   0.947   3.894  15.100 -0.0948  0.4615  0.2912
15089TIP3    H166758   0.902   3.929  15.178 -0.2175 -0.2910  0.5644
15089TIP3    H266759   0.879   3.891  15.033 -0.0242  0.9768  0.1954
15090TIP3   OH266760   6.623   3.174   5.066  0.3019  0.0321  0.4477
15090TIP3    H166761   6.629   3.229   5.144  0.7883 -1.3160  1.4037
15090TIP3    H266762   6.637   3.085   5.099  1.7791 -0.4577 -1.3345
15091TIP3   OH266763   0.898   1.306   2.342  0.3172  0.5523  0.2097
15091TIP3    H166764   0.881   1.212   2.342 -0.8985  0.7247  1.6399
15091TIP3    H266765   0.826   1.344   2.291 -0.1303  0.8065  1.0032
15092TIP3   OH266766   2.250   3.987   3.808  0.0175 -0.5116  0.2050
15092TIP3    H166767   2.180   3.998   3.745 -1.5425 -1.8196  1.6007
15092TIP3    H266768   2.222   3.914   3.863  3.0716 -1.9861  0.0507
15093TIP3   OH266769   3.659   3.553   5.320  0.6835  0.0586 -0.1478
15093TIP3    H166770   3.649   3.519   5.409  1.2242 -2.3658 -0.9177
15093TIP3    H266771   3.587   3.514   5.271  0.7258  0.8976 -0.9012
15094TIP3   OH266772   1.478   1.558   4.479 -0.0680 -0.4353  0.0702
15094TIP3    H166773   1.525   1.642   4.481  0.7589 -0.8603 -0.6233
15094TIP3    H266774   1.531   1.500   4.533 -0.1116 -0.7654 -0.2410
15095TIP3   OH266775   5.589   1.947  13.092 -0.3390  0.0971  0.1413
15095TIP3    H166776   5.631   1.962  13.177  0.4423  0.5958 -0.3247
15095TIP3    H266777   5.506   1.995  13.098 -0.5295 -0.3039  0.8091
15096TIP3   OH266778   1.287   6.092   2.902  0.4445  0.0478 -0.3299
15096TIP3    H166779   1.297   6.158   2.833  1.7847  1.5367  1.2026
15096TIP3    H266780   1.200   6.110   2.939  1.2026  1.7075  0.7520
15097TIP3   OH266781   5.652   1.039   0.063 -0.0936  0.4610 -0.6321
15097TIP3    H166782   5.696   1.065  -0.018  0.7782 -0.6969 -0.5529
15097TIP3    H266783   5.625   0.948   0.049  1.4452 -0.3001  0.8921
15098TIP3   OH266784   0.964   0.113   3.589 -0.1840 -0.1334  0.4877
15098TIP3    H166785   0.947   0.202   3.620 -0.2763 -0.4306  1.3088
15098TIP3    H266786   0.995   0.066   3.666 -0.5484 -0.9252  0.1646
15099TIP3   OH266787   6.008   4.093  15.362  0.3518  0.6898 -0.5412
15099TIP3    H166788   5.961   4.152  15.303  0.7485  0.8416 -0.7094
15099TIP3    H266789   6.044   4.026  15.304 -1.2766 -0.5357 -0.2038
15100TIP3   OH266790   2.063   4.514   0.369 -0.4798 -0.0734  0.4538
15100TIP3    H166791   2.142   4.549   0.410 -0.1603 -0.5397  0.2385
15100TIP3    H266792   2.020   4.465   0.439  1.7600 -3.7715 -0.4778
15101TIP3   OH266793   3.927   1.047   5.881  0.7220  0.5652  0.1739
15101TIP3    H166794   3.841   1.006   5.895 -0.2121  2.3382  0.0256
15101TIP3    H266795   3.972   0.988   5.821  0.0949 -1.0335  1.2217
15102TIP3   OH266796   0.636   3.101   9.401 -0.6735 -0.2357 -0.4120
15102TIP3    H166797   0.684   3.181   9.381 -0.0052 -0.8258 -1.2405
15102TIP3    H266798   0.655   3.083   9.493  1.7942 -1.1489 -1.0386
15103TIP3   OH266799   3.609   7.003  15.126  0.4083 -0.5374  0.0652
15103TIP3    H166800   3.703   7.017  15.118  0.4996 -0.7973  0.6601
15103TIP3    H266801   3.571   7.063  15.062  0.9458  0.0201  0.2556
15104TIP3   OH266802   5.072   6.300   1.833 -0.3234 -0.2071  0.0686
15104TIP3    H166803   5.026   6.253   1.765 -1.6745 -0.2073  0.9341
15104TIP3    H266804   5.024   6.383   1.842 -0.2964 -0.2801  1.1135
15105TIP3   OH266805   3.039   5.313  13.055 -0.2038  0.0358  0.2383
15105TIP3    H166806   2.984   5.239  13.029 -0.6874  0.0360  1.2087
15105TIP3    H266807   2.991   5.354  13.127 -0.2557  1.6780 -0.6762
15106TIP3   OH266808   2.294   4.200  11.327 -0.0594 -0.4043  0.2645
15106TIP3    H166809   2.320   4.142  11.398 -0.3249  0.8229  1.4035
15106TIP3    H266810   2.200   4.216  11.341 -0.2155 -0.4718 -0.6124
15107TIP3   OH266811   0.011   5.409   5.248 -0.2926 -0.1499 -0.4944
15107TIP3    H166812  -0.036   5.333   5.213  0.1154 -0.3906 -0.5235
15107TIP3    H266813   0.065   5.439   5.175  0.4998 -0.5997 -0.0986
15108TIP3   OH266814   4.912   1.250   5.950  0.0021 -0.1868  0.0180
15108TIP3    H166815   4.889   1.311   5.880 -1.1482  0.0422  0.5677
15108TIP3    H266816   4.839   1.189   5.953 -0.3326  0.2538  1.5038
15109TIP3   OH266817   5.634   1.908   1.786  0.2652 -0.1683 -0.3064
15109TIP3    H166818   5.566   1.941   1.845  0.1701 -0.0252 -0.4951
15109TIP3    H266819   5.620   1.956   1.704 -0.3519 -1.2157 -0.8392
15110TIP3   OH266820   1.088   7.058   3.431 -0.5502 -0.1982  0.0550
15110TIP3    H166821   1.021   7.007   3.476 -0.6247 -0.8980 -0.8343
15110TIP3    H266822   1.066   7.149   3.453 -2.5610 -0.3122 -1.2110
15111TIP3   OH266823   0.924   4.972  10.927  0.2919  0.2666 -0.1270
15111TIP3    H166824   0.902   5.045  10.985 -0.3128  0.0397 -0.0579
15111TIP3    H266825   0.992   4.924  10.973 -0.2896  0.0022  0.4762
15112TIP3   OH266826   3.812   5.160   1.648  0.0288  0.0641 -0.1435
15112TIP3    H166827   3.843   5.171   1.738 -0.8910  0.4188  0.1413
15112TIP3    H266828   3.752   5.233   1.634  0.3867  0.1753 -1.1518
15113TIP3   OH266829   6.337   4.491   2.434 -0.0815  0.0383 -0.8307
15113TIP3    H166830   6.379   4.420   2.484 -0.3317 -0.7900 -1.7574
15113TIP3    H266831   6.355   4.570   2.485  3.7241 -0.0303 -1.7215
15114TIP3   OH266832   5.089   5.630  13.602  0.2289 -0.2160 -0.3383
15114TIP3    H166833   5.104   5.708  13.548 -0.5281 -0.3871 -0.8121
15114TIP3    H266834   5.154   5.567  13.570  0.0890 -0.1597 -0.7414
15115TIP3   OH266835   6.602   6.843  15.650  0.1155 -0.5822 -0.0104
15115TIP3    H166836   6.563   6.808  15.730 -0.6480  2.0751  0.8554
15115TIP3    H266837   6.528   6.879  15.601  1.0324  1.7557  0.2036
15116TIP3   OH266838   1.418   0.104   1.563  0.3562  0.5148 -0.8406
15116TIP3    H166839   1.343   0.067   1.516 -0.3449 -0.8065  1.2060
15116TIP3    H266840   1.440   0.038   1.628  3.1045  1.0469 -1.1447
15117TIP3   OH266841   2.884   5.779  14.319 -0.1728 -0.0842 -0.0890
15117TIP3    H166842   2.902   5.763  14.412 -1.1188 -0.6851  0.0066
15117TIP3    H266843   2.896   5.873  14.308  0.6917 -0.1205  0.4700
15118TIP3   OH266844   6.279   5.916  12.024  0.3015  0.0044 -0.7506
15118TIP3    H166845   6.216   5.986  12.002 -0.8757 -0.5739  0.6297
15118TIP3    H266846   6.312   5.887  11.939 -1.6618  0.0282 -1.5851
15119TIP3   OH266847   0.401   4.872   2.177 -0.2981 -0.3807  0.0955
15119TIP3    H166848   0.324   4.909   2.135  0.2615 -0.5076 -1.1019
15119TIP3    H266849   0.436   4.810   2.113  0.3846 -0.8709  0.9112
15120TIP3   OH266850   5.283   3.687   3.999 -0.1239  0.0856  0.2687
15120TIP3    H166851   5.263   3.595   4.019 -0.2954  0.2329  0.8013
15120TIP3    H266852   5.345   3.714   4.067 -0.4473  0.4991  0.4067
15121TIP3   OH266853   2.115   0.939   5.184  0.2000  0.1538  0.7399
15121TIP3    H166854   2.163   0.859   5.204 -0.3965  0.6814  5.3674
15121TIP3    H266855   2.024   0.917   5.205 -0.2241  1.5632  0.4320
15122TIP3   OH266856   7.119   5.215   4.061  0.3766  0.2711  0.3139
15122TIP3    H166857   7.134   5.146   3.995 -1.1557  2.0859 -2.0925
15122TIP3    H266858   7.028   5.203   4.088  0.5462  0.4785  0.9963
15123TIP3   OH266859   4.915   0.114   2.439 -0.3097  0.2245  0.2570
15123TIP3    H166860   4.866   0.047   2.391  0.7017 -0.2082 -0.2132
15123TIP3    H266861   4.963   0.161   2.371 -0.6725  1.1586  0.6302
15124TIP3   OH266862   6.288   6.129   4.706  0.0182 -0.1886 -0.3796
15124TIP3    H166863   6.288   6.109   4.799  0.9852 -0.0385 -0.3426
15124TIP3    H266864   6.198   6.156   4.687 -0.0827  0.1757  0.5871
15125TIP3   OH266865   1.332   5.749   0.251  0.4198  0.4555  0.4034
15125TIP3    H166866   1.326   5.701   0.169 -1.3279 -0.0256  0.7624
15125TIP3    H266867   1.341   5.681   0.318 -1.3442  0.6192  0.8559
15126TIP3   OH266868   4.560   3.346  13.073 -0.2544  0.5825 -0.2111
15126TIP3    H166869   4.569   3.253  13.092 -0.0402  0.7761  0.6944
15126TIP3    H266870   4.475   3.354  13.030  0.1363 -0.1495 -1.1540
15127TIP3   OH266871   2.244   2.961   1.734 -0.2506  0.2313 -0.1990
15127TIP3    H166872   2.239   3.056   1.733  0.5431  0.2836  0.3096
15127TIP3    H266873   2.212   2.934   1.648  1.0315  1.0270 -0.9556
15128TIP3   OH266874   2.609   3.175   3.199  0.1826  0.2749  0.0071
15128TIP3    H166875   2.622   3.108   3.267 -2.1160 -0.2797 -0.0261
15128TIP3    H266876   2.555   3.242   3.242 -1.9656 -0.4502 -1.4180
15129TIP3   OH266877   5.846   2.330  14.924 -0.2000  0.4587  0.5368
15129TIP3    H166878   5.878   2.375  14.846  0.1368 -0.1793  0.2996
15129TIP3    H266879   5.762   2.293  14.898  2.0473 -4.1188 -1.2615
15130TIP3   OH266880   2.367   7.002   5.256  0.0437  0.0283  0.1159
15130TIP3    H166881   2.371   7.048   5.172  2.1680  0.6626  0.4998
15130TIP3    H266882   2.281   7.024   5.291  0.3545  2.4239 -0.4521
15131TIP3   OH266883   3.754   6.286   3.884  0.0267  0.3226  0.2535
15131TIP3    H166884   3.827   6.348   3.881  0.5454 -0.3261 -1.3848
15131TIP3    H266885   3.716   6.288   3.796 -1.2871 -0.1228  0.7869
15132TIP3   OH266886   4.290   7.003   4.662  0.0076  0.2023 -0.2666
15132TIP3    H166887   4.274   6.959   4.746  0.0698 -1.7672 -1.2182
15132TIP3    H266888   4.203   7.020   4.627 -0.0209  1.2533  0.2847
15133TIP3   OH266889   7.073   0.379   0.702  0.7962  0.7159  0.2321
15133TIP3    H166890   7.028   0.462   0.685  0.1755  0.6345  1.4023
15133TIP3    H266891   7.157   0.405   0.741  0.4477  0.7999  0.9475
15134TIP3   OH266892   1.897   3.858   3.024  0.2049 -0.1845 -0.4704
15134TIP3    H166893   1.848   3.783   2.989  0.7780 -1.4307  1.2636
15134TIP3    H266894   1.864   3.868   3.113  1.8434  0.0840  0.1308
15135TIP3   OH266895   4.064   1.128   3.322  0.0463  0.2248  0.0753
15135TIP3    H166896   3.994   1.072   3.354 -0.0200  0.8026  0.9668
15135TIP3    H266897   4.026   1.173   3.246 -0.4786  0.3969  0.4393
15136TIP3   OH266898   2.535   0.074  14.006 -0.1444 -0.5692 -0.6306
15136TIP3    H166899   2.482   0.114  14.075 -0.2859 -0.9917 -0.4937
15136TIP3    H266900   2.515  -0.019  14.011  0.3078 -0.6800 -0.8424
15137TIP3   OH266901   5.817   5.863  12.638 -0.3408 -0.0257 -0.2332
15137TIP3    H166902   5.827   5.769  12.651  0.0226  0.1528  0.9063
15137TIP3    H266903   5.835   5.877  12.545  2.6726 -0.7307  0.1329
15138TIP3   OH266904   5.061   6.735  10.568 -0.2853  0.0320 -0.5667
15138TIP3    H166905   5.129   6.704  10.628 -1.7765 -2.1315  0.1215
15138TIP3    H266906   5.102   6.734  10.482  1.2326  1.0663  0.1101
15139TIP3   OH266907   6.624   1.406  11.511  0.3694  0.0842  0.4115
15139TIP3    H166908   6.705   1.383  11.557  0.1297  1.7235  1.7452
15139TIP3    H266909   6.633   1.499  11.491 -0.8658  0.1136 -0.1166
15140TIP3   OH266910   0.720   4.252  14.439 -0.4157  0.0707  0.2371
15140TIP3    H166911   0.628   4.267  14.459 -0.0073  2.7605  0.4119
15140TIP3    H266912   0.722   4.165  14.397 -3.0943  0.2287 -0.3526
15141TIP3   OH266913   5.816   6.108   3.398 -0.4199  0.1068 -0.2318
15141TIP3    H166914   5.896   6.068   3.362 -0.3274 -1.9231  2.0184
15141TIP3    H266915   5.848   6.181   3.452 -0.1978  0.1079 -0.3610
15142TIP3   OH266916   3.316   2.303   3.400  0.2962  0.5473 -0.1738
15142TIP3    H166917   3.362   2.372   3.446  0.6794  0.2218 -0.0599
15142TIP3    H266918   3.382   2.264   3.343  0.2039 -0.0072  0.0874
15143TIP3   OH266919   2.798   5.158   1.878  0.6977  0.5735  0.7636
15143TIP3    H166920   2.776   5.139   1.969 -0.5020  0.7894  0.5373
15143TIP3    H266921   2.856   5.087   1.852 -0.3679 -0.4773  1.1771
15144TIP3   OH266922   5.443   0.838   5.177 -0.0468  0.7080 -0.3038
15144TIP3    H166923   5.455   0.776   5.105 -0.1625 -0.1349  0.3838
15144TIP3    H266924   5.407   0.785   5.248 -1.7789  1.9123 -0.2405
15145TIP3   OH266925   0.513   2.032   5.161  0.0863  0.5032  0.0201
15145TIP3    H166926   0.450   1.960   5.154 -2.0718  2.1768  0.9140
15145TIP3    H266927   0.539   2.050   5.071  0.3223 -1.0607 -0.2525
15146TIP3   OH266928   5.098   6.135   2.706 -0.6525 -0.2062 -0.1711
15146TIP3    H166929   5.100   6.228   2.731 -1.1195  0.4377 -2.2847
15146TIP3    H266930   5.190   6.113   2.691 -0.7057  1.0985 -3.2830
15147TIP3   OH266931   1.304   5.429   1.877  0.4841  0.2007  0.1290
15147TIP3    H166932   1.331   5.483   1.803  2.4698  0.7241  1.1812
15147TIP3    H266933   1.272   5.491   1.942 -1.3529 -0.2638 -0.2671
15148TIP3   OH266934   1.941   1.559   6.231 -0.0295 -0.4958 -0.1935
15148TIP3    H166935   1.939   1.467   6.204 -1.4839 -0.5838  0.1173
15148TIP3    H266936   1.863   1.597   6.191 -0.8453 -0.0268  1.7226
15149TIP3   OH266937   4.814   3.377   3.576  0.0622 -0.4100  0.2400
15149TIP3    H166938   4.773   3.315   3.515 -0.7920  0.2406  0.1416
15149TIP3    H266939   4.879   3.324   3.623 -0.9760 -1.5046  0.5044
15150TIP3   OH266940   5.295   0.446   2.811 -0.0459 -1.0359  0.1321
15150TIP3    H166941   5.343   0.437   2.729  0.1245  0.1203  0.0866
15150TIP3    H266942   5.334   0.381   2.869 -0.8415 -2.5804 -0.9794
15151TIP3   OH266943   4.638   4.328  12.501  0.1886 -0.1031  0.0353
15151TIP3    H166944   4.711   4.284  12.457 -0.2686 -1.0198  0.1711
15151TIP3    H266945   4.660   4.325  12.594 -0.5839 -1.5397  0.2157
15152TIP3   OH266946   5.412   3.543   4.816  0.1518  1.0866  0.3656
15152TIP3    H166947   5.489   3.553   4.871  2.7362  0.4124 -2.8455
15152TIP3    H266948   5.366   3.467   4.852  0.9519  1.4628  2.2952
15153TIP3   OH266949   2.701   1.605   2.020  0.2322  0.3072  0.0881
15153TIP3    H166950   2.624   1.551   2.002 -0.2860  1.2287 -0.5381
15153TIP3    H266951   2.666   1.690   2.047  0.9915  1.2973 -1.8696
15154TIP3   OH266952   3.812   4.015  10.980  0.0939 -0.0161 -0.4519
15154TIP3    H166953   3.738   3.963  10.947  0.6650  0.4382 -2.5984
15154TIP3    H266954   3.867   3.952  11.026  1.6224 -1.8800 -4.3482
15155TIP3   OH266955   6.529   0.415   4.784 -0.1007 -0.1261 -0.0008
15155TIP3    H166956   6.500   0.365   4.708  0.6337 -1.4267  0.5450
15155TIP3    H266957   6.453   0.469   4.807 -1.4883 -2.0655  0.2578
15156TIP3   OH266958   6.958   4.895   5.822  0.4816 -0.3221 -0.4099
15156TIP3    H166959   7.041   4.859   5.851  0.1052 -0.9883 -0.1344
15156TIP3    H266960   6.976   4.932   5.736  1.1539 -0.0950 -0.1716
15157TIP3   OH266961   3.384   6.108  14.568  0.6589  0.4351 -0.0577
15157TIP3    H166962   3.323   6.067  14.508 -0.0688  1.5862 -0.1429
15157TIP3    H266963   3.471   6.079  14.539  0.1787 -1.0311 -0.0718
15158TIP3   OH266964   6.654   3.161  11.843 -0.1709  0.0696  0.2382
15158TIP3    H166965   6.718   3.165  11.914  0.7069  0.9709 -0.5784
15158TIP3    H266966   6.706   3.137  11.766 -1.1231 -0.9661 -0.1084
15159TIP3   OH266967   3.225   7.124   5.614 -0.3899  0.2261  0.6735
15159TIP3    H166968   3.273   7.065   5.672 -2.8949 -0.6788  1.9581
15159TIP3    H266969   3.287   7.195   5.595  1.6275 -1.1931  1.6699
15160TIP3   OH266970   0.010   4.277  13.042  0.5274  0.1348  0.6658
15160TIP3    H166971   0.095   4.234  13.048  0.0429 -1.1215 -0.7835
15160TIP3    H266972  -0.053   4.209  13.066 -0.0754  1.3912  2.9925
15161TIP3   OH266973   6.122   7.078   2.218 -0.0429  0.1881 -0.9763
15161TIP3    H166974   6.109   7.017   2.291 -1.4264 -0.0688 -1.4246
15161TIP3    H266975   6.188   7.035   2.163 -1.0377 -0.9527 -1.3122
15162TIP3   OH266976   3.015   3.570   1.484 -0.0438  0.0174  0.0286
15162TIP3    H166977   3.071   3.647   1.479  0.8828 -0.5899  0.6778
15162TIP3    H266978   3.072   3.498   1.455 -0.2237 -0.7350  1.4746
15163TIP3   OH266979   5.715   6.639   0.720  0.3878  0.3965  0.1125
15163TIP3    H166980   5.723   6.694   0.642  1.0480 -0.4277 -0.4220
15163TIP3    H266981   5.666   6.562   0.691  3.6964 -1.6652 -0.5306
15164TIP3   OH266982   2.448   1.323  11.528  0.2398  0.3831 -0.1282
15164TIP3    H166983   2.466   1.373  11.608 -2.6346 -0.5743  1.2531
15164TIP3    H266984   2.437   1.233  11.559 -1.0862  0.0206 -1.5557
15165TIP3   OH266985   4.952   6.175   2.454  0.2590  0.0720 -0.7556
15165TIP3    H166986   5.007   6.119   2.509 -0.3594 -0.1252 -0.3378
15165TIP3    H266987   4.986   6.263   2.470 -0.7260  0.1829  0.9485
15166TIP3   OH266988   0.527   1.340   5.163 -0.1905 -0.7378  0.2132
15166TIP3    H166989   0.554   1.338   5.071 -1.5941  2.1352 -0.3710
15166TIP3    H266990   0.603   1.375   5.210 -0.9793  2.4652 -0.6720
15167TIP3   OH266991   4.595   0.343   1.991  0.2893  0.0775  0.3388
15167TIP3    H166992   4.514   0.313   2.032  1.2102 -1.0801  1.3937
15167TIP3    H266993   4.620   0.271   1.933  0.3705  0.5996 -0.2845
15168TIP3   OH266994   2.910   2.849   3.427 -0.0126 -0.3078  0.0480
15168TIP3    H166995   2.913   2.757   3.402  1.6363  0.1942 -1.8538
15168TIP3    H266996   2.919   2.848   3.523 -1.7397 -2.1446  0.2578
15169TIP3   OH266997   3.330   4.918   3.929  0.0472  0.2451  0.6674
15169TIP3    H166998   3.285   4.940   4.010 -0.2455 -1.3482  0.9766
15169TIP3    H266999   3.418   4.893   3.956 -0.0773 -0.3778  0.5297
15170TIP3   OH267000   6.521   6.782  13.899  0.1231  0.3579  0.3438
15170TIP3    H167001   6.555   6.769  13.811 -1.8501 -1.3777 -0.2266
15170TIP3    H267002   6.453   6.849  13.888 -2.6319 -2.3350 -0.2469
15171TIP3   OH267003   0.152   1.000   1.417  0.7078  0.0737  0.3282
15171TIP3    H167004   0.107   0.968   1.495 -0.6488  0.0146 -0.4586
15171TIP3    H267005   0.139   0.932   1.351 -0.0453  1.0615 -0.5953
15172TIP3   OH267006   1.947   2.300   1.937  0.2605  0.2466  0.3220
15172TIP3    H167007   1.916   2.388   1.961 -1.5428 -0.2546 -0.0275
15172TIP3    H267008   1.875   2.263   1.886  2.1448 -0.3838 -2.0443
15173TIP3   OH267009   5.378   6.085   2.656  0.0948 -0.0738  0.4314
15173TIP3    H167010   5.454   6.062   2.709 -0.8580  0.4988  2.1304
15173TIP3    H267011   5.370   6.013   2.594  2.9113  0.6106 -0.8754
15174TIP3   OH267012   3.839   6.640   4.460 -0.1972  0.1722 -0.4830
15174TIP3    H167013   3.831   6.722   4.411  0.4551 -0.1415 -1.1404
15174TIP3    H267014   3.859   6.574   4.393 -1.3768 -0.6577 -0.0544
15175TIP3   OH267015   3.664   5.355  13.642  1.0117 -0.1527  0.1032
15175TIP3    H167016   3.694   5.411  13.570 -0.7568 -0.0236 -0.5858
15175TIP3    H267017   3.701   5.269  13.621  1.5054  0.1439 -0.2887
15176TIP3   OH267018   3.016   2.215   4.752 -0.2524 -0.3990  0.0321
15176TIP3    H167019   3.036   2.128   4.716 -1.5432 -0.7802  0.1893
15176TIP3    H267020   3.049   2.212   4.842  0.3102 -0.4909 -0.1778
15177TIP3   OH267021   4.371   6.214  14.199 -0.0744  0.2385  0.3340
15177TIP3    H167022   4.381   6.177  14.287 -0.8954  1.1288  0.8164
15177TIP3    H267023   4.460   6.215  14.164  0.2721 -0.1083  1.1668
15178TIP3   OH267024   1.590   0.244   0.858 -0.0803 -0.5444 -0.2076
15178TIP3    H167025   1.586   0.314   0.923 -0.6650 -1.9613  1.3684
15178TIP3    H267026   1.514   0.259   0.802  0.7820  1.0552 -0.9969
15179TIP3   OH267027   1.483   3.170   1.625  0.4458  0.0434  0.2461
15179TIP3    H167028   1.507   3.131   1.709 -0.7527 -0.8760  0.1910
15179TIP3    H267029   1.554   3.146   1.566 -1.7915 -5.5095 -0.7927
15180TIP3   OH267030   6.448   0.481   1.656  0.1999 -0.1916  0.6444
15180TIP3    H167031   6.370   0.446   1.699 -0.7614  0.9728 -0.0673
15180TIP3    H267032   6.479   0.409   1.601 -0.1283 -0.8083  1.2515
15181TIP3   OH267033   0.006   3.691   2.874  0.2804  0.0028 -0.3741
15181TIP3    H167034  -0.055   3.623   2.902  0.1983  0.1008 -0.3092
15181TIP3    H267035   0.066   3.648   2.813  0.5444 -0.2467  0.0575
15182TIP3   OH267036   0.399   4.010   5.226 -0.0949  0.6046 -0.3226
15182TIP3    H167037   0.456   3.971   5.292 -0.6751 -0.8925 -0.6638
15182TIP3    H267038   0.353   4.081   5.272  0.8649  0.8000  0.3598
15183TIP3   OH267039   4.839   5.278   0.135  0.2857 -0.2609  0.3061
15183TIP3    H167040   4.803   5.263   0.047  1.0015  0.0757 -0.0517
15183TIP3    H267041   4.812   5.368   0.157  0.4137 -0.2143  0.2756
15184TIP3   OH267042   2.754   6.160   0.904 -0.8100  0.3796  0.3283
15184TIP3    H167043   2.692   6.087   0.909 -0.1474 -0.3072 -0.8582
15184TIP3    H267044   2.760   6.193   0.994 -1.2707 -0.9046  0.8575
15185TIP3   OH267045   4.885   4.811   4.674  0.0241  0.6261  0.5724
15185TIP3    H167046   4.913   4.815   4.582 -1.7621 -0.7839 -0.1051
15185TIP3    H267047   4.947   4.866   4.721  0.1761  2.5288 -1.6748
15186TIP3   OH267048   0.410   5.347  14.835 -0.1612  0.0020 -0.2335
15186TIP3    H167049   0.492   5.298  14.845 -1.2176 -1.7434  0.4919
15186TIP3    H267050   0.352   5.308  14.901 -1.2510  1.9193  0.0044
15187TIP3   OH267051   2.462   5.396   0.074 -0.1646 -0.1281  0.3225
15187TIP3    H167052   2.495   5.408  -0.015  2.6023  0.5657  1.3340
15187TIP3    H267053   2.468   5.301   0.089 -0.9447 -0.2848 -0.3160
15188TIP3   OH267054   4.331   6.404   5.145  0.3516 -0.3245  0.0652
15188TIP3    H167055   4.243   6.426   5.114  0.3300 -1.5480 -0.8388
15188TIP3    H267056   4.345   6.460   5.221 -2.0375 -1.4958  1.4963
15189TIP3   OH267057   1.753   5.471   2.637  0.0055 -0.0935  0.3213
15189TIP3    H167058   1.823   5.477   2.703  2.7771 -1.5452 -2.2633
15189TIP3    H267059   1.720   5.382   2.646 -0.8745  0.2727  0.8616
15190TIP3   OH267060   0.080   4.295   0.711 -0.0851 -0.5014 -0.2370
15190TIP3    H167061   0.078   4.201   0.693 -1.1950 -0.6148  0.3731
15190TIP3    H267062  -0.012   4.321   0.711  0.1269  0.3157  0.9507
15191TIP3   OH267063   0.309   3.905   2.879  0.0190  0.0895  0.3551
15191TIP3    H167064   0.337   3.979   2.826  0.4302 -0.1439  0.2405
15191TIP3    H267065   0.213   3.908   2.877 -0.0113 -0.6174 -1.4164
15192TIP3   OH267066   4.108   1.465  14.481  0.2863  0.1798 -0.5075
15192TIP3    H167067   4.119   1.451  14.575  1.2483 -0.3101 -0.6820
15192TIP3    H267068   4.119   1.378  14.443 -0.8989  0.2372 -1.0161
15193TIP3   OH267069   4.478   2.108  13.570  0.1788  0.2943  0.2410
15193TIP3    H167070   4.492   2.203  13.579 -0.2239  0.3508  0.2663
15193TIP3    H267071   4.390   2.093  13.603  0.7278 -0.2924  1.5507
15194TIP3   OH267072   0.183   5.655   1.387 -0.6046 -0.3735  0.3821
15194TIP3    H167073   0.278   5.651   1.373 -0.9222 -1.1251 -1.9371
15194TIP3    H267074   0.152   5.567   1.367 -1.9752  0.2977 -0.6568
15195TIP3   OH267075   3.279   7.070  15.455  0.1404 -0.0728 -0.6935
15195TIP3    H167076   3.222   7.137  15.417 -1.0917 -0.5077  0.3183
15195TIP3    H267077   3.219   7.006  15.492  1.1469  0.8559  2.9560
15196TIP3   OH267078   2.951   5.092   2.942 -0.0473 -0.4302  0.1256
15196TIP3    H167079   3.009   5.072   3.015  0.1673 -0.6142 -0.0948
15196TIP3    H267080   2.915   5.178   2.962  1.8696  0.6208 -0.7407
15197TIP3   OH267081   0.686   0.668  11.532 -0.0998 -0.2484 -0.2966
15197TIP3    H167082   0.650   0.681  11.444  1.4074  0.2571 -0.8722
15197TIP3    H267083   0.619   0.704  11.590 -1.2362 -0.8141 -1.2024
15198TIP3   OH267084   6.894   3.729  14.646  0.0754 -0.8077  0.3318
15198TIP3    H167085   6.974   3.779  14.625 -0.3737  0.1594  0.8702
15198TIP3    H267086   6.823   3.793  14.636 -0.5821 -1.5352  0.3357
15199TIP3   OH267087   1.260   0.850  11.768  0.0032  0.4351  0.1818
15199TIP3    H167088   1.313   0.855  11.689  0.6927  0.9286  0.6559
15199TIP3    H267089   1.222   0.938  11.778 -0.4920  0.2305  0.1223
15200TIP3   OH267090   3.444   1.372   1.393 -0.0809 -0.4470  0.1756
15200TIP3    H167091   3.482   1.425   1.322  1.3375 -0.2872  1.0062
15200TIP3    H267092   3.352   1.396   1.395 -0.0238 -0.0334 -1.2437
15201TIP3   OH267093   6.416   0.204   0.268 -0.5444  0.4334  0.4845
15201TIP3    H167094   6.435   0.289   0.307  2.0380 -0.0202  0.3808
15201TIP3    H267095   6.421   0.219   0.174  0.8469  0.0190  0.4746
15202TIP3   OH267096   6.152   3.498   4.744  0.4965 -0.1436 -0.2681
15202TIP3    H167097   6.133   3.592   4.751  0.5288 -0.2253  1.6838
15202TIP3    H267098   6.245   3.492   4.766  0.3187 -0.6948  0.3589
15203TIP3   OH267099   6.833   6.055   0.358  0.5470  0.3114 -0.4009
15203TIP3    H167100   6.820   6.117   0.430  2.3741  1.8386 -1.2952
15203TIP3    H267101   6.892   5.988   0.393  0.2178  0.2135 -0.0337
15204TIP3   OH267102   5.743   0.836  15.378 -0.7715 -0.2339  0.1035
15204TIP3    H167103   5.672   0.832  15.442 -1.3529  2.1378 -0.2952
15204TIP3    H267104   5.822   0.840  15.430 -1.1860  0.8284  0.6684
15205TIP3   OH267105   5.928   4.961   4.006  0.4370 -0.6949  0.5960
15205TIP3    H167106   5.867   4.902   4.051 -0.4105  0.1286  0.5701
15205TIP3    H267107   5.909   5.047   4.043  2.1408 -0.5283  1.1327
15206TIP3   OH267108   0.729   6.555   0.041  0.1567  0.3883  0.0980
15206TIP3    H167109   0.760   6.622  -0.020  1.6749  0.5255  0.9815
15206TIP3    H267110   0.633   6.560   0.035  0.2537  0.8519 -1.7442
15207TIP3   OH267111   0.783   0.504   4.688 -0.3323 -0.1281 -0.1113
15207TIP3    H167112   0.784   0.429   4.628 -0.1649 -0.4280  0.2579
15207TIP3    H267113   0.720   0.479   4.756 -0.0173 -0.0809  0.1989
15208TIP3   OH267114   1.130   0.589   5.030  0.2359  0.7607  0.8097
15208TIP3    H167115   1.106   0.521   5.092 -0.4948  0.3850  0.1164
15208TIP3    H267116   1.198   0.549   4.976 -2.2066 -0.5071 -1.5167
15209TIP3   OH267117   5.422   6.838   0.136 -0.2628  0.2789  0.3351
15209TIP3    H167118   5.490   6.886   0.090 -0.8693  2.7260  1.7887
15209TIP3    H267119   5.347   6.897   0.137 -1.2189 -0.8567  1.8857
15210TIP3   OH267120   5.694   1.676  14.198 -0.0356  0.6837 -0.0604
15210TIP3    H167121   5.671   1.590  14.232 -0.6294  0.9562  0.2681
15210TIP3    H267122   5.685   1.734  14.274 -0.9490  1.2389 -0.5728
15211TIP3   OH267123   5.401   1.219  12.613  0.4538  0.1424  0.0649
15211TIP3    H167124   5.335   1.280  12.581 -0.7140 -0.6222  0.9219
15211TIP3    H267125   5.458   1.273  12.668 -0.2425  0.5755  0.3834
15212TIP3   OH267126   6.644   1.785   0.336 -0.0323 -0.2799 -0.3586
15212TIP3    H167127   6.712   1.734   0.380 -0.5150 -0.4080  0.2556
15212TIP3    H267128   6.582   1.720   0.303 -0.1573 -0.1352 -0.4112
15213TIP3   OH267129   4.129   4.003   1.046  0.1808  0.1626  0.1686
15213TIP3    H167130   4.093   4.018   1.133  0.6065  1.6867  0.1030
15213TIP3    H267131   4.183   4.080   1.028  4.8839 -2.5356  0.9485
15214TIP3   OH267132   5.659   2.516   2.104  0.4310  0.1909 -0.9059
15214TIP3    H167133   5.719   2.455   2.061  1.8416  1.0150 -0.1677
15214TIP3    H267134   5.713   2.560   2.170 -1.3844 -0.2307  0.9348
15215TIP3   OH267135   4.165   0.451   2.686  0.2428  0.1931  0.2164
15215TIP3    H167136   4.128   0.409   2.608  1.7529 -0.5041 -0.1725
15215TIP3    H267137   4.235   0.392   2.714  0.5908  1.0917  1.3347
15216TIP3   OH267138   5.765   5.660  14.260  0.0734  0.0808  0.4545
15216TIP3    H167139   5.683   5.661  14.310 -0.0162 -0.7936  0.3396
15216TIP3    H267140   5.834   5.668  14.327 -0.1007  3.0609  0.4196
15217TIP3   OH267141   6.395   6.607   2.823  0.0226 -0.5530 -0.5918
15217TIP3    H167142   6.488   6.601   2.846  0.2867 -0.8378 -1.6498
15217TIP3    H267143   6.386   6.550   2.747 -0.7560  0.4936 -1.3129
15218TIP3   OH267144   0.508   0.424   1.110 -0.3188  0.6862 -0.4518
15218TIP3    H167145   0.530   0.516   1.094 -0.3821  0.5839 -1.1882
15218TIP3    H267146   0.480   0.421   1.201 -2.3115  1.7891 -0.9672
15219TIP3   OH267147   4.048   5.678   3.131 -0.2940  0.4579 -0.0040
15219TIP3    H167148   4.140   5.651   3.138 -0.9478 -1.5951  2.1974
15219TIP3    H267149   4.017   5.636   3.051  0.4656  0.4652 -0.3141
15220TIP3   OH267150   6.246   3.662   3.557  0.3018 -0.2755 -0.7427
15220TIP3    H167151   6.314   3.624   3.612 -0.1818  1.1414  0.9008
15220TIP3    H267152   6.280   3.653   3.468  3.0726  1.1669  0.0642
15221TIP3   OH267153   4.610   4.363  11.050  0.2718 -0.4303  0.2461
15221TIP3    H167154   4.662   4.309  11.110 -0.1080 -3.1000 -1.6481
15221TIP3    H267155   4.670   4.386  10.979 -0.0242  0.1848  0.1873
15222TIP3   OH267156   2.470   4.044   2.856  0.3819 -0.4039 -0.0878
15222TIP3    H167157   2.431   4.075   2.937  0.0370  0.0061 -0.4064
15222TIP3    H267158   2.407   4.068   2.788  0.4821 -1.0908 -0.4332
15223TIP3   OH267159   4.051   0.688   4.811 -0.0331 -0.0537 -0.3904
15223TIP3    H167160   4.094   0.694   4.896 -1.5149  0.6801  0.3364
15223TIP3    H267161   3.973   0.635   4.827 -1.5658  1.9941 -0.7272
15224TIP3   OH267162   3.942   3.557   5.430  0.5987  0.2475 -0.2575
15224TIP3    H167163   3.905   3.481   5.475  1.1756  1.0996  1.7844
15224TIP3    H267164   3.927   3.539   5.337  0.3572 -2.1536  0.1631
15225TIP3   OH267165   4.446   2.513  11.852  0.0991  0.0678  0.0507
15225TIP3    H167166   4.399   2.488  11.931  2.3123  0.1678  1.4996
15225TIP3    H267167   4.471   2.604  11.867  0.9005 -0.0374 -0.5474
15226TIP3   OH267168   0.029   5.902  14.987  0.4567  0.0127  0.2069
15226TIP3    H167169   0.124   5.899  14.981  0.3941  0.0462 -1.2427
15226TIP3    H267170   0.007   5.994  14.975  0.1407 -0.3186 -2.1830
15227TIP3   OH267171   1.777   4.464   3.470 -0.1051  0.1259 -0.0870
15227TIP3    H167172   1.773   4.498   3.560 -0.4338 -0.2941  0.0654
15227TIP3    H267173   1.867   4.481   3.442  0.2241 -0.4235  0.5983
15228TIP3   OH267174   4.180   1.086  11.211 -0.1138 -0.0046 -0.0926
15228TIP3    H167175   4.241   1.024  11.172 -0.8830  0.9529 -3.1461
15228TIP3    H267176   4.093   1.056  11.183 -0.6070  1.5864 -0.4100
15229TIP3   OH267177   5.983   6.558   5.043 -0.0536  0.2302  0.0301
15229TIP3    H167178   5.906   6.614   5.046 -0.4100 -0.2898  0.8246
15229TIP3    H267179   6.038   6.588   5.115  0.1432  0.1108 -0.0668
15230TIP3   OH267180   2.641   1.886  14.376 -0.3821  0.1618  0.5547
15230TIP3    H167181   2.577   1.957  14.365  0.6985  1.0122 -0.5113
15230TIP3    H267182   2.646   1.844  14.290 -0.3016 -0.6088  0.9243
15231TIP3   OH267183   4.472   3.243   4.285 -0.0661 -0.2779 -0.0521
15231TIP3    H167184   4.407   3.286   4.339 -1.5801  0.2041 -2.1373
15231TIP3    H267185   4.469   3.290   4.201  2.6799 -0.5134 -0.3821
15232TIP3   OH267186   6.521   6.479  14.705  1.0305  0.2124 -0.2032
15232TIP3    H167187   6.470   6.423  14.646  0.7691  1.0066 -0.7541
15232TIP3    H267188   6.524   6.564  14.660 -0.3742  1.2640  1.5413
15233TIP3   OH267189   6.155   0.405   9.934  0.0541  0.6094 -0.2974
15233TIP3    H167190   6.122   0.318   9.956 -0.0276  0.4772 -0.9105
15233TIP3    H267191   6.080   0.463   9.946 -0.5292  0.2665 -1.9777
15234TIP3   OH267192   4.532   2.692  13.071  0.1807 -0.3360 -0.0118
15234TIP3    H167193   4.478   2.770  13.080  1.1892  0.7998 -2.7294
15234TIP3    H267194   4.521   2.645  13.154 -0.9159  2.3692  1.4945
15235TIP3   OH267195   6.206   2.899   3.038 -0.1579 -0.3227 -0.2523
15235TIP3    H167196   6.203   2.932   3.128 -0.0649  2.0299 -1.0536
15235TIP3    H267197   6.115   2.878   3.017 -0.3577  0.2398  0.0230
15236TIP3   OH267198   3.056   0.139  15.066 -0.3690  0.7987  0.2337
15236TIP3    H167199   3.140   0.185  15.060 -0.0686  0.1383 -0.9212
15236TIP3    H267200   2.990   0.205  15.044  0.0176  0.8121 -0.9162
15237TIP3   OH267201   5.670   1.214   9.975  0.3078 -0.5182 -0.3604
15237TIP3    H167202   5.679   1.171   9.890  1.2680  1.0856 -1.1106
15237TIP3    H267203   5.579   1.243   9.978 -0.5380 -2.9799  0.4094
15238TIP3   OH267204   6.562   0.597  15.320 -0.3444  0.1787  0.7511
15238TIP3    H167205   6.584   0.607  15.227  2.3170  0.2091  1.3160
15238TIP3    H267206   6.590   0.679  15.360 -0.3049 -0.3268  1.7763
15239TIP3   OH267207   4.074   6.601   3.443 -0.3278 -0.0442  0.2966
15239TIP3    H167208   4.162   6.564   3.444  0.0081  0.7391  1.4852
15239TIP3    H267209   4.029   6.553   3.373  1.0970 -0.2931 -0.4926
15240TIP3   OH267210   2.243   2.191   3.311  0.1855  0.1276 -0.6563
15240TIP3    H167211   2.168   2.240   3.345  1.3122  0.4381  1.5318
15240TIP3    H267212   2.312   2.257   3.301  0.7544 -0.4813 -0.7809
15241TIP3   OH267213   1.782   2.926  13.594  0.4580  0.0999 -0.1175
15241TIP3    H167214   1.707   2.957  13.646  0.4359 -0.7450  0.3676
15241TIP3    H267215   1.761   2.835  13.574  1.2856 -0.0981 -0.1104
15242TIP3   OH267216   3.565   5.745   2.916 -0.2169  0.7745 -0.3469
15242TIP3    H167217   3.521   5.723   2.998 -0.5530 -1.7491 -1.1139
15242TIP3    H267218   3.540   5.836   2.899 -0.7539  1.1129  1.9312
15243TIP3   OH267219   6.237   2.602   4.713 -0.0853 -0.3811  0.4367
15243TIP3    H167220   6.296   2.527   4.721 -0.0485 -0.2402  1.7345
15243TIP3    H267221   6.150   2.567   4.732 -0.2781 -0.3753 -0.4094
15244TIP3   OH267222   5.767   1.618   2.103  0.1207  0.0969  0.0626
15244TIP3    H167223   5.682   1.656   2.124  0.9304  1.2103  1.6099
15244TIP3    H267224   5.752   1.523   2.102 -2.0310  0.2455 -4.2601
15245TIP3   OH267225   5.134   3.873  12.013  0.0352  0.0176 -0.4470
15245TIP3    H167226   5.177   3.956  11.993  0.4767  0.3510  1.7260
15245TIP3    H267227   5.044   3.885  11.982 -0.2577  1.8020  0.9375
15246TIP3   OH267228   0.528   6.969   2.486 -0.0121 -0.2024  0.4252
15246TIP3    H167229   0.466   6.978   2.558  3.2682  0.3972  3.4468
15246TIP3    H267230   0.517   6.879   2.456 -0.7811 -0.8201  2.4017
15247TIP3   OH267231   2.322   0.618   1.087  0.3694 -0.5194 -0.2028
15247TIP3    H167232   2.417   0.624   1.085  0.3985 -0.9503 -0.4368
15247TIP3    H267233   2.292   0.676   1.017  0.3972  0.5714  0.6801
15248TIP3   OH267234   0.281   5.033   0.878 -0.1614 -0.3402 -0.4462
15248TIP3    H167235   0.288   5.119   0.920 -2.0858  0.3798 -1.4475
15248TIP3    H267236   0.360   5.025   0.825 -0.1497  1.0070 -0.6588
15249TIP3   OH267237   3.273   1.067   3.257 -0.1275 -0.4698  0.6510
15249TIP3    H167238   3.277   1.104   3.346 -3.2140  1.6126  0.1134
15249TIP3    H267239   3.223   0.986   3.268 -1.4994  0.3575  0.7426
15250TIP3   OH267240   4.958   2.662   1.010 -0.0409  0.4522  0.0091
15250TIP3    H167241   4.893   2.619   0.955 -0.1549 -0.2497  0.6898
15250TIP3    H267242   5.015   2.592   1.040  0.9788  1.0445 -0.4865
15251TIP3   OH267243   1.338   0.493   4.890  0.2464 -0.2190  0.4182
15251TIP3    H167244   1.380   0.508   4.806 -0.7321 -1.7249 -0.3727
15251TIP3    H267245   1.408   0.460   4.946  0.7295  0.0364 -0.0317
15252TIP3   OH267246   5.176   1.188   4.061 -0.0858 -0.0167  0.0335
15252TIP3    H167247   5.161   1.190   3.966  0.1284 -3.0269 -0.1566
15252TIP3    H267248   5.270   1.172   4.070 -0.2193 -0.4399  0.7282
15253TIP3   OH267249   3.216   3.145  14.667  0.2963  0.4957 -0.4271
15253TIP3    H167250   3.203   3.237  14.645 -0.7036  0.3963 -0.2966
15253TIP3    H267251   3.200   3.098  14.585 -2.6805  0.1851  0.2300
15254TIP3   OH267252   1.613   4.483   5.796 -0.2622 -0.1067 -0.4409
15254TIP3    H167253   1.520   4.500   5.812 -0.1248  1.1260 -0.8481
15254TIP3    H267254   1.650   4.569   5.776  1.1351 -0.4519  0.4908
15255TIP3   OH267255   5.214   1.877   5.276  0.0073 -0.5810  0.0384
15255TIP3    H167256   5.258   1.956   5.305  1.5268 -1.5664  0.5309
15255TIP3    H267257   5.227   1.875   5.181 -0.6301  0.0931 -0.0676
15256TIP3   OH267258   0.182   0.631   1.377 -0.2806 -0.6375 -0.6013
15256TIP3    H167259   0.275   0.646   1.359  0.3782 -3.6204 -0.1287
15256TIP3    H267260   0.172   0.536   1.379 -3.4204 -0.4308 -0.8397
15257TIP3   OH267261   1.159   2.762   4.498  0.1630  0.2119  0.3918
15257TIP3    H167262   1.230   2.736   4.556  0.6535  0.3892 -0.1250
15257TIP3    H267263   1.100   2.686   4.498  0.5393 -0.0872  0.5299
15258TIP3   OH267264   5.788   0.821   2.151 -0.7163  0.2033 -0.4946
15258TIP3    H167265   5.805   0.885   2.219 -2.1668 -0.8484  0.9493
15258TIP3    H267266   5.813   0.864   2.069  3.5623  0.6512  0.7776
15259TIP3   OH267267   0.001   3.198   0.051 -0.1439 -0.5085  0.8103
15259TIP3    H167268  -0.031   3.272  -0.001  0.7996 -0.1842  0.6802
15259TIP3    H267269   0.066   3.155  -0.004 -1.1902 -1.8951  0.5973
15260TIP3   OH267270   4.865   0.411   1.550  0.6314  0.0192 -0.0007
15260TIP3    H167271   4.817   0.478   1.502 -3.3099 -1.3999  1.5192
15260TIP3    H267272   4.824   0.328   1.522  2.6768 -1.4260  1.0173
15261TIP3   OH267273   6.855   0.884   4.242 -0.0825 -0.1433 -0.2875
15261TIP3    H167274   6.788   0.930   4.293 -1.3398 -0.7418 -1.3438
15261TIP3    H267275   6.937   0.901   4.288 -1.2985 -1.7209  2.6990
15262TIP3   OH267276   5.622   3.719  10.494  0.0161 -0.6592 -0.1122
15262TIP3    H167277   5.616   3.791  10.430 -0.9951  1.6742  2.4089
15262TIP3    H267278   5.709   3.682  10.479 -0.3229 -0.5658 -3.0717
15263TIP3   OH267279   4.906   2.163   4.859 -0.1774  0.3145  0.4857
15263TIP3    H167280   4.879   2.246   4.900 -0.1911  0.3602  0.3849
15263TIP3    H267281   4.853   2.158   4.779  0.5989  0.7313 -0.0584
15264TIP3   OH267282   5.317   3.759  10.982  0.3306  0.8046 -0.2313
15264TIP3    H167283   5.367   3.801  10.912  0.1795  1.7736  0.2403
15264TIP3    H267284   5.259   3.827  11.016  0.3520  0.3276  0.7967
15265TIP3   OH267285   0.172   4.425   0.031  0.1250 -0.0952 -0.4466
15265TIP3    H167286   0.124   4.345   0.054  2.3057 -1.2782  0.3910
15265TIP3    H267287   0.217   4.403  -0.051 -0.0878  0.6683 -0.7751
15266TIP3   OH267288   3.218   5.506   4.687 -0.2478 -0.3992 -0.4839
15266TIP3    H167289   3.276   5.434   4.661  0.9810  0.6898 -0.8668
15266TIP3    H267290   3.163   5.522   4.611  1.5489  1.0342 -1.5655
15267TIP3   OH267291   0.120   6.268  10.881  0.2970 -0.1417  0.0798
15267TIP3    H167292   0.082   6.311  10.804  0.4980 -0.0283  0.0433
15267TIP3    H267293   0.146   6.340  10.938  1.2506 -0.1868 -0.2771
15268TIP3   OH267294   2.036   5.973   4.429 -0.3841  0.4005  0.1057
15268TIP3    H167295   2.062   6.044   4.371 -1.1722 -0.5048 -1.4149
15268TIP3    H267296   1.976   6.013   4.491 -0.1019  1.2377 -0.1485
15269TIP3   OH267297   1.184   5.640   2.029 -0.0442 -0.1494  0.2756
15269TIP3    H167298   1.126   5.630   2.104  0.6690 -0.7179  0.7561
15269TIP3    H267299   1.272   5.645   2.066  0.4344 -1.6451 -0.5718
15270TIP3   OH267300   4.743   3.643   3.453 -0.0037  0.6188  0.3151
15270TIP3    H167301   4.683   3.684   3.515  0.5830  0.0669  1.2578
15270TIP3    H267302   4.764   3.558   3.491  1.0974  0.6546 -0.1705
15271TIP3   OH267303   6.474   0.291   1.202 -0.0773 -0.0480 -0.2004
15271TIP3    H167304   6.541   0.323   1.141  1.2791 -0.6097  0.9397
15271TIP3    H267305   6.485   0.196   1.202 -0.6895 -0.1268  0.2233
15272TIP3   OH267306   5.922   6.614  12.038  0.4640  0.6499  0.2927
15272TIP3    H167307   5.955   6.548  12.099  0.2729 -0.3409 -0.6369
15272TIP3    H267308   5.932   6.697  12.085  1.9686  0.1248  0.9836
15273TIP3   OH267309   0.402   5.200   1.873 -0.4214  0.2793  0.0810
15273TIP3    H167310   0.328   5.146   1.904 -0.5156 -1.5865 -2.9286
15273TIP3    H267311   0.469   5.189   1.939 -0.6737 -3.2047 -0.0539
15274TIP3   OH267312   6.185   6.908   3.956  0.0882 -0.9268 -0.0215
15274TIP3    H167313   6.276   6.915   3.927  0.2139 -0.9196  0.3762
15274TIP3    H267314   6.189   6.864   4.041 -0.2264 -0.3525  0.2977
15275TIP3   OH267315   0.460   1.441   4.605 -0.1831 -0.3292  0.1182
15275TIP3    H167316   0.548   1.476   4.616 -0.8364  1.6067 -0.3688
15275TIP3    H267317   0.461   1.399   4.519  0.8108 -2.2773  1.0124
15276TIP3   OH267318   3.574   4.941  14.564 -0.3795 -0.0274  0.0244
15276TIP3    H167319   3.504   4.882  14.590  0.0562 -1.7284 -2.3671
15276TIP3    H267320   3.654   4.889  14.575  0.0790  0.3255 -1.4845
15277TIP3   OH267321   5.014   5.307  10.721 -0.1205  0.3257  0.2344
15277TIP3    H167322   4.924   5.338  10.709  0.3822  2.0384  0.5693
15277TIP3    H267323   5.067   5.386  10.714  1.4693 -0.7755 -0.9635
15278TIP3   OH267324   6.890   1.758   0.091  0.2781  0.2016 -0.1005
15278TIP3    H167325   6.868   1.672   0.128 -4.4437  2.0355  2.2305
15278TIP3    H267326   6.813   1.782   0.039  2.3563  2.2384 -2.4789
15279TIP3   OH267327   5.974   6.660   3.634 -0.7521  0.0349  0.4656
15279TIP3    H167328   5.948   6.752   3.632 -0.5405  0.1137 -2.8333
15279TIP3    H267329   6.065   6.662   3.662 -0.8347  0.7942  0.7204
15280TIP3   OH267330   1.956   1.536   3.756  0.3993 -0.1207 -0.3575
15280TIP3    H167331   1.919   1.506   3.839  0.0552  0.7170 -0.2000
15280TIP3    H267332   2.011   1.463   3.727 -1.6087 -1.5585 -0.7729
15281TIP3   OH267333   2.023   2.572   5.372 -0.5292 -0.1413 -0.0847
15281TIP3    H167334   1.963   2.628   5.323  0.7967  1.8400  0.4478
15281TIP3    H267335   2.011   2.597   5.463  1.8421  1.1221 -0.0596
15282TIP3   OH267336   6.034   3.881   3.292  0.6921  0.0435  0.3723
15282TIP3    H167337   6.040   3.791   3.324  1.0060 -0.2349 -0.4392
15282TIP3    H267338   6.114   3.894   3.242  1.2288  1.1901  1.4680
15283TIP3   OH267339   0.439   0.692   1.583 -0.0376  0.1573 -0.2863
15283TIP3    H167340   0.403   0.626   1.642 -1.0010 -0.3266 -1.3821
15283TIP3    H267341   0.533   0.675   1.582 -0.0789 -0.1808  0.6511
15284TIP3   OH267342   4.733   2.966   1.763  0.5731  0.5637  0.0980
15284TIP3    H167343   4.657   2.941   1.709  1.2543  0.0071 -0.6310
15284TIP3    H267344   4.804   2.978   1.700  1.1391  0.9316  0.7890
15285TIP3   OH267345   5.876   5.156  12.517 -0.2722 -0.2930  0.9678
15285TIP3    H167346   5.796   5.202  12.490 -1.0734 -1.2122  1.7014
15285TIP3    H267347   5.847   5.066  12.534  1.3608 -1.3198 -1.1164
15286TIP3   OH267348   4.714   5.965   1.334 -0.1979  0.0538 -0.1794
15286TIP3    H167349   4.661   5.895   1.294 -0.4649 -0.1884  0.5923
15286TIP3    H267350   4.656   6.008   1.396  0.6685 -0.6249  1.1563
15287TIP3   OH267351   7.141   1.079   3.097  0.0561 -0.7604 -0.7368
15287TIP3    H167352   7.127   0.988   3.073  0.0536 -0.4361 -2.0010
15287TIP3    H267353   7.228   1.099   3.063 -0.1685 -0.1313 -0.9469
15288TIP3   OH267354   6.681   0.146   4.298  0.0186  0.0258  0.1919
15288TIP3    H167355   6.690   0.051   4.296  1.5913  0.1663 -0.8923
15288TIP3    H267356   6.604   0.165   4.245  0.6251 -0.5697 -0.9196
15289TIP3   OH267357   2.841   5.766   0.262 -0.0783 -0.3960 -0.1943
15289TIP3    H167358   2.813   5.811   0.342  1.3311  0.2535 -0.0464
15289TIP3    H267359   2.821   5.674   0.278  0.9972 -0.3989  1.2815
15290TIP3   OH267360   1.262   2.833   5.255 -0.5179 -0.4590 -0.5119
15290TIP3    H167361   1.212   2.766   5.303 -1.9042 -0.4659 -1.8879
15290TIP3    H267362   1.353   2.803   5.260 -0.8537 -1.3803  0.5845
15291TIP3   OH267363   6.617   5.357   2.644  0.9837 -0.3915  0.4150
15291TIP3    H167364   6.522   5.354   2.659  0.9996 -0.0877  0.5676
15291TIP3    H267365   6.629   5.311   2.561  0.6542 -0.0343  0.1661
15292TIP3   OH267366   3.720   2.269   0.041  0.2199 -0.6029  0.6199
15292TIP3    H167367   3.743   2.280   0.133  1.6491 -0.7915  0.3143
15292TIP3    H267368   3.680   2.352   0.016  1.1249 -0.0106  1.0661
15293TIP3   OH267369   2.768   2.433   4.143  0.2540 -0.0062  0.1868
15293TIP3    H167370   2.806   2.371   4.080 -0.0080 -0.6188  0.6245
15293TIP3    H267371   2.809   2.411   4.226 -0.9438 -0.5991  0.6426
15294TIP3   OH267372   3.363   3.244   3.602 -0.5504 -0.0117  0.0977
15294TIP3    H167373   3.284   3.219   3.651 -0.7788 -2.1172 -1.1990
15294TIP3    H267374   3.425   3.173   3.618  1.8101  2.3455  2.3732
15295TIP3   OH267375   4.794   1.802  11.210  0.0382  0.6717  0.4354
15295TIP3    H167376   4.708   1.816  11.170  0.3480  2.9844  0.4397
15295TIP3    H267377   4.775   1.791  11.303 -0.3235  0.1406  0.3033
15296TIP3   OH267378   3.906   4.805   2.220  0.1176 -0.0980 -0.7736
15296TIP3    H167379   3.982   4.802   2.162 -0.6450  3.3582 -2.2203
15296TIP3    H267380   3.921   4.883   2.274 -1.3980 -0.6070  0.4514
15297TIP3   OH267381   4.989   3.162   2.419 -0.4026 -0.1188  0.5068
15297TIP3    H167382   4.914   3.133   2.367 -1.4492  2.8780  0.1825
15297TIP3    H267383   5.059   3.177   2.355 -0.6604  0.4494  0.3529
15298TIP3   OH267384   3.306   5.749   3.932  0.4378  0.7346  0.6921
15298TIP3    H167385   3.249   5.728   3.858  0.8330 -0.1835  0.6378
15298TIP3    H267386   3.246   5.770   4.003  0.0536  1.5512  0.1416
15299TIP3   OH267387   5.142   2.486  13.981 -0.1913 -0.0406  0.1941
15299TIP3    H167388   5.129   2.414  14.043  0.6609  0.0829  0.5347
15299TIP3    H267389   5.234   2.477  13.954  0.1363  1.3189  0.7657
15300TIP3   OH267390   4.707   6.341   0.542 -0.5290  0.0283 -0.4822
15300TIP3    H167391   4.691   6.417   0.487 -0.8297 -0.0300 -0.4770
15300TIP3    H267392   4.697   6.266   0.484 -0.5474 -0.0208 -0.4157
15301TIP3   OH267393   0.317   3.748  12.947 -0.2946  0.2009  0.3919
15301TIP3    H167394   0.240   3.803  12.954 -1.9996 -1.6494 -2.1628
15301TIP3    H267395   0.289   3.662  12.979  1.0425 -0.2304  0.4800
15302TIP3   OH267396   2.388   2.691  11.570 -0.5740  0.1705  0.0230
15302TIP3    H167397   2.425   2.638  11.640 -0.2792  0.6527  0.2371
15302TIP3    H267398   2.455   2.693  11.502  0.2610  1.9102  0.8429
15303TIP3   OH267399   7.121   6.824  12.956  0.3811  0.0243 -0.5384
15303TIP3    H167400   7.079   6.883  13.019 -0.2373  1.2781 -2.0697
15303TIP3    H267401   7.062   6.823  12.881  1.7032 -0.4424 -1.6009
15304TIP3   OH267402   7.035   0.432  14.044  0.0206  0.2690  0.0990
15304TIP3    H167403   7.097   0.481  13.989  0.6110  0.4259  0.8927
15304TIP3    H267404   7.060   0.340  14.033 -0.9063  0.1307 -1.1640
15305TIP3   OH267405   3.948   2.129   4.196  0.4683  0.6971  0.2468
15305TIP3    H167406   4.020   2.160   4.250 -0.5421  0.6498  1.6861
15305TIP3    H267407   3.920   2.047   4.239  3.0682 -2.4577 -3.3836
15306TIP3   OH267408   5.259   2.542  13.305 -0.5380 -0.5233 -0.1132
15306TIP3    H167409   5.235   2.632  13.328  1.6380  0.1465 -0.1941
15306TIP3    H267410   5.277   2.500  13.389  0.5168 -0.2163 -0.1736
15307TIP3   OH267411   2.832   4.780   4.630 -0.3814 -0.4524 -0.6688
15307TIP3    H167412   2.900   4.715   4.615 -0.3537 -0.6807  0.3863
15307TIP3    H267413   2.810   4.812   4.542  1.0404 -0.4115 -1.0373
15308TIP3   OH267414   6.937   1.209   1.810 -0.1357 -0.1313  0.1723
15308TIP3    H167415   6.951   1.142   1.876  1.3996 -0.3905 -0.3682
15308TIP3    H267416   6.907   1.161   1.732 -1.8013  0.1568  0.5938
15309TIP3   OH267417   4.858   6.932   3.771  0.4461 -0.0091 -0.4254
15309TIP3    H167418   4.947   6.914   3.741  0.9800  0.3264  0.8972
15309TIP3    H267419   4.840   6.863   3.835  0.9148  1.5906  1.5406
15310TIP3   OH267420   2.855   0.266   4.554  0.4304  0.4086  0.2624
15310TIP3    H167421   2.882   0.302   4.470  0.7788  0.9039  0.5827
15310TIP3    H267422   2.789   0.328   4.587 -0.9322 -0.6342 -0.3815
15311TIP3   OH267423   4.909   5.604  10.549  0.3794  0.1585 -0.0722
15311TIP3    H167424   4.845   5.675  10.556  1.0839  0.8808 -0.7014
15311TIP3    H267425   4.994   5.648  10.549  0.9927 -0.8723  2.1533
15312TIP3   OH267426   1.539   5.386   1.411  0.2770 -0.4713 -0.3038
15312TIP3    H167427   1.454   5.369   1.452 -0.0840 -2.8859 -1.8294
15312TIP3    H267428   1.602   5.370   1.481 -0.4382 -1.2913  0.1879
15313TIP3   OH267429   2.911   0.193   4.183 -0.2225 -0.0013  0.4777
15313TIP3    H167430   2.960   0.208   4.101  0.7594 -0.1997  1.0147
15313TIP3    H267431   2.938   0.106   4.211 -0.2739  0.2125  1.1993
15314TIP3   OH267432   3.828   1.654   5.558  0.3559  0.0058 -0.1925
15314TIP3    H167433   3.851   1.574   5.607 -1.6834 -0.7572 -0.3613
15314TIP3    H267434   3.828   1.723   5.624 -0.3127 -0.6290  0.4985
15315TIP3   OH267435   5.315   0.227   4.252  0.2090  0.0881 -0.1456
15315TIP3    H167436   5.299   0.232   4.158 -2.1676 -0.6990  0.1558
15315TIP3    H267437   5.323   0.318   4.280 -0.8507  0.4157 -0.8536
15316TIP3   OH267438   2.147   5.838   4.020  0.2220  0.1225 -0.0975
15316TIP3    H167439   2.062   5.813   3.984  0.0802 -0.2401  0.4762
15316TIP3    H267440   2.151   5.933   4.008  0.5641 -0.0750 -1.8712
15317TIP3   OH267441   3.213   4.410   3.924  0.2236  0.3265  0.1177
15317TIP3    H167442   3.153   4.348   3.881  0.7911 -0.2734  0.1717
15317TIP3    H267443   3.270   4.440   3.853  0.4769  0.1491  0.2450
15318TIP3   OH267444   3.897   0.834  15.018  0.3538  0.0369  0.4722
15318TIP3    H167445   3.903   0.853  14.924  0.8978 -1.7480  0.1232
15318TIP3    H267446   3.967   0.886  15.057  0.6419  0.1784 -0.2101
15319TIP3   OH267447   3.285   4.440   2.600  0.1068  0.0356  0.1307
15319TIP3    H167448   3.308   4.355   2.565 -0.2294 -0.5570  1.2929
15319TIP3    H267449   3.298   4.501   2.527 -0.8594 -1.1764 -1.1009
15320TIP3   OH267450   6.406   4.534   0.624  0.0481  0.5679 -0.2816
15320TIP3    H167451   6.477   4.514   0.686 -0.1958  1.5819  0.3450
15320TIP3    H267452   6.334   4.477   0.652 -0.5643  2.0504  1.3516
15321TIP3   OH267453   5.506   4.847   0.640 -0.0773  0.6424 -0.2210
15321TIP3    H167454   5.450   4.858   0.563  0.7750 -0.4204 -1.0397
15321TIP3    H267455   5.528   4.754   0.640  0.0391  0.6546  1.2576
15322TIP3   OH267456   0.924   2.641   4.753 -0.3302  0.0808  0.4655
15322TIP3    H167457   0.909   2.715   4.811 -0.6383 -0.7024  1.3976
15322TIP3    H267458   1.015   2.616   4.769 -0.0614  0.5779 -0.2371
15323TIP3   OH267459   6.038   2.570   5.131  0.2530 -0.1322  0.0170
15323TIP3    H167460   6.101   2.641   5.128  0.3485 -0.2055  0.2833
15323TIP3    H267461   6.059   2.522   5.210  0.5351 -0.7770 -0.4417
15324TIP3   OH267462   2.837   7.018   1.204  0.5714  0.0661  0.2669
15324TIP3    H167463   2.924   7.056   1.200  0.5733 -0.0240 -1.9953
15324TIP3    H267464   2.851   6.924   1.192  0.0845  0.2907 -2.7369
15325TIP3   OH267465   1.430   0.128   4.882  0.1792 -0.3760  0.1574
15325TIP3    H167466   1.392   0.149   4.796  0.2616  2.1947  0.6883
15325TIP3    H267467   1.499   0.192   4.894 -0.5923  0.0723  2.6457
15326TIP3   OH267468   5.256   3.806   1.932 -0.0768  0.1594 -0.0448
15326TIP3    H167469   5.191   3.750   1.974  1.1827 -0.8188  0.6971
15326TIP3    H267470   5.273   3.875   1.996 -1.1139  1.0304 -0.6710
15327TIP3   OH267471   4.544   1.592   4.337 -0.3492  0.2801 -0.0210
15327TIP3    H167472   4.506   1.504   4.328  0.9307 -0.5156  1.6680
15327TIP3    H267473   4.469   1.651   4.334 -1.2073 -0.8128 -1.5392
15328TIP3   OH267474   6.850   2.568   1.148  0.1717 -0.1820 -0.0578
15328TIP3    H167475   6.802   2.590   1.068 -0.8721 -1.5870  0.1334
15328TIP3    H267476   6.933   2.533   1.117  0.1169  0.0700 -0.5022
15329TIP3   OH267477   4.765   6.394   2.006 -0.2729  0.0478 -0.2660
15329TIP3    H167478   4.754   6.348   2.089 -0.1141 -1.2270 -0.9397
15329TIP3    H267479   4.709   6.347   1.944  0.1721  0.5379 -1.0570
15330TIP3   OH267480   0.772   5.473   3.822  0.2324 -0.0954 -0.4150
15330TIP3    H167481   0.783   5.380   3.802  1.1074  0.0735 -0.7670
15330TIP3    H267482   0.697   5.476   3.881  0.6084 -1.0988  0.1461
15331TIP3   OH267483   0.275   3.167   2.865  0.0686 -0.2021  0.3950
15331TIP3    H167484   0.234   3.112   2.932  0.7716  0.4451  1.3712
15331TIP3    H267485   0.282   3.254   2.906  0.8199  0.1153 -0.3886
15332TIP3   OH267486   6.388   4.692   3.111  0.2019  0.5124  0.1696
15332TIP3    H167487   6.350   4.762   3.164 -2.0409 -0.7677  0.3688
15332TIP3    H267488   6.433   4.636   3.174  1.2721  1.2798  0.1149
15333TIP3   OH267489   6.256   4.724   4.698 -0.3485  0.3207  0.4503
15333TIP3    H167490   6.343   4.751   4.728 -0.6280  2.0571 -0.1806
15333TIP3    H267491   6.238   4.782   4.624 -3.0846  1.7013  2.0791
15334TIP3   OH267492   4.191   6.713   3.777  0.1797 -0.3513  0.1653
15334TIP3    H167493   4.220   6.673   3.696  0.8984 -0.2200  0.3540
15334TIP3    H267494   4.117   6.769   3.752  1.2485  0.7584 -0.6220
15335TIP3   OH267495   0.461   3.770   2.564  0.2448 -0.5168 -0.0778
15335TIP3    H167496   0.366   3.782   2.554  0.4995 -0.1395 -2.8060
15335TIP3    H267497   0.499   3.838   2.509  2.1808  0.0772  1.8683
15336TIP3   OH267498   3.838   2.722   1.533  0.0569 -0.7517 -0.5408
15336TIP3    H167499   3.908   2.759   1.479 -0.1081 -0.0527 -0.2836
15336TIP3    H267500   3.776   2.685   1.470 -0.3211  0.3920 -0.8550
15337TIP3   OH267501   5.604   6.601  15.160 -0.5162 -0.6258 -0.2894
15337TIP3    H167502   5.583   6.554  15.079  0.1628  0.5202 -1.1638
15337TIP3    H267503   5.538   6.572  15.223 -3.2542  1.0132 -2.2138
15338TIP3   OH267504   3.737   2.378   0.952 -0.1678 -0.0557  0.1724
15338TIP3    H167505   3.650   2.351   0.980  0.5992 -1.6996  1.1307
15338TIP3    H267506   3.796   2.312   0.989  1.6147  1.6500  0.5927
15339TIP3   OH267507   3.698   0.862  13.012 -0.4297  0.3584  0.0721
15339TIP3    H167508   3.765   0.907  13.062 -0.7770  0.6714  0.2598
15339TIP3    H267509   3.630   0.928  12.997  0.1265  0.5905 -1.7255
15340TIP3   OH267510   4.162   0.365   3.540 -0.3867  0.2850 -0.0973
15340TIP3    H167511   4.125   0.415   3.467  0.1056  1.0054  0.1410
15340TIP3    H267512   4.136   0.413   3.618 -1.3251 -0.7473  0.2520
15341TIP3   OH267513   2.750   0.425   4.184  0.1673 -0.2498  0.3260
15341TIP3    H167514   2.823   0.479   4.156  0.7665 -0.9023  0.6104
15341TIP3    H267515   2.788   0.340   4.203 -0.6044 -0.4978  0.8392
15342TIP3   OH267516   4.579   3.821   3.171  0.3665 -0.4864  0.3926
15342TIP3    H167517   4.567   3.915   3.186 -1.9249 -0.2691 -2.0932
15342TIP3    H267518   4.674   3.809   3.166  0.6791  1.9016 -0.3616
15343TIP3   OH267519   6.999   1.658  14.945 -0.3446 -0.5207  0.4402
15343TIP3    H167520   6.991   1.710  14.865  2.6470  0.5020  0.6874
15343TIP3    H267521   6.995   1.722  15.015  3.3146 -0.4235  0.7539
15344TIP3   OH267522   0.615   2.159  15.415 -0.1245  0.2606  0.1695
15344TIP3    H167523   0.622   2.095  15.344 -0.0693  1.7916 -1.2606
15344TIP3    H267524   0.521   2.163  15.434 -0.0737 -0.6336  0.6623
15345TIP3   OH267525   3.110   1.358   5.569  0.4671 -0.2364  0.5252
15345TIP3    H167526   3.147   1.382   5.484 -1.7165 -2.4853 -1.2116
15345TIP3    H267527   3.139   1.268   5.583 -3.0497 -1.6805 -0.3535
15346TIP3   OH267528   4.067   1.902   1.107  0.5697 -0.2906 -0.0474
15346TIP3    H167529   4.078   1.926   1.015  1.2058 -0.7457 -0.0952
15346TIP3    H267530   4.100   1.812   1.112  2.5499  0.4408  1.0272
15347TIP3   OH267531   4.411   3.543   2.888 -0.4186  0.5777 -0.2310
15347TIP3    H167532   4.410   3.536   2.984 -0.5519  0.6600 -0.2265
15347TIP3    H267533   4.480   3.606   2.870 -2.2604  2.7630 -0.0419
15348TIP3   OH267534   3.901   5.146   4.886  0.0694 -0.3907 -0.1462
15348TIP3    H167535   3.847   5.162   4.808  0.2936 -0.1057 -0.2459
15348TIP3    H267536   3.845   5.168   4.960  0.3500  0.8056 -0.2793
15349TIP3   OH267537   2.260   0.218   5.266 -0.0713  0.5333 -0.0494
15349TIP3    H167538   2.273   0.271   5.345  0.0601 -0.5463  0.6786
15349TIP3    H267539   2.334   0.241   5.210  1.1187 -0.3126  1.0978
15350TIP3   OH267540   3.096   0.821  15.186  0.3313  0.1760  0.0708
15350TIP3    H167541   3.039   0.772  15.245  2.7535 -0.9603  1.6203
15350TIP3    H267542   3.160   0.757  15.154  0.6516  1.3240 -1.8032
15351TIP3   OH267543   1.336   1.008  13.428  0.1101 -0.3051 -0.3216
15351TIP3    H167544   1.345   1.098  13.399 -3.0460  0.4520  0.7631
15351TIP3    H267545   1.359   1.010  13.521  0.1190 -0.6344 -0.3146
15352TIP3   OH267546   4.580   6.736   4.623 -0.2443 -0.1986  0.3235
15352TIP3    H167547   4.534   6.678   4.683 -0.3121  0.8114  1.2939
15352TIP3    H267548   4.575   6.822   4.665  0.3340  0.4049 -0.7924
15353TIP3   OH267549   7.129   4.550   2.969  0.6129 -0.3672 -0.2287
15353TIP3    H167550   7.093   4.528   3.054  1.3015 -0.3510  0.0715
15353TIP3    H267551   7.167   4.469   2.937  0.3042 -0.3878 -0.5477
15354TIP3   OH267552   2.904   3.067   0.229  0.1829  0.1387  0.3245
15354TIP3    H167553   2.917   3.091   0.321  1.2610  2.8265 -0.4329
15354TIP3    H267554   2.847   2.991   0.232 -1.6301  1.4485  3.1400
15355TIP3   OH267555   5.411   7.040  15.114 -0.1202  0.0600 -0.5762
15355TIP3    H167556   5.396   6.991  15.034  0.9865  0.1073 -0.8359
15355TIP3    H267557   5.324   7.065  15.145 -0.5819 -0.4263 -1.4651
15356TIP3   OH267558   4.088   3.408  10.482 -0.1370  0.1946 -0.0676
15356TIP3    H167559   4.027   3.462  10.533  0.1268  0.5447 -0.1123
15356TIP3    H267560   4.057   3.416  10.392 -1.0161 -0.9844  0.1111
15357TIP3   OH267561   4.510   2.216  13.861 -0.3608 -0.0610 -0.7774
15357TIP3    H167562   4.556   2.249  13.784 -2.0152  0.9458 -1.3966
15357TIP3    H267563   4.417   2.217  13.836 -0.8281 -1.0744  0.7400
15358TIP3   OH267564   0.225   6.178   0.655 -0.3170  0.9532  0.0126
15358TIP3    H167565   0.195   6.240   0.722 -0.5171  1.6090 -0.6774
15358TIP3    H267566   0.299   6.221   0.614 -0.9992  1.1253 -1.0627
15359TIP3   OH267567   6.181   5.664   3.860  0.1404  0.1138  0.2566
15359TIP3    H167568   6.154   5.580   3.896  2.3983 -0.1676  1.4603
15359TIP3    H267569   6.148   5.728   3.923  0.6311 -0.0695  0.7003
15360TIP3   OH267570   6.898   5.161   0.695 -1.1246  0.5592 -0.9819
15360TIP3    H167571   6.973   5.187   0.749 -0.9068 -1.1170 -0.4223
15360TIP3    H267572   6.845   5.240   0.687 -0.9582  0.9659  1.3614
15361TIP3   OH267573   0.676   6.623   0.680  0.8583 -0.3375 -0.5053
15361TIP3    H167574   0.737   6.695   0.662  0.0532 -0.0355 -2.3265
15361TIP3    H267575   0.683   6.566   0.603 -0.1426 -1.0123 -0.1141
15362TIP3   OH267576   3.480   2.406  15.283  0.0363 -0.0899 -0.3811
15362TIP3    H167577   3.561   2.358  15.300 -0.4634 -1.8908 -2.5534
15362TIP3    H267578   3.411   2.352  15.322 -0.2019  1.4875  1.5632
15363TIP3   OH267579   5.366   1.832   0.915  1.1295 -0.3440 -0.0820
15363TIP3    H167580   5.445   1.848   0.967  0.8616  0.3370  0.1279
15363TIP3    H267581   5.398   1.825   0.825  1.2659  1.8280 -0.2685
15364TIP3   OH267582   3.403   4.249   3.631  0.0650  0.4301  0.6314
15364TIP3    H167583   3.462   4.221   3.561  0.1953  2.6077 -0.2327
15364TIP3    H267584   3.316   4.249   3.590 -0.3648 -1.3723  1.4690
15365TIP3   OH267585   5.194   5.623   3.987 -0.2939  0.5034  0.5246
15365TIP3    H167586   5.270   5.564   3.990 -0.2349  0.4064 -1.4728
15365TIP3    H267587   5.135   5.589   4.054  0.6372 -0.5595  0.8422
15366TIP3   OH267588   5.698   2.108   4.015  0.3593  0.0039 -0.1568
15366TIP3    H167589   5.778   2.092   4.066  1.2038 -3.1753 -2.1810
15366TIP3    H267590   5.660   2.021   4.003 -3.5050  1.3916  0.6894
15367TIP3   OH267591   2.042   5.005   3.683  0.2616 -0.0744  0.2044
15367TIP3    H167592   2.035   5.099   3.700  1.2320  0.0128  0.1685
15367TIP3    H267593   2.108   4.975   3.745  0.4712 -0.5973 -0.2680
15368TIP3   OH267594   5.473   2.433   2.822 -0.6434  0.0205 -0.1066
15368TIP3    H167595   5.473   2.341   2.794  0.6913 -0.2850  0.8352
15368TIP3    H267596   5.537   2.475   2.766 -0.0450  0.0164  0.5689
15369TIP3   OH267597   5.936   3.332   5.047  0.2294  0.3302 -0.0708
15369TIP3    H167598   5.929   3.250   5.096  0.2843  0.4214  0.0877
15369TIP3    H267599   5.929   3.305   4.955  1.6254 -0.0126 -0.0915
15370TIP3   OH267600   4.944   4.570   1.674 -0.5311 -0.1050  0.5051
15370TIP3    H167601   5.008   4.499   1.673 -1.1827 -0.7311  1.5073
15370TIP3    H267602   4.994   4.647   1.703 -0.0558 -0.3875  0.4505
15371TIP3   OH267603   6.459   6.943   3.826 -0.0923 -0.0790  0.3286
15371TIP3    H167604   6.503   6.987   3.898  1.0292 -1.4745  0.5531
15371TIP3    H267605   6.530   6.919   3.766 -0.9572  0.7182 -1.0719
15372TIP3   OH267606   5.800   5.712  15.067 -0.2828  0.3112  0.3053
15372TIP3    H167607   5.885   5.753  15.082 -0.8378  1.6545 -0.0329
15372TIP3    H267608   5.737   5.770  15.111 -1.0892 -0.2440 -0.0868
15373TIP3   OH267609   6.486   5.074   1.114  0.4222 -0.1237  0.1238
15373TIP3    H167610   6.517   5.077   1.024  2.1645 -0.5214  0.6861
15373TIP3    H267611   6.501   5.162   1.148  0.8223 -0.2748  0.3493
15374TIP3   OH267612   2.278   3.743  14.602  0.4416 -0.2224 -0.8800
15374TIP3    H167613   2.290   3.813  14.538  1.5874 -1.7796 -2.4582
15374TIP3    H267614   2.304   3.782  14.686 -1.1826  1.8936 -1.2724
15375TIP3   OH267615   2.627   6.713  13.149 -0.3054 -0.4425 -0.6308
15375TIP3    H167616   2.666   6.664  13.221  0.3982  2.1972  0.9546
15375TIP3    H267617   2.641   6.659  13.071 -3.4439 -4.7083  1.4084
15376TIP3   OH267618   2.320   5.756   4.633  0.1526 -0.7721  0.4246
15376TIP3    H167619   2.258   5.807   4.686  0.1531 -1.8131  1.4918
15376TIP3    H267620   2.266   5.717   4.564 -0.0817 -0.3571  0.3719
15377TIP3   OH267621   1.248   4.990   1.101  0.0238  0.1722  0.3986
15377TIP3    H167622   1.164   4.975   1.145 -0.5784  1.8317 -0.1304
15377TIP3    H267623   1.273   5.078   1.127  1.7908 -0.4182  0.8064
15378TIP3   OH267624   2.347   5.828   0.113  0.7982 -0.4215 -0.1193
15378TIP3    H167625   2.401   5.749   0.124  0.3232 -0.7982 -0.4719
15378TIP3    H267626   2.293   5.810   0.037  1.3241  0.6211 -0.7646
15379TIP3   OH267627   0.773   3.910   5.248 -0.1676  0.1406 -0.4159
15379TIP3    H167628   0.752   3.820   5.223 -0.6375  0.6631 -2.0972
15379TIP3    H267629   0.705   3.935   5.310 -1.2075 -0.0525 -1.4458
15380TIP3   OH267630   1.008   6.363   2.424  0.0168  0.3650 -0.1447
15380TIP3    H167631   1.000   6.319   2.508 -0.7813  0.3281 -0.2321
15380TIP3    H267632   1.046   6.296   2.366 -0.0744  0.1758  0.0126
15381TIP3   OH267633   1.142   5.239   5.637 -0.4004 -0.1982 -0.5806
15381TIP3    H167634   1.172   5.151   5.660  0.8004  0.4283  0.3575
15381TIP3    H267635   1.160   5.246   5.543  1.3678 -0.2874 -0.2918
15382TIP3   OH267636   5.565   3.516   4.571  0.1656  0.3433 -0.1719
15382TIP3    H167637   5.521   3.494   4.653  1.0327  1.7370  0.7090
15382TIP3    H267638   5.606   3.435   4.543  1.4623  0.2482  1.8035
15383TIP3   OH267639   4.856   1.944  10.877  0.2694  0.0588 -0.3676
15383TIP3    H167640   4.945   1.980  10.883  0.5473 -0.3348 -1.7494
15383TIP3    H267641   4.800   2.011  10.917  1.3202 -0.4324  2.1535
15384TIP3   OH267642   1.352   3.246   3.129  0.1102  0.0506  0.0144
15384TIP3    H167643   1.341   3.168   3.075  0.9140 -0.2462  0.2551
15384TIP3    H267644   1.437   3.282   3.102  0.9598 -0.5976  1.6626
15385TIP3   OH267645   0.314   4.241   2.174  0.3067 -0.9801  0.0703
15385TIP3    H167646   0.262   4.209   2.101  2.3534  0.3359 -2.1117
15385TIP3    H267647   0.394   4.189   2.172  1.1496  0.2595  0.2130
15386TIP3   OH267648   3.777   3.801  14.250 -0.0805  0.1212 -0.0574
15386TIP3    H167649   3.804   3.799  14.158  1.6029  1.5529  0.3806
15386TIP3    H267650   3.810   3.719  14.286  1.5100  0.6994 -0.1461
15387TIP3   OH267651   3.035   1.792   1.156 -0.3153  0.8969  0.6565
15387TIP3    H167652   3.003   1.874   1.194 -0.6278  1.2253 -0.2931
15387TIP3    H267653   2.984   1.724   1.199 -0.4590  1.2389  1.0324
15388TIP3   OH267654   1.733   4.638   5.423  0.3525  0.2027 -0.1566
15388TIP3    H167655   1.779   4.661   5.504  0.9751  0.3719 -0.5548
15388TIP3    H267656   1.790   4.574   5.381 -0.4111 -0.5940 -0.0236
15389TIP3   OH267657   3.713   6.857  12.527 -0.0332  0.0112  0.1880
15389TIP3    H167658   3.738   6.872  12.618  0.7697 -1.0799  0.1729
15389TIP3    H267659   3.702   6.762  12.521  1.5082 -0.1277 -1.2293
15390TIP3   OH267660   1.132   3.823   6.118  0.6787  0.3691 -0.0861
15390TIP3    H167661   1.068   3.754   6.101  2.5929 -1.4891 -0.2475
15390TIP3    H267662   1.099   3.868   6.195 -1.2644  0.1057 -0.6989
15391TIP3   OH267663   4.591   2.163   2.321  0.2480  0.5690  0.4753
15391TIP3    H167664   4.573   2.193   2.231  1.8800  0.6031  0.1291
15391TIP3    H267665   4.626   2.240   2.365 -1.7365  0.9196  1.5768
15392TIP3   OH267666   2.006   4.013  13.320 -0.6921  0.0566 -0.3297
15392TIP3    H167667   2.057   4.054  13.250 -0.8642  0.3928 -0.2616
15392TIP3    H267668   2.068   3.956  13.365 -0.6617 -0.4258 -0.9697
15393TIP3   OH267669   6.721   1.966  13.602 -0.5285 -0.2219  0.0453
15393TIP3    H167670   6.749   2.018  13.677 -0.5008  0.3288 -0.3436
15393TIP3    H267671   6.677   1.890  13.640 -2.2173  0.9908  0.5950
15394TIP3   OH267672   0.194   5.228   1.480  0.2953 -0.3509  0.1202
15394TIP3    H167673   0.158   5.276   1.405  0.4365  0.5689  0.6360
15394TIP3    H267674   0.207   5.294   1.547 -1.1387 -1.3566  1.4740
15395TIP3   OH267675   5.177   0.060   4.847 -0.9295  0.2791  0.7372
15395TIP3    H167676   5.136   0.145   4.833  0.9098  1.3088  1.2619
15395TIP3    H267677   5.246   0.077   4.912  0.7963 -1.1790 -0.6079
15396TIP3   OH267678   6.152   5.708   3.043 -0.0581 -0.0443  0.2826
15396TIP3    H167679   6.214   5.728   2.972  0.5489  1.7818  1.2643
15396TIP3    H267680   6.112   5.792   3.064  0.1889 -0.4251  2.4767
15397TIP3   OH267681   1.351   6.986   3.839 -0.4198  0.5373 -0.1245
15397TIP3    H167682   1.417   7.056   3.833 -0.3722  0.7323  1.8964
15397TIP3    H267683   1.377   6.923   3.772  0.9261  1.3521 -0.4100
15398TIP3   OH267684   4.736   0.636   0.327 -0.5045  0.0843 -0.2579
15398TIP3    H167685   4.723   0.682   0.245  0.1102  0.2999 -0.2330
15398TIP3    H267686   4.721   0.544   0.306 -1.2863  0.2384 -0.4022
15399TIP3   OH267687   3.707   6.470   3.450 -0.5202 -0.0361  0.2561
15399TIP3    H167688   3.646   6.409   3.409  0.2614 -0.1473 -0.8093
15399TIP3    H267689   3.654   6.520   3.512 -1.2690 -1.4746  0.8295
15400TIP3   OH267690   2.459   1.026  11.579  0.2035  0.6661  0.1615
15400TIP3    H167691   2.481   1.030  11.486  1.9885  0.0744  0.5155
15400TIP3    H267692   2.542   1.006  11.622 -0.9251 -0.9635  1.7168
15401TIP3   OH267693   4.890   7.105  15.677 -0.2609 -0.0560 -0.0850
15401TIP3    H167694   4.962   7.052  15.641  0.2556  0.0556  0.7593
15401TIP3    H267695   4.843   7.136  15.599  0.4095 -0.3999 -0.6468
15402TIP3   OH267696   2.026   4.920   2.323  0.0359 -0.5465  0.1727
15402TIP3    H167697   2.094   4.959   2.378 -0.7467  1.0406  0.0711
15402TIP3    H267698   2.009   4.986   2.255 -1.2678 -1.1008 -0.0700
15403TIP3   OH267699   6.353   5.372   3.267 -0.1287 -0.3410  0.2437
15403TIP3    H167700   6.339   5.466   3.278 -1.1212 -0.5596  0.9514
15403TIP3    H267701   6.266   5.337   3.248  0.1360 -1.1910  0.5574
15404TIP3   OH267702   1.998   0.385   4.689  0.2880 -0.1920 -0.3092
15404TIP3    H167703   1.987   0.296   4.722 -0.3671 -0.0117 -0.0355
15404TIP3    H267704   1.983   0.441   4.765  0.0852  0.1751 -0.6171
15405TIP3   OH267705   0.547   2.026   4.896  0.0752 -0.1028 -0.0055
15405TIP3    H167706   0.564   1.932   4.886  0.5405 -0.0632  0.3958
15405TIP3    H267707   0.629   2.068   4.869 -0.4945  0.2478 -1.2781
15406TIP3   OH267708   1.312   6.869   1.854  0.0908 -0.3110  0.0481
15406TIP3    H167709   1.283   6.815   1.928 -1.5227 -0.0299 -0.3453
15406TIP3    H267710   1.373   6.813   1.806  2.2368 -0.0478  2.2758
15407TIP3   OH267711   6.418   4.726   5.142 -0.2545  0.3303  0.1726
15407TIP3    H167712   6.368   4.802   5.171  1.8195  0.8931  2.7049
15407TIP3    H267713   6.463   4.695   5.221 -0.4078 -3.0995 -0.9292
15408TIP3   OH267714   0.695   0.122   0.429  0.2585 -0.2920  0.3312
15408TIP3    H167715   0.608   0.153   0.404 -0.7840 -2.6865  0.6504
15408TIP3    H267716   0.741   0.112   0.347 -0.9163 -1.9913 -0.1799
15409TIP3   OH267717   3.989   5.336   4.607  0.5872  0.0644  0.0951
15409TIP3    H167718   3.908   5.324   4.656  1.0651  0.2849  0.9493
15409TIP3    H267719   3.962   5.334   4.515 -0.4219  0.4085  0.3786
15410TIP3   OH267720   6.856   3.196   1.259 -0.2817  0.2105 -0.1628
15410TIP3    H167721   6.819   3.130   1.318 -0.0617  0.4053  0.1959
15410TIP3    H267722   6.950   3.192   1.277 -0.3003  0.8379  0.0827
15411TIP3   OH267723   6.879   3.223   4.577 -0.1942 -0.6057  0.5583
15411TIP3    H167724   6.874   3.309   4.536  0.1646 -0.5957  0.5301
15411TIP3    H267725   6.850   3.237   4.667 -1.5075 -0.7307  0.1759
15412TIP3   OH267726   5.940   6.120   2.536 -0.2597  0.7428  0.4758
15412TIP3    H167727   5.847   6.123   2.513 -0.2149 -2.0939 -0.4933
15412TIP3    H267728   5.949   6.042   2.591  2.0438 -1.6460 -2.8231
15413TIP3   OH267729   1.457   2.718   1.146  0.2555 -0.4863 -0.3662
15413TIP3    H167730   1.410   2.653   1.199  2.0879 -1.4721  0.1203
15413TIP3    H267731   1.430   2.700   1.056 -0.7005 -0.6488 -0.0632
15414TIP3   OH267732   4.051   2.371   4.574 -0.0634  0.3712 -0.4304
15414TIP3    H167733   4.106   2.443   4.545 -0.4107  0.3008 -1.3055
15414TIP3    H267734   4.104   2.324   4.638  0.6277  0.6955 -0.7550
15415TIP3   OH267735   1.684   6.989   3.567  0.0882  0.7213  0.3940
15415TIP3    H167736   1.686   6.905   3.521 -0.3966  1.8267 -1.7690
15415TIP3    H267737   1.770   7.028   3.551  0.6187  0.3208  2.0987
15416TIP3   OH267738   0.626   2.101   4.519  0.5892  0.7576 -0.0392
15416TIP3    H167739   0.689   2.078   4.451 -0.1140  0.8436 -0.7382
15416TIP3    H267740   0.653   2.050   4.596  0.7365 -0.2011 -0.7168
15417TIP3   OH267741   3.790   5.849   3.101  0.0009  0.0870  0.4115
15417TIP3    H167742   3.875   5.823   3.136  0.7443  0.8126 -0.7781
15417TIP3    H267743   3.798   5.835   3.006 -1.2393  0.0852  0.2868
15418TIP3   OH267744   5.111   5.092   3.829 -0.5038  0.6540 -0.1760
15418TIP3    H167745   5.107   5.016   3.887 -1.6287 -1.1191 -2.4243
15418TIP3    H267746   5.175   5.068   3.762  1.1331  2.8426  0.5035
15419TIP3   OH267747   6.310   4.219   1.630 -0.2615 -0.3849  0.5347
15419TIP3    H167748   6.299   4.268   1.712  0.0612  0.0204  0.3384
15419TIP3    H267749   6.336   4.131   1.658  0.2073 -0.1459  0.8550
15420TIP3   OH267750   5.099   3.904  10.689  0.5600 -0.5581  0.4415
15420TIP3    H167751   5.053   3.877  10.609  0.2354 -0.1082  0.4739
15420TIP3    H267752   5.037   3.887  10.760 -0.4807  2.1237  0.2885
15421TIP3   OH267753   4.593   3.655   0.598  0.2512 -0.4931 -0.0573
15421TIP3    H167754   4.628   3.744   0.588 -0.1732 -0.2453  0.5867
15421TIP3    H267755   4.505   3.660   0.562 -0.6469 -0.0310  2.0491
15422TIP3   OH267756   1.065   7.141   3.152 -0.1496  0.3531 -0.1931
15422TIP3    H167757   1.088   7.167   3.241  1.4316  1.8010 -0.9573
15422TIP3    H267758   1.057   7.224   3.104  0.4520 -0.4299 -1.7131
15423TIP3   OH267759   5.577   1.816   2.527  0.6591  0.2757  1.0075
15423TIP3    H167760   5.495   1.820   2.477  2.9029 -0.3018 -3.2632
15423TIP3    H267761   5.599   1.723   2.530  2.4590  0.5750 -0.5897
15424TIP3   OH267762   0.322   2.838   1.197 -0.1283  0.2417  0.3086
15424TIP3    H167763   0.339   2.907   1.261 -1.8585 -0.4731  1.6127
15424TIP3    H267764   0.362   2.870   1.116  0.0646  2.2605  1.1419
15425TIP3   OH267765   1.683   0.694   4.822 -0.4483 -0.1050 -0.1897
15425TIP3    H167766   1.607   0.672   4.767  0.6999 -0.2942 -1.7876
15425TIP3    H267767   1.747   0.730   4.760  0.3955  1.0272  1.2715
15426TIP3   OH267768   5.781   3.554   5.118  0.3044  0.0233  0.1607
15426TIP3    H167769   5.852   3.519   5.064 -0.8691 -1.3450 -0.5472
15426TIP3    H267770   5.757   3.481   5.175 -0.7950  0.3538  0.1297
15427TIP3   OH267771   2.322   2.277  11.545 -0.2260 -0.4081  0.3923
15427TIP3    H167772   2.266   2.354  11.553 -0.7993 -0.8538  0.7296
15427TIP3    H267773   2.301   2.240  11.460  2.2034  1.4565 -1.1693
15428TIP3   OH267774   3.650   5.952   1.058 -0.2549 -0.1760 -0.6160
15428TIP3    H167775   3.621   5.947   0.967  3.2139 -0.3485 -1.8510
15428TIP3    H267776   3.733   6.001   1.054  0.8930 -1.6699  2.1822
15429TIP3   OH267777   1.555   4.402   4.220 -0.1815  0.0705  0.3498
15429TIP3    H167778   1.503   4.482   4.224  0.0149  0.4591 -2.8218
15429TIP3    H267779   1.523   4.350   4.294 -3.5235  1.2154 -0.1096
15430TIP3   OH267780   3.279   4.741   3.737  0.6862 -0.1943  0.0680
15430TIP3    H167781   3.352   4.757   3.678  0.9064  0.6380  0.5429
15430TIP3    H267782   3.288   4.808   3.805 -0.1704 -0.4600  0.4628
15431TIP3   OH267783   1.902   2.175   3.037 -0.3068  0.2205 -0.2501
15431TIP3    H167784   1.909   2.081   3.022 -1.4655  0.4468 -2.7767
15431TIP3    H267785   1.871   2.184   3.127  1.6620 -1.6887  0.6998
15432TIP3   OH267786   2.820   3.169   0.508 -0.4958  0.1736  0.3046
15432TIP3    H167787   2.736   3.127   0.487 -0.7966  2.4110 -4.0695
15432TIP3    H267788   2.807   3.205   0.596 -4.3764  0.7887 -0.3255
15433TIP3   OH267789   4.288   5.543   3.167  0.0238 -0.1668  0.4705
15433TIP3    H167790   4.379   5.549   3.196 -0.2716  0.0383  1.3914
15433TIP3    H267791   4.245   5.492   3.235 -0.2007 -1.8486 -0.8510
15434TIP3   OH267792   6.968   4.210   4.353 -0.1407  0.1566 -0.6321
15434TIP3    H167793   6.874   4.203   4.365 -0.1332 -0.9164 -1.1096
15434TIP3    H267794   6.988   4.301   4.376 -1.3839  0.5996 -1.2167
15435TIP3   OH267795   4.878   3.835  11.848 -0.1207  0.6733 -0.2579
15435TIP3    H167796   4.831   3.812  11.768  1.8007 -0.3111 -1.1502
15435TIP3    H267797   4.860   3.763  11.908 -2.3472  1.8624  0.6318
15436TIP3   OH267798   1.746   1.424  12.235  0.0782  0.8507 -0.0238
15436TIP3    H167799   1.755   1.456  12.325 -0.9239 -0.2729  0.4990
15436TIP3    H267800   1.789   1.491  12.182  2.0485  0.7973  1.4043
15437TIP3   OH267801   6.775   4.051   4.014  0.1445 -1.1663 -0.3313
15437TIP3    H167802   6.723   4.115   3.965  0.5212 -0.1542  0.5560
15437TIP3    H267803   6.723   3.971   4.012 -1.7061 -0.0697  0.9241
15438TIP3   OH267804   3.110   1.511   4.819 -0.2158  0.4035 -0.5522
15438TIP3    H167805   3.175   1.441   4.818 -2.8027 -2.2314  0.4607
15438TIP3    H267806   3.067   1.505   4.734 -0.5261  0.6709 -0.4189
15439TIP3   OH267807   5.885   5.488   0.466  0.0561 -0.1443  0.6827
15439TIP3    H167808   5.923   5.427   0.529  0.1485  0.9828  1.7690
15439TIP3    H267809   5.949   5.559   0.460 -0.6795  0.5191  0.5268
15440TIP3   OH267810   4.542   5.610  13.741 -0.0316 -0.0374  0.1621
15440TIP3    H167811   4.463   5.556  13.746  0.4733 -0.7379  1.1261
15440TIP3    H267812   4.585   5.582  13.660 -0.1616 -0.5427  0.2645
15441TIP3   OH267813   5.585   3.819   3.315 -0.0662  0.8622 -0.2490
15441TIP3    H167814   5.627   3.813   3.401  0.0714  1.6024 -0.2592
15441TIP3    H267815   5.652   3.856   3.259 -0.8247  2.4005 -0.1879
15442TIP3   OH267816   0.426   6.614   0.512  0.1137 -0.9946 -0.3528
15442TIP3    H167817   0.357   6.627   0.448 -0.1315 -2.1689 -0.3390
15442TIP3    H267818   0.493   6.678   0.488 -0.9133  0.0826 -0.4335
15443TIP3   OH267819   1.370   2.067   3.564  0.0798  0.1536 -0.2896
15443TIP3    H167820   1.407   2.056   3.652  0.8152  0.2044 -0.5837
15443TIP3    H267821   1.276   2.072   3.578  0.1950  0.2272  0.5053
15444TIP3   OH267822   3.919   7.063   2.193 -0.1102 -0.7602 -0.3473
15444TIP3    H167823   3.925   6.977   2.235  1.7487 -1.4408 -1.8521
15444TIP3    H267824   3.869   7.047   2.113 -1.9924  0.1435  0.5857
15445TIP3   OH267825   0.506   5.414  15.475  0.0470 -0.1959  0.4655
15445TIP3    H167826   0.445   5.391  15.546 -0.1926 -0.0499  0.3058
15445TIP3    H267827   0.566   5.339  15.471  0.0070 -0.2479  0.7599
15446TIP3   OH267828   3.595   3.540   3.041 -0.4087  0.1930 -0.3875
15446TIP3    H167829   3.634   3.503   2.962 -2.4823 -2.0384 -0.5082
15446TIP3    H267830   3.648   3.505   3.112 -0.5907 -0.6792 -0.6655
15447TIP3   OH267831   1.618   1.266   4.258  0.5135 -0.5063  0.0973
15447TIP3    H167832   1.643   1.358   4.249  0.6011 -0.7595 -3.5003
15447TIP3    H267833   1.543   1.267   4.318 -0.1127  2.0272 -0.6185
15448TIP3   OH267834   0.800   5.481  11.397 -0.1690 -0.0163 -0.5660
15448TIP3    H167835   0.846   5.506  11.477 -1.3730 -0.0891  0.1708
15448TIP3    H267836   0.719   5.441  11.427 -0.6429 -0.0651 -1.8309
15449TIP3   OH267837   5.499   1.181  15.509 -0.3387  0.2519 -0.0332
15449TIP3    H167838   5.440   1.220  15.575  0.2118  0.8755  0.0963
15449TIP3    H267839   5.585   1.215  15.531  0.2304 -1.3461  0.3097
15450TIP3   OH267840   1.795   4.180   2.619 -0.2890  0.0849 -0.2030
15450TIP3    H167841   1.719   4.123   2.610 -0.2119 -0.0202 -0.1912
15450TIP3    H267842   1.832   4.156   2.704 -1.5065  1.6548  0.8219
15451TIP3   OH267843   1.787   1.075  15.598  0.4572 -0.0952  0.3777
15451TIP3    H167844   1.843   1.091  15.523  0.2545  0.7400  0.3945
15451TIP3    H267845   1.735   1.155  15.607 -1.4237 -1.2028 -0.2214
15452TIP3   OH267846   1.782   6.415   5.532  0.3252  0.2031 -0.0206
15452TIP3    H167847   1.700   6.378   5.501  0.3055 -0.5281  0.8681
15452TIP3    H267848   1.786   6.391   5.625  0.6276  1.8596  0.4339
15453TIP3   OH267849   0.778   2.784  15.259  0.1943  0.2973  0.1857
15453TIP3    H167850   0.762   2.694  15.231  2.8958 -1.2117  2.9430
15453TIP3    H267851   0.709   2.802  15.323  0.5253 -0.4064  0.7482
15454TIP3   OH267852   2.931   3.841   1.565 -0.1540 -0.0266 -0.0281
15454TIP3    H167853   2.877   3.808   1.636  0.4406 -0.4966  0.2148
15454TIP3    H267854   3.010   3.873   1.609 -0.0761  0.3139 -0.4122
15455TIP3   OH267855   2.069   5.315   3.499 -0.0615  0.0722  0.2441
15455TIP3    H167856   2.100   5.254   3.432 -1.3938 -0.6529  0.2579
15455TIP3    H267857   2.049   5.395   3.450 -0.8926 -0.4067 -0.2335
15456TIP3   OH267858   6.793   2.597  12.512  0.0574 -0.4330 -0.5616
15456TIP3    H167859   6.780   2.630  12.423 -0.4364 -0.9927 -0.6969
15456TIP3    H267860   6.718   2.630  12.561  0.4234  0.0332 -0.2973
15457TIP3   OH267861   1.551   3.344   4.047  0.2618  0.0844 -0.5510
15457TIP3    H167862   1.516   3.362   3.960 -0.6534  1.1671  0.0287
15457TIP3    H267863   1.482   3.295   4.092  0.5989 -0.1886 -0.3166
15458TIP3   OH267864   5.859   2.523   4.464  0.4417 -0.2077 -0.6679
15458TIP3    H167865   5.909   2.523   4.546 -0.6357 -2.0167  0.0594
15458TIP3    H267866   5.888   2.444   4.418  1.0709  0.8234 -2.0817
15459TIP3   OH267867   4.626   0.257  15.059 -0.2562  0.0985  0.4843
15459TIP3    H167868   4.569   0.213  14.996 -0.8440 -0.5485  1.4470
15459TIP3    H267869   4.715   0.241  15.027 -0.5028 -1.0906  0.3770
15460TIP3   OH267870   6.916   3.014  15.403 -0.3291 -0.0167  0.1364
15460TIP3    H167871   6.879   2.934  15.441 -1.1019  1.1446  1.9528
15460TIP3    H267872   6.854   3.038  15.334 -1.6414  0.4986  1.4424
15461TIP3   OH267873   5.444   0.939  12.262 -0.2777 -0.5315  0.4760
15461TIP3    H167874   5.473   1.002  12.328 -0.0059 -0.7244  0.5421
15461TIP3    H267875   5.525   0.910  12.219 -0.5802  1.2539 -1.4866
15462TIP3   OH267876   5.808   1.513   8.987  0.6731 -0.3748  0.1094
15462TIP3    H167877   5.737   1.565   8.948  0.2481  0.0423  1.4143
15462TIP3    H267878   5.771   1.425   8.998  0.7616 -0.4679 -0.3037
15463TIP3   OH267879   2.478   1.313   1.254 -0.4248  0.1445  0.1212
15463TIP3    H167880   2.498   1.292   1.346 -0.6179 -0.6560 -0.0098
15463TIP3    H267881   2.412   1.382   1.260  0.5195  1.0375  0.5681
15464TIP3   OH267882   3.905   2.744   0.501  0.0635 -0.1938  0.1421
15464TIP3    H167883   3.897   2.839   0.501 -1.4117 -0.3064  0.4871
15464TIP3    H267884   3.925   2.722   0.410 -0.7156  0.3622 -0.1675
15465TIP3   OH267885   4.837   0.550   2.041 -0.2014  0.0491 -0.0293
15465TIP3    H167886   4.862   0.559   1.949  0.2741 -0.4722  0.0391
15465TIP3    H267887   4.765   0.488   2.040 -0.2060  0.0543 -0.0517
15466TIP3   OH267888   4.058   0.732   0.807 -0.0090  0.0995 -0.2649
15466TIP3    H167889   4.004   0.775   0.741  1.3018 -0.4948 -1.8246
15466TIP3    H267890   4.125   0.686   0.756  1.5146  0.1943  1.5262
15467TIP3   OH267891   0.196   1.870   1.050 -0.5089  0.1881  0.1614
15467TIP3    H167892   0.244   1.797   1.090 -0.2737 -0.4073 -1.1520
15467TIP3    H267893   0.184   1.932   1.121  1.4924 -0.0120  0.7407
15468TIP3   OH267894   0.239   1.623   5.537 -0.0800 -0.2120  1.0129
15468TIP3    H167895   0.306   1.600   5.602  0.8756  2.4966  1.1155
15468TIP3    H267896   0.270   1.584   5.455  1.2213  0.3144  1.2337
15469TIP3   OH267897   2.864   7.087   2.474 -0.2386 -0.0017 -0.5678
15469TIP3    H167898   2.936   7.027   2.454 -0.1255  0.1054 -0.4848
15469TIP3    H267899   2.870   7.101   2.569 -0.6529 -0.3582 -0.4837
15470TIP3   OH267900   2.139   2.468  14.946 -0.4974 -0.1571  0.0523
15470TIP3    H167901   2.143   2.470  14.850 -0.6026  0.7884  0.0601
15470TIP3    H267902   2.065   2.410  14.966  0.1946 -1.2412 -0.4062
15471TIP3   OH267903   0.188   0.356   0.862  0.1576 -0.1583  0.1779
15471TIP3    H167904   0.122   0.387   0.923 -0.5256 -0.3106 -0.4643
15471TIP3    H267905   0.244   0.298   0.914 -0.3577 -0.2189  0.6771
15472TIP3   OH267906   6.646   7.068   4.524  0.0393 -0.2010 -0.1663
15472TIP3    H167907   6.575   7.059   4.587  0.0529  0.2944 -0.0804
15472TIP3    H267908   6.602   7.063   4.439 -0.0429 -0.3283 -0.1173
15473TIP3   OH267909   0.957   0.645   2.379  0.0732 -0.4211  0.5101
15473TIP3    H167910   0.967   0.697   2.459 -0.2972 -0.7056  0.7415
15473TIP3    H267911   0.996   0.700   2.310 -2.8079  1.5015  0.2231
15474TIP3   OH267912   4.885   2.429   4.573  0.7207  0.6847 -0.3909
15474TIP3    H167913   4.883   2.451   4.480  0.3756  2.1492 -0.0718
15474TIP3    H267914   4.845   2.505   4.616  0.1634 -0.3058  0.8977
15475TIP3   OH267915   6.331   1.204   5.224 -0.0768  0.4668 -0.3699
15475TIP3    H167916   6.278   1.232   5.298  0.6036 -0.1560  0.3707
15475TIP3    H267917   6.394   1.143   5.261 -0.1933 -0.4384 -1.5822
15476TIP3   OH267918   7.108   0.643   2.922 -0.0725  0.0900  0.2931
15476TIP3    H167919   7.164   0.570   2.948  1.0344  0.6425 -0.4239
15476TIP3    H267920   7.027   0.602   2.891  0.5448 -0.8352 -0.1313
15477TIP3   OH267921   2.393   1.686   3.574 -0.4583  0.5472 -0.5758
15477TIP3    H167922   2.455   1.758   3.584  0.9153 -0.8087  1.2801
15477TIP3    H267923   2.429   1.634   3.502 -0.6231  0.8825 -0.9061
15478TIP3   OH267924   1.772   3.622   0.999  0.1298 -0.6535  0.2450
15478TIP3    H167925   1.716   3.552   0.965  1.1526 -0.3165 -2.2996
15478TIP3    H267926   1.814   3.584   1.076 -0.9704 -2.0654  0.1898
15479TIP3   OH267927   4.366   3.767  12.843 -0.5659 -0.1459  0.1388
15479TIP3    H167928   4.438   3.825  12.820 -0.0948 -1.6728 -2.6711
15479TIP3    H267929   4.401   3.712  12.912 -0.1496  1.1493  1.0027
15480TIP3   OH267930   4.668   5.565   1.071 -0.5184 -0.1943 -0.3693
15480TIP3    H167931   4.718   5.537   0.994  0.8896  1.1578 -0.0060
15480TIP3    H267932   4.726   5.547   1.145 -1.0186  0.3968  0.1791
15481TIP3   OH267933   2.902   5.155  14.318  0.0843 -0.0712  0.2232
15481TIP3    H167934   2.836   5.092  14.286  0.5720 -2.4956  3.4619
15481TIP3    H267935   2.855   5.206  14.384  0.8731 -0.3003  0.9702
15482TIP3   OH267936   5.923   1.092   5.237  0.0454  0.8564 -0.1945
15482TIP3    H167937   5.943   1.181   5.211 -0.7834  1.1918  0.2680
15482TIP3    H267938   6.008   1.049   5.245  0.5856  2.1089  1.3435
15483TIP3   OH267939   0.858   1.361   6.011 -0.2651  0.1119 -0.0120
15483TIP3    H167940   0.774   1.333   6.048 -0.5699  0.4184 -0.4576
15483TIP3    H267941   0.842   1.451   5.980  0.5403  0.5886  0.8951
15484TIP3   OH267942   0.902   3.771  13.464 -0.0740  0.0531  0.2485
15484TIP3    H167943   0.860   3.812  13.540 -0.6930 -0.9104  0.4483
15484TIP3    H267944   0.838   3.782  13.393  0.2214  0.3721  0.0284
15485TIP3   OH267945   4.020   4.763   3.004  0.2930 -0.2826 -0.2082
15485TIP3    H167946   3.942   4.718   2.972  0.5432 -0.8823  0.0114
15485TIP3    H267947   3.986   4.842   3.047  0.0143  1.0286 -2.7024
15486TIP3   OH267948   0.701   1.925   1.858 -0.0655 -0.0771 -0.4484
15486TIP3    H167949   0.757   1.947   1.932 -1.3256  1.2392  0.1525
15486TIP3    H267950   0.718   1.832   1.842  0.6726 -0.2418  1.1092
15487TIP3   OH267951   5.492   2.137  10.609 -0.5086 -0.0667 -0.1438
15487TIP3    H167952   5.579   2.097  10.600 -0.0157  0.5897  1.4617
15487TIP3    H267953   5.436   2.066  10.640 -0.4212 -0.3409 -0.6006
15488TIP3   OH267954   1.584   0.670   0.340  0.1814 -0.2722 -0.3403
15488TIP3    H167955   1.650   0.738   0.357  0.5454 -0.1904 -1.9067
15488TIP3    H267956   1.608   0.598   0.398  0.9028  0.2459  0.0174
15489TIP3   OH267957   1.471   3.870   0.243  0.1500 -0.3353  0.3965
15489TIP3    H167958   1.445   3.797   0.299  0.2470 -0.2474  0.5526
15489TIP3    H267959   1.534   3.920   0.294 -0.1517  0.0384  0.4156
15490TIP3   OH267960   1.731   1.165   3.797 -0.0712 -0.2660 -0.1523
15490TIP3    H167961   1.724   1.078   3.837 -1.9234 -0.0572  0.0520
15490TIP3    H267962   1.756   1.223   3.869  3.3207 -0.8680 -0.6783
15491TIP3   OH267963   2.862   4.870  13.514 -0.0127 -0.4329  0.0073
15491TIP3    H167964   2.953   4.838  13.518 -0.2998 -1.2952 -0.2091
15491TIP3    H267965   2.857   4.917  13.432  0.1422 -0.7110 -0.1653
15492TIP3   OH267966   0.929   3.445   4.758 -0.1989 -0.0091 -0.2098
15492TIP3    H167967   0.998   3.501   4.724  0.3295 -1.7875 -2.2388
15492TIP3    H267968   0.949   3.436   4.851  1.9707 -0.0167 -0.6421
15493TIP3   OH267969   5.313   4.998   1.104  0.6499 -0.6794  0.0596
15493TIP3    H167970   5.383   4.987   1.040  0.8841  0.4204  0.1235
15493TIP3    H267971   5.325   5.086   1.139  0.2285 -1.0798  1.2701
15494TIP3   OH267972   4.127   1.801  10.566 -0.2098  0.0493 -0.6014
15494TIP3    H167973   4.084   1.790  10.481  0.4762  0.3009 -0.9888
15494TIP3    H267974   4.220   1.808  10.545 -0.0023 -0.2096  0.2016
15495TIP3   OH267975   5.625   6.365  10.671 -0.0590  0.0252  0.3177
15495TIP3    H167976   5.562   6.367  10.743  0.3871  0.0657  0.7164
15495TIP3    H267977   5.572   6.370  10.592 -0.5586 -0.0519  0.6449
15496TIP3   OH267978   2.113   4.549   1.695  0.3364 -0.2499 -0.3679
15496TIP3    H167979   2.107   4.484   1.764 -0.2248  0.5925  0.4000
15496TIP3    H267980   2.057   4.515   1.625 -1.7866  0.4098  0.8970
15497TIP3   OH267981   5.215   5.717   2.455 -0.3937  0.1181 -0.4521
15497TIP3    H167982   5.286   5.711   2.519  0.3527  1.6944 -1.0845
15497TIP3    H267983   5.136   5.694   2.504  0.2667  0.4584  0.8043
15498TIP3   OH267984   2.863   6.125   4.609 -0.1668 -0.3489 -0.3509
15498TIP3    H167985   2.790   6.151   4.665 -0.6583 -0.2690 -1.0306
15498TIP3    H267986   2.822   6.078   4.536  0.2069  1.8708 -2.0870
15499TIP3   OH267987   0.339   0.617   3.819  0.2158  0.0679  0.0294
15499TIP3    H167988   0.277   0.661   3.761 -2.2042  1.0466  3.1288
15499TIP3    H267989   0.367   0.540   3.769 -2.8720  0.0055 -1.8829
15500TIP3   OH267990   1.201   4.240   2.434  0.2795 -0.3011 -0.3606
15500TIP3    H167991   1.252   4.308   2.479 -0.3678 -0.1148  0.1152
15500TIP3    H267992   1.178   4.280   2.350 -0.7750  0.4168  0.2288
15501TIP3   OH267993   5.751   4.263   0.854 -0.5176  0.4557  0.2036
15501TIP3    H167994   5.734   4.237   0.764 -0.5389  1.0824  0.0179
15501TIP3    H267995   5.777   4.355   0.848  1.0365  0.0787  0.6734
15502TIP3   OH267996   6.890   4.283   4.729 -0.2097  0.5842 -0.1276
15502TIP3    H167997   6.957   4.241   4.783 -0.4683  1.3768  0.8429
15502TIP3    H267998   6.832   4.324   4.792 -1.4711  0.1329 -0.9720
15503TIP3   OH267999   0.884   6.642   4.172  0.1216 -0.2992  0.3426
15503TIP3    H168000   0.865   6.558   4.216 -0.8304  0.2250  0.9738
15503TIP3    H268001   0.975   6.661   4.197  0.8769 -1.8401 -1.0106
15504TIP3   OH268002   3.741   4.616  14.189  0.6979 -0.1536 -0.1422
15504TIP3    H168003   3.717   4.689  14.247  2.1413  2.2488 -2.3899
15504TIP3    H268004   3.793   4.558  14.245  0.0352  0.8218  1.5719
15505TIP3   OH268005   0.665   4.370   5.172 -0.1312 -0.0228 -0.3399
15505TIP3    H168006   0.733   4.315   5.211  1.3938  0.3058 -2.3428
15505TIP3    H268007   0.615   4.310   5.116 -1.5752 -0.2705  1.1514
15506TIP3   OH268008   5.062   3.109   3.653 -0.0169  0.3981 -0.0820
15506TIP3    H168009   5.026   3.057   3.725  1.1533 -2.1953 -1.2397
15506TIP3    H268010   4.993   3.111   3.588 -0.0843  0.3442 -0.0127
15507TIP3   OH268011   3.431   6.301  15.418 -0.1040 -0.0072  0.2203
15507TIP3    H168012   3.509   6.320  15.367 -0.4327 -0.4387 -0.4492
15507TIP3    H268013   3.417   6.380  15.471  0.2118  0.4653 -0.3908
15508TIP3   OH268014   7.009   6.111   0.720  0.0375  0.1881  0.5112
15508TIP3    H168015   7.059   6.119   0.639  0.6806 -1.0296  0.7538
15508TIP3    H268016   7.033   6.188   0.771  0.0282  0.6926 -0.2323
15509TIP3   OH268017   5.342   5.565  11.325  0.5656 -0.2040  0.1412
15509TIP3    H168018   5.251   5.575  11.352  0.9413  0.1075  1.3689
15509TIP3    H268019   5.339   5.502  11.253 -0.6650  0.2005 -0.1823
15510TIP3   OH268020   6.846   4.797   4.412  0.0082 -0.1920 -0.3584
15510TIP3    H168021   6.825   4.771   4.501  1.4121  2.4080  0.8150
15510TIP3    H268022   6.926   4.847   4.419 -0.0098  0.3758 -3.0649
15511TIP3   OH268023   2.974   1.745  13.426  0.5805 -0.0649 -0.0260
15511TIP3    H168024   3.016   1.748  13.341  0.5682  1.2342 -0.0197
15511TIP3    H268025   2.880   1.741  13.407  0.5911 -0.0753 -0.0738
15512TIP3   OH268026   3.587   1.955   1.644 -0.2889 -0.1835 -0.2124
15512TIP3    H168027   3.551   1.890   1.704 -2.0150  0.5588 -0.3924
15512TIP3    H268028   3.589   2.037   1.695 -0.0276  0.0623 -0.6106
15513TIP3   OH268029   5.242   3.744  13.846 -0.6545  0.0593 -0.1327
15513TIP3    H168030   5.222   3.834  13.823 -1.4388  0.7108  2.7435
15513TIP3    H268031   5.272   3.704  13.764 -0.4537  2.8471 -1.5146
15514TIP3   OH268032   7.048   3.190   0.879  0.2543  0.0237 -0.7845
15514TIP3    H168033   7.088   3.162   0.961  0.9362  0.5800 -0.9120
15514TIP3    H268034   7.113   3.168   0.812 -0.1785 -0.1775 -1.1386
15515TIP3   OH268035   6.667   4.611   2.112 -0.3305  0.0076  0.4741
15515TIP3    H168036   6.711   4.587   2.194  2.0012  0.6937 -0.4763
15515TIP3    H268037   6.622   4.532   2.084  1.4053 -1.1967  0.9203
15516TIP3   OH268038   5.736   2.086   9.746  0.7147 -0.1429 -0.3417
15516TIP3    H168039   5.703   2.165   9.788 -2.7667 -2.1576  1.1632
15516TIP3    H268040   5.716   2.097   9.653 -1.4790  0.0124  0.1166
15517TIP3   OH268041   1.968   2.664  12.460 -0.1457 -0.0183  0.6825
15517TIP3    H168042   2.009   2.711  12.388  0.4088  0.9944  1.6286
15517TIP3    H268043   1.884   2.707  12.472  1.1779  2.2316  2.8785
15518TIP3   OH268044   2.924   6.572   2.084  0.5683 -0.2569  0.4180
15518TIP3    H168045   2.897   6.637   2.150  0.5366  0.5233 -0.3495
15518TIP3    H268046   2.853   6.571   2.021  1.3066  0.1585 -0.4374
15519TIP3   OH268047   4.522   5.336  14.882 -0.3744  0.3847 -0.1430
15519TIP3    H168048   4.610   5.303  14.900  0.6280  2.7229 -0.3903
15519TIP3    H268049   4.536   5.420  14.839 -2.7499  0.5326 -0.7875
15520TIP3   OH268050   1.122   3.813   2.095  0.2589  0.2011 -0.2496
15520TIP3    H168051   1.113   3.823   2.000 -1.3994  0.8670 -0.0674
15520TIP3    H268052   1.151   3.723   2.108 -0.0676 -0.0753 -1.3667
15521TIP3   OH268053   3.533   7.057   5.899  0.3025 -0.0485  0.5138
15521TIP3    H168054   3.604   7.100   5.850 -0.8543  1.2789 -0.0606
15521TIP3    H268055   3.493   7.128   5.949 -0.9042 -0.6837  0.4694
15522TIP3   OH268056   5.126   2.757  11.565 -0.2674 -0.3945  0.7023
15522TIP3    H168057   5.164   2.690  11.622  0.5201 -0.7023 -0.1724
15522TIP3    H268058   5.197   2.784  11.508 -1.5420 -1.6654 -1.6322
15523TIP3   OH268059   0.104   4.358   3.102 -0.2950  0.8473 -0.0242
15523TIP3    H168060   0.099   4.264   3.122  0.5653  0.6343 -0.6974
15523TIP3    H268061   0.043   4.399   3.163 -1.5776 -0.2675 -0.4893
15524TIP3   OH268062   6.573   6.073  11.362  0.1227  0.5177 -0.0560
15524TIP3    H168063   6.537   6.084  11.274  0.2039 -1.7677 -0.4438
15524TIP3    H268064   6.515   6.009  11.404  0.4404  1.1000  1.3631
15525TIP3   OH268065   4.105   5.688   0.415 -0.0684 -0.2538 -0.2721
15525TIP3    H168066   4.090   5.769   0.366 -0.3969 -0.7050 -0.9385
15525TIP3    H268067   4.024   5.674   0.464 -0.0970 -0.2941 -0.3308
15526TIP3   OH268068   1.128   5.212   5.145 -0.5230  0.0838 -0.3005
15526TIP3    H168069   1.131   5.306   5.127  0.5188  0.2463  0.5927
15526TIP3    H268070   1.209   5.195   5.193 -1.5278 -0.9299  1.1033
15527TIP3   OH268071   0.186   5.647  14.134 -0.1805  0.3323 -0.1981
15527TIP3    H168072   0.205   5.619  14.224 -0.1784  0.0235 -0.2915
15527TIP3    H268073   0.178   5.742  14.139 -0.7524  0.2622  0.2352
15528TIP3   OH268074   2.359   4.896   4.762  0.7241  0.0256  0.1621
15528TIP3    H168075   2.448   4.864   4.770  0.4896 -1.0540 -1.1427
15528TIP3    H268076   2.367   4.991   4.759  1.8538 -0.0720 -0.1624
15529TIP3   OH268077   6.273   6.859   0.688 -0.4834 -0.0932 -0.2468
15529TIP3    H168078   6.240   6.926   0.748 -2.4051 -0.6349 -0.6196
15529TIP3    H268079   6.198   6.838   0.633  1.1404  0.2781 -2.7805
15530TIP3   OH268080   4.017   3.807  13.668  0.5368  0.0947  0.0404
15530TIP3    H168081   3.938   3.759  13.690  0.6695 -0.9433 -1.5665
15530TIP3    H268082   4.088   3.756  13.705  0.6273 -0.5777 -1.0239
15531TIP3   OH268083   1.445   0.533   3.675 -0.0374  0.7304  0.1265
15531TIP3    H168084   1.436   0.505   3.584 -3.6689  1.3794  0.1425
15531TIP3    H268085   1.471   0.453   3.722  2.0339  0.4219 -1.3792
15532TIP3   OH268086   5.124   6.373   4.609  0.1238 -0.1586  0.0727
15532TIP3    H168087   5.089   6.396   4.695  0.8477  0.0470  0.3233
15532TIP3    H268088   5.053   6.390   4.548 -0.3571 -0.1900  0.6196
15533TIP3   OH268089   0.035   1.988   4.071 -0.0628 -0.1359 -0.1042
15533TIP3    H168090   0.107   1.983   4.134  0.1884 -1.6595 -0.4929
15533TIP3    H268091   0.006   2.080   4.076  1.1137  0.2089  0.9150
15534TIP3   OH268092   2.007   3.102  13.705 -0.5727  0.0789  0.3553
15534TIP3    H168093   1.922   3.059  13.696 -0.4829  0.0280 -0.2433
15534TIP3    H268094   1.993   3.168  13.774 -0.8042 -0.6525  1.0246
15535TIP3   OH268095   1.509   0.909  10.870 -0.2947 -0.0963  0.3533
15535TIP3    H168096   1.439   0.913  10.935 -1.1153  1.9982 -0.5809
15535TIP3    H268097   1.582   0.869  10.917 -1.4606 -0.4216  1.9778
15536TIP3   OH268098   1.588   1.736   0.572 -0.0548 -0.9797 -0.3568
15536TIP3    H168099   1.656   1.803   0.563 -0.4160 -0.3142  1.3497
15536TIP3    H268100   1.540   1.739   0.489  1.5635 -0.9864 -1.3186
15537TIP3   OH268101   6.974   7.025  11.442 -0.0092  0.3347 -0.0363
15537TIP3    H168102   6.892   7.031  11.491  1.2029  1.7612  1.9839
15537TIP3    H268103   7.019   6.949  11.478  0.9634  1.4896  1.2901
15538TIP3   OH268104   4.397   3.519  13.581 -0.1391 -0.3166 -0.1016
15538TIP3    H168105   4.437   3.476  13.506 -2.4306 -0.6660 -1.1796
15538TIP3    H268106   4.330   3.576  13.544 -0.3302  0.6501  1.6096
15539TIP3   OH268107   4.002   1.627  10.744  0.3010 -0.1930 -0.3906
15539TIP3    H168108   4.049   1.695  10.696  0.8669 -0.7467 -0.6351
15539TIP3    H268109   4.053   1.547  10.728  0.7732 -0.3072  1.4971
15540TIP3   OH268110   0.084   5.901   1.485  0.3686 -0.1482 -0.0998
15540TIP3    H168111   0.110   5.897   1.577 -3.8413 -3.1501  1.2386
15540TIP3    H268112   0.105   5.814   1.450  1.2104  0.7025 -1.8354
15541TIP3   OH268113   5.904   0.363   3.894 -0.1668 -0.7961  0.1854
15541TIP3    H168114   5.868   0.278   3.869  0.9977 -1.1662 -0.2913
15541TIP3    H268115   5.881   0.372   3.987  1.1860 -2.4642  0.7411
15542TIP3   OH268116   2.022   6.116   3.946 -0.6812 -0.2047 -0.3256
15542TIP3    H168117   1.959   6.127   4.017  0.1986 -2.4450  0.9253
15542TIP3    H268118   1.983   6.048   3.891 -1.3503  1.5032 -2.0677
15543TIP3   OH268119   0.318   1.934   0.389 -0.5264  0.1201  0.3713
15543TIP3    H168120   0.273   1.964   0.468 -2.1500 -0.7888 -0.1565
15543TIP3    H268121   0.254   1.877   0.345  1.0859 -1.0957 -0.5196
15544TIP3   OH268122   2.355   6.636   1.979  0.1214 -0.3449  0.4441
15544TIP3    H168123   2.320   6.597   2.058  0.9900  0.2513  1.1511
15544TIP3    H268124   2.388   6.562   1.927 -0.9491 -0.7832  0.3673
15545TIP3   OH268125   1.704   3.166   1.190 -0.2686  0.3125 -0.2795
15545TIP3    H168126   1.772   3.126   1.136 -0.9387  0.6813 -1.4304
15545TIP3    H268127   1.627   3.110   1.176 -0.1502 -0.2903  1.2556
15546TIP3   OH268128   0.548   2.336   0.274  0.2016  0.0822  0.0832
15546TIP3    H168129   0.530   2.291   0.356 -0.9411  0.3776  0.0098
15546TIP3    H268130   0.496   2.417   0.279 -0.2268 -0.0978 -1.1084
15547TIP3   OH268131   2.614   3.600   4.104  0.1800 -0.6147 -0.1013
15547TIP3    H168132   2.562   3.637   4.175 -0.4520 -1.1364 -0.2887
15547TIP3    H268133   2.699   3.644   4.112  0.0001 -0.3942  0.7403
15548TIP3   OH268134   6.501   0.260   1.479  0.6047  0.0190  0.1217
15548TIP3    H168135   6.498   0.286   1.387  1.5563 -0.1654  0.0296
15548TIP3    H268136   6.594   0.259   1.501  0.3542  1.7460  1.5700
15549TIP3   OH268137   4.715   1.157   4.211 -0.0003 -0.2598 -0.4067
15549TIP3    H168138   4.667   1.223   4.161  1.1652  0.7502 -0.2375
15549TIP3    H268139   4.646   1.105   4.254 -0.9518  0.8811 -0.4862
15550TIP3   OH268140   3.550   1.102   1.465  0.1683 -0.3999 -0.6056
15550TIP3    H168141   3.514   1.154   1.536  0.7633 -1.9658  0.9038
15550TIP3    H268142   3.586   1.166   1.404 -0.8247  0.9964  0.2238
15551TIP3   OH268143   3.466   2.117   0.406  0.2638  0.1711  0.4214
15551TIP3    H168144   3.383   2.163   0.422  0.4237  0.7168 -0.3242
15551TIP3    H268145   3.532   2.171   0.448  0.5821  1.1795 -1.3278
15552TIP3   OH268146   0.501   5.568  14.657 -0.1111  0.1581 -0.0035
15552TIP3    H168147   0.446   5.586  14.733  1.2523 -0.4366  1.1792
15552TIP3    H268148   0.576   5.521  14.693  1.8842  2.1375 -1.2922
15553TIP3   OH268149   4.843   2.093   2.136  0.3813  0.3004  0.2792
15553TIP3    H168150   4.846   2.104   2.231  1.1248  1.0069  0.1853
15553TIP3    H268151   4.845   2.182   2.101 -0.7409  0.0897 -0.3950
15554TIP3   OH268152   5.665   3.045  13.695 -0.1466  0.1634  0.6065
15554TIP3    H168153   5.572   3.022  13.699  0.0377 -0.5547  0.9456
15554TIP3    H268154   5.666   3.137  13.666 -0.9355  0.0147  0.0882
15555TIP3   OH268155   5.141   1.143   2.486  1.0801 -0.1484 -0.1990
15555TIP3    H168156   5.194   1.174   2.560  2.1495  0.2926 -1.1096
15555TIP3    H268157   5.090   1.219   2.460 -1.2761 -0.9609  1.6400
15556TIP3   OH268158   3.470   6.893   4.941 -0.0693  0.1841  0.0141
15556TIP3    H168159   3.390   6.855   4.979 -0.6787  1.2783 -0.1212
15556TIP3    H268160   3.529   6.903   5.015 -0.1396 -0.4363  0.1561
15557TIP3   OH268161   2.269   1.502   4.426 -0.5770 -0.3237 -0.2892
15557TIP3    H168162   2.263   1.456   4.510 -1.6021 -1.5538 -0.9964
15557TIP3    H268163   2.184   1.547   4.417 -1.4358 -2.0826 -1.6626
15558TIP3   OH268164   6.371   2.657   5.584  0.7439 -0.2585 -0.2550
15558TIP3    H168165   6.304   2.655   5.515  1.4345 -0.3991 -0.9280
15558TIP3    H268166   6.372   2.568   5.619  1.4609 -0.6084 -1.1165
15559TIP3   OH268167   0.569   4.799  11.123 -0.2345  0.7430 -0.1512
15559TIP3    H168168   0.626   4.724  11.141 -0.5241  1.0016  2.2537
15559TIP3    H268169   0.599   4.833  11.039  0.6310 -1.3869 -0.7735
15560TIP3   OH268170   6.120   0.699   1.501  0.0778 -0.5319 -0.1035
15560TIP3    H168171   6.101   0.663   1.415  1.8767 -1.8154 -0.0060
15560TIP3    H268172   6.074   0.783   1.503 -1.2957 -1.2001 -1.6866
15561TIP3   OH268173   5.543   5.386   0.102 -0.2055 -0.2762 -0.0604
15561TIP3    H168174   5.603   5.424   0.039  1.6665 -0.0423  1.7636
15561TIP3    H268175   5.486   5.329   0.050  1.1287  0.0300 -1.9421
15562TIP3   OH268176   4.175   3.302  14.070  0.0522  0.4818  0.3164
15562TIP3    H168177   4.260   3.268  14.097  1.0905  2.6493 -0.0162
15562TIP3    H268178   4.181   3.309  13.975 -0.8710 -0.2498  0.1943
15563TIP3   OH268179   4.168   2.435  14.547 -0.0015 -0.2503  0.0216
15563TIP3    H168180   4.201   2.512  14.500 -1.3689  2.0216  2.4760
15563TIP3    H268181   4.119   2.472  14.621 -0.0792 -3.5300  1.7838
15564TIP3   OH268182   3.609   6.396   5.613 -0.0082  0.1372 -0.3479
15564TIP3    H168183   3.606   6.488   5.588  1.0535 -0.0498 -1.2085
15564TIP3    H268184   3.695   6.385   5.652  0.1067 -0.6298 -0.8023
15565TIP3   OH268185   0.957   5.906   5.502 -0.2191 -0.0172  0.1053
15565TIP3    H168186   0.877   5.926   5.551 -0.1554 -0.6332  0.4694
15565TIP3    H268187   0.982   5.819   5.532  0.2685 -0.0672 -0.4398
15566TIP3   OH268188   5.328   1.722  12.646  0.0998  0.0045  0.2978
15566TIP3    H168189   5.336   1.720  12.741 -0.9221  1.6816  0.4607
15566TIP3    H268190   5.398   1.781  12.618 -0.9200  1.2445  0.2438
15567TIP3   OH268191   7.005   3.142   4.947 -0.0461 -0.2475 -0.3805
15567TIP3    H168192   6.987   3.049   4.958 -1.3497  0.0518  0.1691
15567TIP3    H268193   7.095   3.145   4.913 -0.2668 -1.7321 -1.1830
15568TIP3   OH268194   1.930   5.062   2.610  0.0926  0.0700  0.2943
15568TIP3    H168195   1.945   5.025   2.697 -0.2448 -1.8707 -0.4131
15568TIP3    H268196   2.005   5.120   2.595  0.0546  0.5901  1.9257
15569TIP3   OH268197   0.022   6.776   3.470 -0.2800 -0.0283  0.1753
15569TIP3    H168198   0.016   6.868   3.443  0.1876 -0.6579 -2.3324
15569TIP3    H268199  -0.068   6.744   3.463 -0.3326  0.0719  0.3894
15570TIP3   OH268200   0.887   2.087   2.775  0.1286 -0.2000  0.3002
15570TIP3    H168201   0.910   2.053   2.862 -0.0316  1.0472  0.8570
15570TIP3    H268202   0.972   2.103   2.732  0.3172  1.4952  1.1909
15571TIP3   OH268203   6.323   7.015  11.042  0.1886 -0.0333  0.2829
15571TIP3    H168204   6.237   6.979  11.018  0.2328 -1.1862  1.7399
15571TIP3    H268205   6.384   6.944  11.025  0.4218 -0.3319  2.2083
15572TIP3   OH268206   2.129   6.636   4.823 -0.3631  0.5221 -0.0082
15572TIP3    H168207   2.054   6.663   4.770 -1.9383 -1.8966  0.7897
15572TIP3    H268208   2.193   6.603   4.761 -1.6806 -1.1384 -0.5486
15573TIP3   OH268209   1.851   3.982  13.990  0.5020  0.5060 -0.6570
15573TIP3    H168210   1.940   3.972  14.022  0.4667  0.8117 -0.4650
15573TIP3    H268211   1.842   4.075  13.970  0.3674  0.4006 -1.0939
15574TIP3   OH268212   1.973   3.729   1.771  0.0276  0.1095 -0.6459
15574TIP3    H168213   2.004   3.815   1.799  0.0587 -0.5022  1.3821
15574TIP3    H268214   2.021   3.667   1.826 -1.5021 -1.0851 -0.5705
15575TIP3   OH268215   3.136   0.234   0.352 -0.0877  0.3125 -0.0136
15575TIP3    H168216   3.103   0.147   0.329 -0.9188  0.5789  0.1763
15575TIP3    H268217   3.108   0.248   0.442  1.3206  0.1759  0.4817
15576TIP3   OH268218   4.143   4.913  15.274 -0.2644 -0.3131 -0.1050
15576TIP3    H168219   4.092   4.993  15.262  1.2563  0.4677 -1.9178
15576TIP3    H268220   4.081   4.851  15.312 -2.4081  0.7479 -1.6175
15577TIP3   OH268221   4.560   2.555   4.163 -0.2159  0.3695 -0.3821
15577TIP3    H168222   4.635   2.601   4.126 -0.6278  1.4343  0.0705
15577TIP3    H268223   4.557   2.472   4.115  0.5330  0.8116 -1.2324
15578TIP3   OH268224   4.320   4.021   4.136  0.6616  0.1271 -0.1968
15578TIP3    H168225   4.363   4.091   4.186 -0.1346 -1.2642  2.6562
15578TIP3    H268226   4.244   4.064   4.097 -1.4139  0.5428  3.7445
15579TIP3   OH268227   0.672   3.919   0.794  0.0584 -0.5078 -0.4294
15579TIP3    H168228   0.720   3.993   0.759  3.8819 -1.0611  2.8882
15579TIP3    H268229   0.623   3.956   0.868  0.6280 -0.9983  0.1986
15580TIP3   OH268230   0.376   4.852   3.368  0.4610  0.6929 -0.2238
15580TIP3    H168231   0.313   4.921   3.385  1.1029  1.5572 -1.2213
15580TIP3    H268232   0.439   4.858   3.440 -0.0876  0.4230  0.2804
15581TIP3   OH268233   6.719   3.332   1.898 -0.1145 -0.3630  0.3858
15581TIP3    H168234   6.685   3.282   1.824 -0.8687 -0.8405  1.0397
15581TIP3    H268235   6.807   3.359   1.871 -0.6223  0.0519 -0.9524
15582TIP3   OH268236   2.630   2.082   4.116  0.0490 -0.2134 -0.0398
15582TIP3    H168237   2.713   2.121   4.144 -0.6142  1.0676  0.2224
15582TIP3    H268238   2.655   2.013   4.054  1.2026  1.9294 -2.0834
15583TIP3   OH268239   1.917   0.503   3.893  0.1869 -0.1341 -0.6714
15583TIP3    H168240   1.991   0.559   3.918  0.1341  0.0782 -0.9845
15583TIP3    H268241   1.880   0.546   3.816 -0.4983 -0.0273 -0.2885
15584TIP3   OH268242   3.644   1.599  12.099  0.1128 -0.4433 -0.5133
15584TIP3    H168243   3.598   1.677  12.067  0.4826 -0.1346 -0.2983
15584TIP3    H268244   3.607   1.527  12.047 -3.8683 -0.9702  2.5791
15585TIP3   OH268245   5.261   4.918  12.845  0.2856  0.1287  0.0083
15585TIP3    H168246   5.312   4.970  12.907 -0.0729 -0.8704  1.1844
15585TIP3    H268247   5.195   4.979  12.811  0.6288  0.7484  0.4289
15586TIP3   OH268248   4.654   2.527   5.428  0.2281  0.0127  0.5886
15586TIP3    H168249   4.627   2.508   5.339  0.5145 -0.4973  0.6049
15586TIP3    H268250   4.650   2.442   5.473  0.9224  0.0996  0.8331
15587TIP3   OH268251   5.992   4.176  14.861  0.2966  0.1949 -0.0892
15587TIP3    H168252   5.981   4.137  14.775  2.0800 -0.4323 -0.0671
15587TIP3    H268253   5.920   4.240  14.868 -0.3394 -0.3033 -1.6934
15588TIP3   OH268254   7.012   0.399  11.783 -0.1403 -0.2554 -0.0639
15588TIP3    H168255   7.061   0.372  11.706  0.0429  0.0627 -0.0609
15588TIP3    H268256   7.066   0.370  11.857  0.3513  0.6423 -0.0616
15589TIP3   OH268257   2.713   0.395  12.971 -0.1136 -0.2577 -0.0110
15589TIP3    H168258   2.789   0.451  12.990  0.6998 -1.5749  0.7465
15589TIP3    H268259   2.642   0.433  13.021  0.0554  0.9404 -0.6479
15590TIP3   OH268260   1.695   1.036   1.307  0.5599 -0.1479  0.6218
15590TIP3    H168261   1.641   1.100   1.354 -0.1660  0.1672 -0.5800
15590TIP3    H268262   1.766   1.088   1.269 -0.1959  0.0522 -0.6087
15591TIP3   OH268263   5.171   1.016   2.809  0.4357  0.1712 -0.5339
15591TIP3    H168264   5.218   1.087   2.765  0.5692 -0.9932 -2.3954
15591TIP3    H268265   5.099   0.995   2.749 -2.5294  1.8082  2.1438
15592TIP3   OH268266   2.825   5.640  10.701 -0.1903 -0.2148 -0.3426
15592TIP3    H168267   2.812   5.583  10.777  0.3447 -1.0616 -0.8876
15592TIP3    H268268   2.829   5.581  10.626  1.4094  0.4402 -0.8060
15593TIP3   OH268269   6.441   3.725  14.430 -0.1171 -0.7128  0.5595
15593TIP3    H168270   6.425   3.631  14.436  1.6220 -0.9620  1.7168
15593TIP3    H268271   6.460   3.740  14.337 -2.2823 -1.1360 -0.0077
15594TIP3   OH268272   4.648   6.368  11.546 -0.3494 -1.0311 -0.1142
15594TIP3    H168273   4.708   6.393  11.476 -1.4461 -0.7831 -0.9974
15594TIP3    H268274   4.562   6.365  11.504 -1.0020 -1.1085  1.1723
15595TIP3   OH268275   5.827   0.634   5.394 -0.0057  0.3321 -0.2607
15595TIP3    H168276   5.915   0.655   5.362 -0.0464  0.6637 -0.1585
15595TIP3    H268277   5.770   0.696   5.350  0.2709  3.0242  2.7666
15596TIP3   OH268278   4.966   2.843   4.372  0.2594  0.5009  0.1379
15596TIP3    H168279   5.026   2.855   4.445 -1.5559 -0.6135  1.9383
15596TIP3    H268280   5.004   2.771   4.321 -0.0512 -0.9883  1.8990
15597TIP3   OH268281   7.154   5.181  12.900 -0.6710 -0.9422 -0.1772
15597TIP3    H168282   7.180   5.134  12.979 -1.9405 -0.1482  0.7427
15597TIP3    H268283   7.059   5.190  12.908 -1.0046 -1.8994 -2.3945
15598TIP3   OH268284   4.415   2.697   3.835  0.2488  0.4369  0.0111
15598TIP3    H168285   4.508   2.696   3.812  0.2098  0.4027 -0.1490
15598TIP3    H268286   4.396   2.788   3.855  0.3551  0.4169  0.2026
15599TIP3   OH268287   2.613   3.245  12.999  0.0969  0.1930 -0.3804
15599TIP3    H168288   2.634   3.185  13.071  3.0711  0.3836 -0.9640
15599TIP3    H268289   2.553   3.308  13.038  1.8137  0.4624  2.1057
15600TIP3   OH268290   1.340   2.506  13.288 -0.0718 -0.1714  0.5692
15600TIP3    H168291   1.352   2.475  13.378  0.8946  1.4605  1.0468
15600TIP3    H268292   1.402   2.579  13.279 -0.9701  0.4559 -1.0403
15601TIP3   OH268293   4.672   5.265   2.726  0.4113  0.3738  0.1508
15601TIP3    H168294   4.751   5.217   2.749  0.8643  1.2506  0.4738
15601TIP3    H268295   4.698   5.357   2.730 -0.8357  0.7079  1.0439
15602TIP3   OH268296   5.597   2.968   0.720 -0.1367 -0.1716 -0.6305
15602TIP3    H168297   5.591   2.970   0.816  0.1572 -0.7071 -0.5959
15602TIP3    H268298   5.529   2.905   0.694  1.2333 -1.7267 -0.6186
15603TIP3   OH268299   5.655   0.113   2.938  0.2061 -0.5125 -0.2079
15603TIP3    H168300   5.730   0.053   2.945  1.8667  1.6349  2.6575
15603TIP3    H268301   5.690   0.197   2.968 -2.8501  1.1362 -0.9349
15604TIP3   OH268302   3.737   4.061   5.619 -0.7793  0.4444 -0.5200
15604TIP3    H168303   3.817   4.021   5.584 -1.3808 -1.8351  0.5473
15604TIP3    H268304   3.757   4.079   5.710 -1.0954  0.9794 -0.5572
15605TIP3   OH268305   0.677   4.801  15.002 -0.0128  0.0656 -0.6741
15605TIP3    H168306   0.615   4.833  14.936 -0.5187  1.2885  0.3635
15605TIP3    H268307   0.763   4.820  14.964 -0.1975 -1.7208 -2.1629
15606TIP3   OH268308   3.703   6.766  11.776  0.3001 -0.2700 -0.0722
15606TIP3    H168309   3.724   6.762  11.682  1.7053  0.3557  0.2016
15606TIP3    H268310   3.785   6.790  11.818 -1.0399  2.8059  1.0063
15607TIP3   OH268311   3.677   0.077   1.681 -0.6361 -0.1102  0.0754
15607TIP3    H168312   3.703  -0.010   1.651  1.0400  0.5047 -0.3448
15607TIP3    H268313   3.599   0.061   1.735  0.5762 -2.0925  1.3938
15608TIP3   OH268314   4.437   0.813  15.166  0.1354  0.3122  0.3665
15608TIP3    H168315   4.423   0.724  15.134 -0.2156  0.6925 -0.6037
15608TIP3    H268316   4.455   0.864  15.087  0.0326  1.1555  0.8703
15609TIP3   OH268317   2.242   3.477  14.537 -0.4237  0.0475  0.4326
15609TIP3    H168318   2.182   3.425  14.591  0.0996 -0.2751  0.7110
15609TIP3    H268319   2.233   3.566  14.571 -0.8691  0.0346  0.3593
15610TIP3   OH268320   3.561   2.001   0.930 -0.2450 -0.5484 -0.3224
15610TIP3    H168321   3.629   2.056   0.969 -0.4767 -0.5315  0.0647
15610TIP3    H268322   3.535   1.942   1.000  1.0518 -2.1768 -1.1510
15611TIP3   OH268323   5.326   0.618   0.145  0.4133  0.4151  0.1742
15611TIP3    H168324   5.393   0.552   0.163 -0.6916 -0.7577  0.0986
15611TIP3    H268325   5.262   0.608   0.216  0.0142  1.1163 -0.0766
15612TIP3   OH268326   1.251   6.117   4.207  0.6708 -0.3775 -0.1758
15612TIP3    H168327   1.331   6.124   4.259  0.2274  2.2621  0.2660
15612TIP3    H268328   1.184   6.090   4.269  0.6708  0.1757  0.0706
15613TIP3   OH268329   2.406   2.202   3.805 -0.5592  0.9022  0.3716
15613TIP3    H168330   2.323   2.221   3.848  1.4868  3.3640  3.7575
15613TIP3    H268331   2.427   2.112   3.830 -1.3245  0.9234  1.1149
15614TIP3   OH268332   2.604   2.053   3.298  0.2934  0.6857 -0.0807
15614TIP3    H168333   2.680   2.107   3.321  2.0451 -1.6734  0.0175
15614TIP3    H268334   2.618   2.030   3.206  0.7015 -1.2160  0.4216
15615TIP3   OH268335   4.557   2.186   2.047 -0.1974 -0.1345  0.2776
15615TIP3    H168336   4.573   2.247   1.975 -0.0016  1.0223  1.2835
15615TIP3    H268337   4.465   2.162   2.037 -1.2666  2.8913  1.7386
15616TIP3   OH268338   4.143   3.545   5.595  0.1775 -0.4055  0.7452
15616TIP3    H168339   4.173   3.454   5.591 -1.2278 -0.8911  0.5993
15616TIP3    H268340   4.065   3.547   5.539  0.9694  1.2241 -0.3682
15617TIP3   OH268341   5.860   3.529  10.506 -0.1996  0.2301  0.1469
15617TIP3    H168342   5.930   3.496  10.450 -0.3944  0.9311 -0.5241
15617TIP3    H268343   5.905   3.562  10.584 -0.1259 -3.6628  2.0093
15618TIP3   OH268344   1.691   0.257  12.225  0.3236 -0.2092 -0.5745
15618TIP3    H168345   1.624   0.326  12.221 -0.5052 -1.0257 -1.3927
15618TIP3    H268346   1.754   0.289  12.289 -0.3745  1.0125 -0.4558
15619TIP3   OH268347   4.152   3.838   3.068 -0.1522  0.3195 -0.3798
15619TIP3    H168348   4.076   3.879   3.028 -0.6265 -0.6835 -0.5197
15619TIP3    H268349   4.124   3.818   3.158 -0.1849 -0.3863 -0.5432
15620TIP3   OH268350   4.571   3.276   5.456 -0.2125 -0.1467 -0.2935
15620TIP3    H168351   4.502   3.217   5.428 -0.9463  0.4001  0.3083
15620TIP3    H268352   4.570   3.347   5.392 -0.6061  0.1469  0.0301
15621TIP3   OH268353   0.692   7.062   3.714 -0.9964 -0.0310  0.8071
15621TIP3    H168354   0.635   7.065   3.637 -1.1744 -1.2804  0.8710
15621TIP3    H268355   0.726   6.973   3.715 -0.1229  0.2946  1.5641
15622TIP3   OH268356   1.549   4.054  13.387  0.1365 -0.5600 -0.0513
15622TIP3    H168357   1.522   4.120  13.451  1.6670 -0.7798  0.8598
15622TIP3    H268358   1.484   3.984  13.397 -0.1728 -0.1960  0.6124
15623TIP3   OH268359   2.526   5.847   3.057  0.0059 -0.5356  0.0999
15623TIP3    H168360   2.586   5.854   2.982 -0.4084 -1.9501 -0.4076
15623TIP3    H268361   2.502   5.937   3.076  0.8094 -0.0727 -0.9090
15624TIP3   OH268362   0.283   2.828   4.898 -0.0504  0.3921  0.3095
15624TIP3    H168363   0.335   2.748   4.903  0.0890  0.4676  0.0643
15624TIP3    H268364   0.278   2.858   4.989  1.3411  1.0241  0.2152
15625TIP3   OH268365   4.237   6.671   4.440  0.1090  0.3344  0.4101
15625TIP3    H168366   4.176   6.661   4.514 -0.9396  1.4401 -0.2762
15625TIP3    H268367   4.266   6.762   4.445 -0.7340  0.7226 -1.0787
15626TIP3   OH268368   5.810   3.612   2.113 -0.5711  0.3884  0.3766
15626TIP3    H168369   5.860   3.693   2.108 -0.2108  0.2147  1.0242
15626TIP3    H268370   5.840   3.570   2.194  0.5267 -1.2138 -0.7795
15627TIP3   OH268371   3.341   4.187   2.467 -0.0051 -0.6874 -0.1667
15627TIP3    H168372   3.436   4.179   2.474  0.1080  0.4012 -0.3521
15627TIP3    H268373   3.321   4.165   2.376  0.0866 -0.7915 -0.1615
15628TIP3   OH268374   5.082   2.301  13.267 -0.2931 -0.2691  0.2529
15628TIP3    H168375   5.063   2.255  13.348 -2.8902  0.9180  0.4254
15628TIP3    H268376   5.058   2.392  13.285  0.1616  0.2384 -1.4983
15629TIP3   OH268377   4.094   3.593  13.986 -0.2702 -0.0789  0.3918
15629TIP3    H168378   4.057   3.675  14.019  0.3288  1.1109 -1.7141
15629TIP3    H268379   4.157   3.620  13.920  1.4190 -2.2031  1.0238
15630TIP3   OH268380   1.845   3.877   2.685  0.1419 -0.0315 -0.5137
15630TIP3    H168381   1.859   3.785   2.660  1.5112 -0.8986  2.8822
15630TIP3    H268382   1.768   3.875   2.741  1.6843  0.3049  1.7694
15631TIP3   OH268383   2.370   1.224   2.121 -0.1208 -0.4429 -0.5774
15631TIP3    H168384   2.427   1.150   2.146  1.2612  1.0024  0.8089
15631TIP3    H268385   2.289   1.209   2.169 -0.7897 -2.2511 -2.1460
15632TIP3   OH268386   5.746   0.472  14.889 -0.6762 -0.0057  0.0941
15632TIP3    H168387   5.728   0.564  14.867 -0.8229  0.0418  0.4161
15632TIP3    H268388   5.723   0.424  14.809  0.9245  0.3962 -0.6352
15633TIP3   OH268389   5.050   6.849   3.566 -0.8429  0.3354  0.0246
15633TIP3    H168390   5.061   6.918   3.501  0.1249 -1.0305 -1.3392
15633TIP3    H268391   5.002   6.780   3.520 -2.0629  0.1738  1.4385
15634TIP3   OH268392   7.102   1.040  15.428 -0.5256  0.7318  0.4819
15634TIP3    H168393   7.049   1.012  15.354  0.9008 -0.5517 -0.1077
15634TIP3    H268394   7.161   1.107  15.393 -1.2397  1.6473  0.9736
15635TIP3   OH268395   1.227   0.604   2.691  0.1472  0.3493 -0.0191
15635TIP3    H168396   1.200   0.686   2.651 -1.4975 -0.4540 -0.6316
15635TIP3    H268397   1.240   0.544   2.617 -1.5134 -0.7455  0.5243
15636TIP3   OH268398   2.204   4.130  13.752  0.1169  0.3764  0.5213
15636TIP3    H168399   2.137   4.193  13.779  0.9591  0.6216  2.2275
15636TIP3    H268400   2.190   4.119  13.658 -1.6388  1.1953  0.6374
15637TIP3   OH268401   2.036   3.409   2.556 -0.2205 -0.0809 -0.1180
15637TIP3    H168402   2.086   3.334   2.523 -0.1632 -0.2985  0.4572
15637TIP3    H268403   2.098   3.456   2.612 -0.3131  0.3010 -0.3312
15638TIP3   OH268404   2.296   6.822   3.438 -0.2677 -0.7452 -0.4913
15638TIP3    H168405   2.207   6.807   3.406 -0.8259  0.4843  0.3979
15638TIP3    H268406   2.288   6.896   3.498  1.0227 -1.8229  1.1218
15639TIP3   OH268407   6.477   2.354   5.397  0.0322 -0.3370 -0.0161
15639TIP3    H168408   6.421   2.329   5.323  0.8114 -0.3194 -0.6405
15639TIP3    H268409   6.421   2.348   5.474 -0.4439 -1.7021 -0.4435
15640TIP3   OH268410   0.860   4.419  14.615 -0.0503 -0.0329  0.3778
15640TIP3    H168411   0.911   4.467  14.550  0.9040 -0.2199  0.9779
15640TIP3    H268412   0.799   4.367  14.563 -0.1753  0.7878 -0.3253
15641TIP3   OH268413   2.236   6.490  14.229 -0.3311  0.0816  0.1397
15641TIP3    H168414   2.193   6.405  14.229 -1.9273  0.8401  1.2859
15641TIP3    H268415   2.329   6.470  14.227 -0.6570 -1.6099 -2.7161
15642TIP3   OH268416   0.884   5.671   3.385 -0.1892 -0.0846  0.1377
15642TIP3    H168417   0.958   5.659   3.326 -0.5672  3.3004 -1.2354
15642TIP3    H268418   0.921   5.712   3.463 -0.2628 -1.0411  0.6995
15643TIP3   OH268419   4.879   1.935   1.203  0.4117 -0.4830 -0.3431
15643TIP3    H168420   4.906   1.975   1.120  0.4896  1.1439  0.4337
15643TIP3    H268421   4.789   1.964   1.215 -1.4486 -4.6675 -2.1845
15644TIP3   OH268422   3.599   2.477   0.457 -0.1452  0.2441  0.4018
15644TIP3    H168423   3.512   2.485   0.417  0.5312 -0.3005 -1.2536
15644TIP3    H268424   3.585   2.504   0.548 -2.0846 -0.0213  0.2414
15645TIP3   OH268425   3.664   4.868   5.021 -0.4490 -0.0351  0.3984
15645TIP3    H168426   3.719   4.820   4.959 -0.7422  0.2249 -0.0639
15645TIP3    H268427   3.574   4.845   4.997 -0.5740  0.3193  0.5240
15646TIP3   OH268428   2.582   5.969  14.320 -0.2966  0.1340 -0.4725
15646TIP3    H168429   2.603   5.886  14.276  0.0238 -0.4663  0.7707
15646TIP3    H268430   2.531   5.943  14.396 -0.1232  1.0851 -0.0194
15647TIP3   OH268431   6.436   1.861  12.091  0.5799 -0.6749 -0.3456
15647TIP3    H168432   6.344   1.838  12.080  0.8769 -1.8366 -0.4712
15647TIP3    H268433   6.434   1.949  12.129 -0.5950 -1.0691  0.5816
15648TIP3   OH268434   3.677   3.674   5.056 -0.2173 -0.2220 -0.7227
15648TIP3    H168435   3.582   3.670   5.065 -0.1658  1.6890  4.3881
15648TIP3    H268436   3.708   3.590   5.089 -0.0827 -0.6178 -1.8263
15649TIP3   OH268437   4.298   2.063  14.342 -0.0904 -0.5260 -0.2325
15649TIP3    H168438   4.318   2.035  14.253 -0.2974 -0.4403 -0.3085
15649TIP3    H268439   4.383   2.071  14.386 -0.0804 -2.8436  0.2803
15650TIP3   OH268440   2.460   2.933  13.758 -0.4906 -0.3331 -0.2067
15650TIP3    H168441   2.471   2.890  13.843 -3.0884  0.0113  0.3943
15650TIP3    H268442   2.477   3.026  13.777  0.9278 -0.4993 -0.5572
15651TIP3   OH268443   1.159   1.062   2.186  0.1155 -0.2610  0.7620
15651TIP3    H168444   1.249   1.058   2.219 -0.2110  1.7070  2.0461
15651TIP3    H268445   1.126   0.972   2.196  0.8473 -0.3052  3.5559
15652TIP3   OH268446   0.744   4.451   0.998  0.0250 -0.0445 -0.1336
15652TIP3    H168447   0.714   4.382   1.057  0.1374  0.2508  0.2692
15652TIP3    H268448   0.727   4.416   0.910 -1.3641  0.0512  0.0711
15653TIP3   OH268449   5.078   2.822   1.755 -0.9373  0.2477  0.2888
15653TIP3    H168450   5.039   2.757   1.696 -1.5005  0.0756  0.8376
15653TIP3    H268451   5.116   2.769   1.826 -1.2800  0.5139  0.6688
15654TIP3   OH268452   0.677   6.084   1.479 -0.2428  0.1239  0.1075
15654TIP3    H168453   0.595   6.067   1.525 -1.0529  1.8154 -0.6500
15654TIP3    H268454   0.711   6.163   1.521  0.2501  0.2792 -0.5816
15655TIP3   OH268455   2.783   3.083  13.872  0.5387  0.0983 -0.7439
15655TIP3    H168456   2.828   3.163  13.900  1.2041 -0.8541  1.0817
15655TIP3    H268457   2.731   3.056  13.947 -0.2304 -0.8273 -1.5623
15656TIP3   OH268458   4.268   5.510   0.932  0.4266 -0.2431  0.1732
15656TIP3    H168459   4.209   5.578   0.965 -0.8781 -1.0118 -0.4745
15656TIP3    H268460   4.322   5.486   1.007 -0.1310  0.4529  0.8131
15657TIP3   OH268461   5.075   1.706  10.714  0.2817 -0.0138 -0.4413
15657TIP3    H168462   5.151   1.667  10.671  0.4318  0.0923 -0.2744
15657TIP3    H268463   5.055   1.647  10.786  2.1273  1.5239  1.4381
15658TIP3   OH268464   0.776   4.258  13.520  0.4906 -0.0117 -0.1878
15658TIP3    H168465   0.712   4.196  13.556  1.2073 -1.8609 -1.9149
15658TIP3    H268466   0.853   4.249  13.577  1.0026 -1.6184 -1.0931
15659TIP3   OH268467   1.994   5.022   2.912  0.3027  0.2387  0.2699
15659TIP3    H168468   1.995   5.025   3.008  0.3191 -2.4839  0.4174
15659TIP3    H268469   2.080   4.989   2.887 -0.2711 -0.7191 -0.5490
15660TIP3   OH268470   0.484   3.531  11.656 -0.3490 -0.4942 -0.8175
15660TIP3    H168471   0.570   3.557  11.622 -1.5860  1.3686 -2.7716
15660TIP3    H268472   0.469   3.588  11.731 -0.1976 -0.2802 -0.9491
15661TIP3   OH268473   4.779   1.875  12.209 -0.2826  0.1150  0.3151
15661TIP3    H168474   4.812   1.818  12.279 -0.8307 -0.9908 -0.2893
15661TIP3    H268475   4.695   1.835  12.184 -0.2382  0.6720 -0.7568
15662TIP3   OH268476   2.221   3.063   5.177  0.3801 -0.1868  0.0366
15662TIP3    H168477   2.242   3.108   5.259  0.1783  2.1531 -1.0977
15662TIP3    H268478   2.253   2.974   5.189  1.9001  0.5542  2.0038
15663TIP3   OH268479   7.017   2.041   5.080 -0.1115  0.0710 -0.5349
15663TIP3    H168480   7.077   1.986   5.131  0.3183  1.2011  0.2237
15663TIP3    H268481   6.973   2.095   5.145 -0.3632  0.7747 -1.2733
15664TIP3   OH268482   4.110   4.612   6.067  0.1081 -0.4184 -0.0873
15664TIP3    H168483   4.069   4.674   6.128  0.9363 -1.1086  1.2122
15664TIP3    H268484   4.056   4.534   6.073  0.0634 -0.4141 -0.4173
15665TIP3   OH268485   1.887   2.665   4.766 -0.6303  0.1998  0.1517
15665TIP3    H168486   1.911   2.576   4.794 -1.6052 -0.5209 -1.2029
15665TIP3    H268487   1.797   2.657   4.737 -0.5124  1.5001 -0.6203
15666TIP3   OH268488   6.621   1.271   4.736 -0.6007  0.1574 -0.3468
15666TIP3    H168489   6.579   1.207   4.794 -0.5750  0.2078 -0.2714
15666TIP3    H268490   6.557   1.286   4.667 -0.6491  0.1278 -0.3084
15667TIP3   OH268491   2.723   2.182   5.285 -0.5293 -0.1504 -0.0603
15667TIP3    H168492   2.681   2.214   5.205  0.3924  1.3144  0.0106
15667TIP3    H268493   2.813   2.213   5.280 -0.2555 -0.6369  1.2252
15668TIP3   OH268494   2.205   3.829   4.436  0.5024 -0.1458  0.1965
15668TIP3    H168495   2.259   3.756   4.405  0.8040 -0.6940  1.8639
15668TIP3    H268496   2.260   3.907   4.423  1.4389 -0.6099  1.2058
15669TIP3   OH268497   7.127   2.894  14.633 -0.0978 -0.1858 -0.3497
15669TIP3    H168498   7.068   2.970  14.628  0.8423  0.5774 -0.2106
15669TIP3    H268499   7.177   2.897  14.552 -1.3129 -1.7692 -1.2154
15670TIP3   OH268500   2.067   6.195   4.730  0.3089  0.7351 -0.4596
15670TIP3    H168501   2.057   6.138   4.807  0.1322 -1.2558 -1.8795
15670TIP3    H268502   2.007   6.268   4.746 -1.7313 -0.9830  0.1135
15671TIP3   OH268503   1.578   3.400  15.754  0.0083 -0.1869 -0.0788
15671TIP3    H168504   1.613   3.327  15.805 -0.9253  0.2247  1.1970
15671TIP3    H268505   1.533   3.358  15.681  1.0674 -0.8007 -0.4014
15672TIP3   OH268506   4.245   0.561   4.637  0.2709 -0.0889 -0.5956
15672TIP3    H168507   4.174   0.620   4.664 -0.0695  0.0850 -1.7803
15672TIP3    H268508   4.271   0.516   4.717  1.7673  2.9040  0.7660
15673TIP3   OH268509   6.466   2.164   3.492 -0.2419 -0.2223 -0.1553
15673TIP3    H168510   6.421   2.081   3.510 -1.0297  0.5154  1.5029
15673TIP3    H268511   6.559   2.143   3.502 -0.3909 -1.0330 -0.3560
15674TIP3   OH268512   1.612   1.065   0.411  0.6992  0.4247 -0.2479
15674TIP3    H168513   1.621   1.107   0.497 -0.4761 -0.0310  0.1078
15674TIP3    H268514   1.664   0.985   0.419 -1.6143 -1.0543  1.0360
15675TIP3   OH268515   0.440   1.164   5.378  0.9504  0.2428 -0.1680
15675TIP3    H168516   0.490   1.095   5.333  0.1225  0.2280 -1.0922
15675TIP3    H268517   0.468   1.245   5.335  1.3034  0.4022  0.3537
15676TIP3   OH268518   3.383   3.065  14.983 -0.6757 -0.1445 -0.2641
15676TIP3    H168519   3.427   3.059  14.898 -1.5976  0.5059 -0.8192
15676TIP3    H268520   3.424   2.998  15.037 -1.4937 -2.0684 -1.8750
15677TIP3   OH268521   4.290   4.847  14.639  0.1616  0.4934  0.1287
15677TIP3    H168522   4.267   4.755  14.625 -0.6716  1.0068 -2.4384
15677TIP3    H268523   4.241   4.873  14.717 -1.5123 -0.6344 -0.5084
15678TIP3   OH268524   3.172   6.021  14.413 -0.3152  0.7214 -0.3215
15678TIP3    H168525   3.112   5.979  14.475 -0.2713 -0.1283 -0.8322
15678TIP3    H268526   3.134   6.002  14.327  0.5263  0.4318 -0.6392
15679TIP3   OH268527   0.538   3.975   3.046 -0.4347 -0.4737 -0.4313
15679TIP3    H168528   0.455   3.939   3.015 -0.4860  1.4584 -2.8290
15679TIP3    H268529   0.527   4.069   3.041  2.3389 -0.1342 -2.2262
15680TIP3   OH268530   4.471   6.227  12.639 -0.0197  0.0653  0.3727
15680TIP3    H168531   4.542   6.256  12.695 -0.0064 -0.7488  0.7946
15680TIP3    H268532   4.509   6.223  12.551  0.4194 -0.2138  0.5710
15681TIP3   OH268533   5.931   4.248  13.104 -0.1452 -0.5230  0.0360
15681TIP3    H168534   5.856   4.307  13.091  1.1461  1.2798  0.3144
15681TIP3    H268535   5.896   4.176  13.156 -1.6098  0.4576  0.4897
15682TIP3   OH268536   3.371   5.021  11.779  0.6309 -0.3726  0.6038
15682TIP3    H168537   3.307   5.033  11.849  0.4338  0.8729  0.2372
15682TIP3    H268538   3.321   4.982  11.708 -0.3435  2.5336 -0.4698
15683TIP3   OH268539   3.107   2.097   3.052  0.1289 -0.4143  0.2058
15683TIP3    H168540   3.127   2.038   2.980 -0.6397 -0.0125 -0.3524
15683TIP3    H268541   3.180   2.086   3.113  1.3243 -0.0099 -1.0955
15684TIP3   OH268542   4.934   2.948   3.825  0.1437 -0.2735  0.1369
15684TIP3    H168543   4.940   2.863   3.869  2.7344  0.2495  0.9828
15684TIP3    H268544   4.943   3.012   3.896 -0.7917  0.7054 -0.6017
15685TIP3   OH268545   6.863   6.955   4.219 -0.2954 -0.2014 -0.8653
15685TIP3    H168546   6.901   6.923   4.137 -0.5826 -0.1764 -1.0082
15685TIP3    H268547   6.830   6.877   4.262 -3.1807  0.0951 -2.3137
15686TIP3   OH268548   0.153   5.226   0.167 -0.5728 -0.0508 -0.5551
15686TIP3    H168549   0.100   5.162   0.214  3.1717 -1.9323  1.5617
15686TIP3    H268550   0.232   5.178   0.141  1.0630  2.9593 -1.7094
15687TIP3   OH268551   0.775   1.784   5.168 -0.2180  0.1026  0.2134
15687TIP3    H168552   0.830   1.759   5.242 -0.8118 -1.4391  0.1753
15687TIP3    H268553   0.833   1.833   5.110  0.2173  1.4881  1.7435
15688TIP3   OH268554   0.222   6.016   1.273  0.1643  0.3517  0.1124
15688TIP3    H168555   0.191   6.106   1.267 -0.1984  0.3253  1.3336
15688TIP3    H268556   0.187   5.984   1.356  1.0119 -0.6359  0.1091
15689TIP3   OH268557   2.619   6.109  11.955 -0.1608 -0.0506 -0.3237
15689TIP3    H168558   2.699   6.150  11.990 -0.8900  0.7771  0.4121
15689TIP3    H268559   2.606   6.151  11.870  1.2433 -1.5880 -1.3732
15690TIP3   OH268560   1.230   0.967   3.883  0.5668 -0.0653  0.3539
15690TIP3    H168561   1.202   0.897   3.824  1.5591 -1.0266  0.9842
15690TIP3    H268562   1.312   0.936   3.921  1.8649  2.1044 -0.4960
15691TIP3   OH268563   6.537   6.210   4.594  0.6905 -0.3056 -0.2812
15691TIP3    H168564   6.465   6.202   4.655 -0.5270  0.3708 -1.5626
15691TIP3    H268565   6.616   6.209   4.649 -0.3824  1.6141  1.4189
15692TIP3   OH268566   6.988   5.689   5.525  0.0382 -0.4838  0.1646
15692TIP3    H168567   7.052   5.758   5.509  0.4057 -1.4802 -3.8193
15692TIP3    H268568   7.037   5.607   5.514 -1.4411 -1.2810 -0.8938
15693TIP3   OH268569   0.036   5.241   4.327  0.0916  0.7773  0.5170
15693TIP3    H168570   0.110   5.185   4.349 -1.3239 -1.2252  0.4225
15693TIP3    H268571   0.027   5.232   4.232 -0.0947  1.2763  0.4808
15694TIP3   OH268572   5.513   4.400  13.738 -0.5708  0.0943  0.0183
15694TIP3    H168573   5.481   4.343  13.808 -0.2758 -0.1683 -0.0575
15694TIP3    H268574   5.567   4.343  13.683 -1.2151  0.1757 -0.7231
15695TIP3   OH268575   6.343   0.112   0.619 -0.1019  0.1452 -0.4213
15695TIP3    H168576   6.318   0.205   0.622 -0.0899  0.1360  0.1832
15695TIP3    H268577   6.297   0.077   0.543  0.0669  0.6975 -0.7855
15696TIP3   OH268578   4.469   4.627  14.772 -0.0764 -0.0206  0.0584
15696TIP3    H168579   4.374   4.636  14.777  0.0283  1.0464  0.5931
15696TIP3    H268580   4.485   4.574  14.694 -1.1221 -0.5911  0.2167
15697TIP3   OH268581   6.649   6.379   1.451 -0.1702 -0.5094  0.4839
15697TIP3    H168582   6.641   6.421   1.365  1.1460  1.0790  1.0859
15697TIP3    H268583   6.636   6.450   1.513 -0.8583 -1.5990  1.6146
15698TIP3   OH268584   6.764   5.295  14.599  0.5390  0.1455 -0.1532
15698TIP3    H168585   6.704   5.269  14.669 -2.8744  1.7014 -2.2238
15698TIP3    H268586   6.815   5.367  14.638 -0.9127  0.6435  0.9552
15699TIP3   OH268587   6.128   6.681   0.023  0.0241  0.1960  0.9399
15699TIP3    H168588   6.194   6.704  -0.042 -3.3122  1.6604 -2.3352
15699TIP3    H268589   6.123   6.758   0.080 -0.2171  0.9863 -0.1044
15700TIP3   OH268590   4.629   5.486   3.848 -0.0317  0.1219 -0.4309
15700TIP3    H168591   4.630   5.399   3.809  1.2558  0.3629 -1.0042
15700TIP3    H268592   4.680   5.540   3.787  0.2914  0.9738  0.5636
15701TIP3   OH268593   5.342   4.741   4.057  0.2187  0.3483  1.0262
15701TIP3    H168594   5.286   4.819   4.053  0.3428  0.4144  0.4954
15701TIP3    H268595   5.424   4.769   4.017  0.4839  0.1285  1.4220
15702TIP3   OH268596   4.355   5.701   4.589 -0.1516 -0.4999  0.7496
15702TIP3    H168597   4.354   5.745   4.675  0.3986  0.7122  0.1655
15702TIP3    H268598   4.396   5.765   4.531 -0.7853 -1.1938 -0.4860
15703TIP3   OH268599   6.484   6.243   0.642 -0.4748 -0.3056 -0.6196
15703TIP3    H168600   6.404   6.291   0.664  0.0710  0.2203  0.3017
15703TIP3    H268601   6.455   6.152   0.631 -1.3499  0.0350 -1.3135
15704TIP3   OH268602   4.693   1.395  12.612 -1.2024 -0.4592  0.2049
15704TIP3    H168603   4.681   1.433  12.525 -2.9418  2.2396  1.4535
15704TIP3    H268604   4.759   1.451  12.653 -1.5849 -0.6660  1.1222
15705TIP3   OH268605   4.089   5.123   0.825 -0.5487  0.4892  0.3178
15705TIP3    H168606   4.121   5.198   0.775 -0.0405  0.0750  0.0160
15705TIP3    H268607   4.012   5.157   0.871 -1.0445  0.8741 -0.7508
15706TIP3   OH268608   2.033   6.579  15.081 -0.0606  0.0815  0.1686
15706TIP3    H168609   1.957   6.580  15.140 -1.4554  0.9129 -1.5631
15706TIP3    H268610   2.033   6.491  15.044  0.0429 -0.0263  0.4176
15707TIP3   OH268611   0.229   5.355   3.565 -0.4679  0.2711  0.1012
15707TIP3    H168612   0.272   5.271   3.549 -2.2344 -0.3623 -1.7903
15707TIP3    H268613   0.255   5.379   3.654  1.2152 -1.5680  0.1704
15708TIP3   OH268614   5.520   5.667  12.118 -0.1727 -0.0519 -0.0485
15708TIP3    H168615   5.539   5.592  12.061  3.5410 -0.5551  1.5332
15708TIP3    H268616   5.588   5.731  12.095 -0.8345  1.1878  1.3297
15709TIP3   OH268617   3.242   6.243   0.316 -0.1757  0.0819  0.1593
15709TIP3    H168618   3.300   6.280   0.382 -0.0217  0.9430 -0.4428
15709TIP3    H268619   3.260   6.293   0.237 -1.5057  0.1639 -0.1232
15710TIP3   OH268620   3.928   6.549   2.417  0.1181 -0.0730  0.5413
15710TIP3    H168621   3.959   6.555   2.508  1.4234  0.8513  0.0696
15710TIP3    H268622   3.939   6.457   2.394  0.3510 -0.1987  1.1420
15711TIP3   OH268623   1.223   0.069  14.541  0.3590  0.6553 -0.5761
15711TIP3    H168624   1.310   0.039  14.516  1.2342  2.1817  0.4868
15711TIP3    H268625   1.232   0.164  14.551 -0.8199  0.5881  1.8573
15712TIP3   OH268626   7.112   5.928  15.590 -0.0885  0.2335 -0.2119
15712TIP3    H168627   7.158   5.901  15.669 -1.8274 -0.4186  0.6118
15712TIP3    H268628   7.112   5.850  15.535 -0.0978  0.2768 -0.2745
15713TIP3   OH268629   5.460   3.362  14.682  0.0766 -0.0095  0.6570
15713TIP3    H168630   5.374   3.357  14.640  1.2582 -0.6661 -1.8750
15713TIP3    H268631   5.476   3.456  14.691  0.9565  0.3884 -3.2680
15714TIP3   OH268632   3.978   0.405  14.052  0.0474  0.3415 -0.0207
15714TIP3    H168633   3.968   0.344  14.125  1.4441 -0.6328 -0.6012
15714TIP3    H268634   4.044   0.468  14.083  0.2438  0.2436 -0.2405
15715TIP3   OH268635   0.718   2.518  15.101 -0.7388 -0.6120 -0.4072
15715TIP3    H168636   0.751   2.502  15.013 -2.3915  0.0658 -1.1881
15715TIP3    H268637   0.632   2.476  15.103 -1.1144  0.1440  0.5834
15716TIP3   OH268638   5.544   5.903   1.776 -0.5742  0.0943 -0.3902
15716TIP3    H168639   5.522   5.995   1.763 -1.5008 -0.1201 -0.4560
15716TIP3    H268640   5.574   5.873   1.691 -1.5523  0.0181 -0.7267
15717TIP3   OH268641   5.664   4.071  15.106  0.0345  0.0423 -0.1762
15717TIP3    H168642   5.698   4.154  15.071 -0.1687  0.1052 -0.2287
15717TIP3    H268643   5.629   4.094  15.192  1.6989 -0.3578  0.6463
15718TIP3   OH268644   6.613   0.731   0.005  0.0824 -0.1532 -0.0947
15718TIP3    H168645   6.615   0.710  -0.089 -0.5676  0.7781 -0.3289
15718TIP3    H268646   6.576   0.653   0.046  0.7610 -0.7352 -0.5588
15719TIP3   OH268647   6.808   3.616   4.108 -0.5029 -0.1747 -0.2331
15719TIP3    H168648   6.815   3.533   4.155 -0.7430 -0.1831 -0.2075
15719TIP3    H268649   6.863   3.605   4.030  1.5824  0.5870  1.0623
15720TIP3   OH268650   2.696   4.161   2.505  0.1215  0.0927  0.1010
15720TIP3    H168651   2.683   4.090   2.443  0.6602  0.6885 -0.7185
15720TIP3    H268652   2.725   4.117   2.586  1.2411 -0.5796 -0.6279
15721TIP3   OH268653   1.159   6.416  13.583 -0.0277  0.3591 -0.7085
15721TIP3    H168654   1.170   6.323  13.565  2.1997  0.6126 -0.8829
15721TIP3    H268655   1.064   6.430  13.577 -0.2768 -1.5610 -2.2945
15722TIP3   OH268656   6.863   6.093  12.409 -0.0264 -1.2609  0.3342
15722TIP3    H168657   6.830   6.182  12.417 -0.4338 -1.3570 -0.2088
15722TIP3    H268658   6.838   6.066  12.320  1.7614 -1.2231 -0.2265
15723TIP3   OH268659   5.839   3.079   2.761  0.4513  1.0023 -0.1090
15723TIP3    H168660   5.780   3.051   2.831  1.9917 -1.6839  0.2357
15723TIP3    H268661   5.810   3.030   2.684  0.6109  1.6764 -0.6095
15724TIP3   OH268662   0.211   4.576   2.278 -0.3048 -0.3694  0.5986
15724TIP3    H168663   0.295   4.579   2.324  0.2953  0.2467 -0.4967
15724TIP3    H268664   0.147   4.602   2.344  0.2525 -1.5480  1.6530
15725TIP3   OH268665   6.333   5.374   2.673 -0.9584  0.7328 -0.3879
15725TIP3    H168666   6.241   5.397   2.666 -1.4956 -1.2083 -0.3328
15725TIP3    H268667   6.350   5.369   2.767 -0.5596  1.8714 -0.3850
15726TIP3   OH268668   4.842   4.680  14.472 -0.6317 -0.0207  0.0814
15726TIP3    H168669   4.767   4.665  14.415 -1.9435  1.5533  1.3079
15726TIP3    H268670   4.831   4.769  14.503  1.5918  0.1299  0.5810
15727TIP3   OH268671   6.970   3.199   5.489 -0.1286 -0.6893  0.6053
15727TIP3    H168672   6.988   3.158   5.574 -1.3051 -0.6748  0.8745
15727TIP3    H268673   6.929   3.283   5.511 -3.8799 -2.2225  0.0769
15728TIP3   OH268674   1.037   2.582   3.336  0.0503 -0.6881 -0.3188
15728TIP3    H168675   0.989   2.500   3.351 -0.7792 -0.4982 -1.7213
15728TIP3    H268676   1.065   2.576   3.244 -1.0787  1.1186 -0.8272
15729TIP3   OH268677   0.346   0.840   0.620 -0.1204 -0.3063 -0.1019
15729TIP3    H168678   0.377   0.878   0.538  1.9582 -2.3680 -0.3702
15729TIP3    H268679   0.303   0.912   0.666  4.1230  2.5970 -0.2114
15730TIP3   OH268680   1.179   4.882   3.091 -0.0817  0.2751 -0.3578
15730TIP3    H168681   1.093   4.881   3.133 -0.2416 -1.1797 -0.6875
15730TIP3    H268682   1.226   4.808   3.131  0.3947 -0.0192 -1.4333
15731TIP3   OH268683   4.003   5.154   2.289  0.5476 -0.3266  0.1013
15731TIP3    H168684   4.023   5.247   2.279  0.4473 -0.2423  0.6171
15731TIP3    H268685   4.024   5.115   2.205  0.3621  0.2067 -0.1978
15732TIP3   OH268686   3.428   5.383   2.462 -0.0222  0.6387 -0.1257
15732TIP3    H168687   3.482   5.460   2.440 -2.1389  1.7853 -1.7176
15732TIP3    H268688   3.447   5.320   2.392  0.5655  0.2972  0.3291
15733TIP3   OH268689   1.720   2.754   1.237  0.8896  0.3749  0.0616
15733TIP3    H168690   1.690   2.745   1.327  0.5315  1.9229  0.1141
15733TIP3    H268691   1.647   2.720   1.184  0.5270  0.7460  0.3175
15734TIP3   OH268692   5.560   3.774   3.755  0.3123 -0.0665 -0.1408
15734TIP3    H168693   5.643   3.791   3.710  0.5924  0.4518  0.5605
15734TIP3    H268694   5.531   3.860   3.785 -0.6026 -0.2104 -0.5779
15735TIP3   OH268695   5.412   3.697   1.725  0.6153  0.1751 -0.4073
15735TIP3    H168696   5.354   3.762   1.686  0.2930 -0.2530 -0.6467
15735TIP3    H268697   5.403   3.711   1.819  0.6576  0.5691 -0.4573
15736TIP3   OH268698   0.677   5.498   3.202 -0.1279  0.2350 -0.5944
15736TIP3    H168699   0.720   5.490   3.287  2.5487 -0.3176 -1.8830
15736TIP3    H268700   0.629   5.581   3.207 -1.6453 -0.6983  2.0438
15737TIP3   OH268701   0.341   6.294   4.500  0.1989 -0.1245 -0.5522
15737TIP3    H168702   0.412   6.274   4.440  1.3471  0.2164  0.6324
15737TIP3    H268703   0.261   6.274   4.452  0.9524  2.0153 -2.9049
15738TIP3   OH268704   5.001   4.508   4.785  0.8475 -0.4888 -0.1743
15738TIP3    H168705   5.080   4.464   4.818  0.9505  0.1273  0.4184
15738TIP3    H268706   5.028   4.548   4.703  1.0370 -0.6375 -0.1858
15739TIP3   OH268707   3.893   1.870   4.200  0.1367  0.3161 -0.4459
15739TIP3    H168708   3.949   1.845   4.127  0.5648  1.2288 -0.4455
15739TIP3    H268709   3.805   1.877   4.163  0.0420 -0.8717 -0.5018
15740TIP3   OH268710   5.325   5.151  13.066  0.6376  0.1238  0.1679
15740TIP3    H168711   5.300   5.107  13.147  0.4624 -1.4102 -0.6815
15740TIP3    H268712   5.242   5.172  13.023  0.7278 -1.3750 -0.7873
15741TIP3   OH268713   1.763   4.218  10.748 -0.3906  0.6706 -0.2100
15741TIP3    H168714   1.836   4.164  10.716 -1.1654 -0.6416  0.1378
15741TIP3    H268715   1.757   4.290  10.686 -1.0261 -1.0947 -2.3194
15742TIP3   OH268716   2.436   1.927   3.891  0.1490  0.4142  0.4841
15742TIP3    H168717   2.376   1.856   3.869  0.4274  0.4241 -0.3364
15742TIP3    H268718   2.500   1.887   3.950 -0.4614  0.3283  1.1138
15743TIP3   OH268719   6.218   6.467   2.073 -1.2815 -0.0159  0.1579
15743TIP3    H168720   6.151   6.534   2.058 -0.6582  0.3423 -1.1251
15743TIP3    H268721   6.295   6.500   2.029 -0.9136 -1.5274 -0.3761
15744TIP3   OH268722   0.657   1.053   4.191  0.3174 -0.1280 -0.0382
15744TIP3    H168723   0.740   1.008   4.209 -0.0644 -0.6822  0.3915
15744TIP3    H268724   0.682   1.143   4.173  1.0926 -0.4767 -0.7643
15745TIP3   OH268725   6.045   3.932   5.468  0.1736  0.2266  0.0051
15745TIP3    H168726   5.995   3.914   5.548  1.9370 -1.8474  0.7231
15745TIP3    H268727   6.019   3.864   5.407  0.7861  0.1935 -0.2277
15746TIP3   OH268728   6.093   0.910   2.790 -0.2664 -0.2612 -0.0319
15746TIP3    H168729   6.033   0.985   2.795  0.7947  0.6312 -0.3849
15746TIP3    H268730   6.102   0.894   2.696  1.1600  0.5487 -0.0555
15747TIP3   OH268731   2.155   3.612   5.242 -0.3198  0.0669 -0.0971
15747TIP3    H168732   2.183   3.612   5.150  0.0979 -0.4700  0.0246
15747TIP3    H268733   2.073   3.661   5.242 -0.1820  0.3144 -0.7138
15748TIP3   OH268734   0.752   5.301  12.585  0.5154 -0.2487 -0.6608
15748TIP3    H168735   0.719   5.293  12.675  0.7718  2.8496 -0.1776
15748TIP3    H268736   0.811   5.227  12.575 -0.1973 -1.1909  1.3977
15749TIP3   OH268737   4.188   5.656   3.849  0.1877 -0.1415  0.2201
15749TIP3    H168738   4.274   5.648   3.810 -0.7773 -3.1776 -1.6934
15749TIP3    H268739   4.136   5.705   3.785 -0.3479 -1.4518 -0.3823
15750TIP3   OH268740   0.809   6.177  13.508  0.6376 -0.0306 -0.1214
15750TIP3    H168741   0.818   6.271  13.519  0.1718 -0.1537  1.5140
15750TIP3    H268742   0.760   6.148  13.585  1.4460 -1.7138 -0.1976
15751TIP3   OH268743   2.424   6.940   5.633 -0.3637 -0.0834 -0.1646
15751TIP3    H168744   2.443   6.846   5.625 -2.3297 -0.4902 -0.5928
15751TIP3    H268745   2.376   6.947   5.716 -2.0200  0.1789 -1.1000
15752TIP3   OH268746   1.125   7.112   0.002 -0.4414 -0.0793 -0.3581
15752TIP3    H168747   1.167   7.052   0.064  0.0870 -0.7398 -1.3245
15752TIP3    H268748   1.100   7.187   0.055 -2.0782 -1.5717  1.1208
15753TIP3   OH268749   3.671   1.621   3.978  0.2796  0.1611 -0.0930
15753TIP3    H168750   3.603   1.557   3.957 -0.6641  0.6572  1.3411
15753TIP3    H268751   3.623   1.694   4.018  1.4986  1.1681 -0.4188
15754TIP3   OH268752   6.116   3.493  11.344 -0.3069  0.0015  0.0145
15754TIP3    H168753   6.100   3.584  11.319 -1.0761 -0.2245 -0.3450
15754TIP3    H268754   6.029   3.456  11.357 -0.0552 -0.9847 -0.9647
15755TIP3   OH268755   1.071   2.856  14.027  0.6442 -0.2977  0.6080
15755TIP3    H168756   1.021   2.787  14.069  0.3257  0.9311  2.3855
15755TIP3    H268757   1.009   2.898  13.968 -0.2879  0.7477  2.2519
15756TIP3   OH268758   0.372   3.395   3.901 -0.0377 -0.2535 -0.1882
15756TIP3    H168759   0.342   3.461   3.963 -0.6776  0.0910 -0.8408
15756TIP3    H268760   0.411   3.446   3.829 -1.5644 -0.4883 -1.2398
15757TIP3   OH268761   1.644   2.780   0.495 -0.2162 -0.2752  0.4277
15757TIP3    H168762   1.713   2.718   0.470  1.1443  0.7222  1.5441
15757TIP3    H268763   1.602   2.740   0.571 -0.8005 -0.8254 -0.1766
15758TIP3   OH268764   0.029   6.144   3.195  0.4247 -0.3250  0.6676
15758TIP3    H168765  -0.017   6.078   3.246 -0.4275  0.0617  0.4084
15758TIP3    H268766   0.037   6.106   3.107  0.0323 -0.1291  0.5470
15759TIP3   OH268767   2.436   4.090   1.457 -0.6311  0.9371  0.0681
15759TIP3    H168768   2.455   4.106   1.365 -1.9863 -1.4830 -0.7046
15759TIP3    H268769   2.514   4.045   1.490 -0.8542  0.2110 -0.3822
15760TIP3   OH268770   2.255   7.126   6.036 -0.7025  0.1232 -0.1999
15760TIP3    H168771   2.245   7.076   6.116  1.2776  0.1267  0.1007
15760TIP3    H268772   2.167   7.131   5.999 -1.2177 -2.2499  0.5383
15761TIP3   OH268773   3.956   5.251   3.405  1.2619 -0.0148 -0.2919
15761TIP3    H168774   3.955   5.158   3.428  1.7175 -0.0198 -0.2768
15761TIP3    H268775   3.870   5.267   3.365 -0.0996  0.3076  2.5206
15762TIP3   OH268776   6.614   6.344   2.064  0.3505  0.9089  0.3503
15762TIP3    H168777   6.591   6.332   2.156 -0.9117  0.5348 -0.0037
15762TIP3    H268778   6.562   6.419   2.035  0.1387  0.5358 -0.2627
15763TIP3   OH268779   6.688   5.739   9.653 -0.0479  0.5387  0.0296
15763TIP3    H168780   6.629   5.689   9.597  0.1244 -0.0978  0.4009
15763TIP3    H268781   6.764   5.681   9.665 -1.3976 -0.8121  3.5648
15764TIP3   OH268782   1.727   1.927   5.888 -0.4234 -0.0496 -0.0120
15764TIP3    H168783   1.699   1.931   5.796 -0.1137 -3.2979 -0.3732
15764TIP3    H268784   1.649   1.950   5.938 -0.3574  2.7308 -0.9856
15765TIP3   OH268785   2.351   5.826   4.237  0.1379  0.5229  0.0563
15765TIP3    H168786   2.286   5.812   4.168  1.3996 -0.1099 -1.0458
15765TIP3    H268787   2.308   5.793   4.317  0.1548 -2.7350 -1.1290
15766TIP3   OH268788   3.389   1.359   2.649 -0.2779 -0.8000 -0.7490
15766TIP3    H168789   3.469   1.367   2.700 -0.0077  1.3897 -1.4138
15766TIP3    H268790   3.417   1.362   2.558 -1.0679 -0.3481 -0.9935
15767TIP3   OH268791   1.043   3.577  10.588 -0.2434  0.5727 -0.0233
15767TIP3    H168792   1.035   3.543  10.499  2.2223 -0.4003  0.0505
15767TIP3    H268793   0.953   3.584  10.619 -1.0947 -0.4877 -2.0763
15768TIP3   OH268794   6.143   6.959   0.097 -0.0713  1.0389 -0.1753
15768TIP3    H168795   6.210   7.026   0.087 -0.6116  1.5827 -0.2102
15768TIP3    H268796   6.063   7.008   0.120  0.0176  0.2581  2.0757
15769TIP3   OH268797   1.947   0.083  13.902 -0.1500  0.2381 -0.1143
15769TIP3    H168798   1.868   0.135  13.892 -1.0611 -1.2336 -0.8674
15769TIP3    H268799   1.921   0.008  13.955  0.8007 -0.1574 -0.1794
15770TIP3   OH268800   2.063   5.054   2.061  0.3506  0.4504  0.4548
15770TIP3    H168801   2.022   5.086   1.981 -0.4584  1.7440  1.3432
15770TIP3    H268802   2.097   4.967   2.038 -2.0425 -0.2802 -0.5897
15771TIP3   OH268803   5.367   6.504  12.056 -0.9173 -0.3540  0.4056
15771TIP3    H168804   5.413   6.457  12.125 -0.4489 -1.0851 -0.3920
15771TIP3    H268805   5.411   6.478  11.975 -1.1397  0.8705 -0.1286
15772TIP3   OH268806   6.179   5.240  14.389  0.0607  0.2190 -0.4499
15772TIP3    H168807   6.256   5.187  14.368 -1.0720 -1.1619 -1.2782
15772TIP3    H268808   6.180   5.310  14.324  1.4620  1.1823  0.5365
15773TIP3   OH268809   5.221   2.759   3.691  0.0749 -0.2760 -0.0821
15773TIP3    H168810   5.258   2.691   3.747 -0.6004  0.4094  1.2458
15773TIP3    H268811   5.160   2.713   3.634  0.2724 -0.8985  0.2004
15774TIP3   OH268812   4.730   3.344   1.083 -0.4490 -0.4917 -0.4418
15774TIP3    H168813   4.801   3.282   1.066 -0.6942 -1.0597  0.5372
15774TIP3    H268814   4.767   3.430   1.062  0.4479 -0.8041 -0.1629
15775TIP3   OH268815   1.748   5.048  14.564  0.4266 -0.3403 -0.4606
15775TIP3    H168816   1.775   4.958  14.547  0.3978 -0.7473  1.3756
15775TIP3    H268817   1.769   5.062  14.657 -2.4653  0.4601  0.1860
15776TIP3   OH268818   5.397   1.386   2.925  0.7796  0.7670 -0.2589
15776TIP3    H168819   5.449   1.393   3.005 -0.4756 -0.2218  0.6934
15776TIP3    H268820   5.349   1.304   2.936 -0.2916  1.2093 -1.5059
15777TIP3   OH268821   4.488   4.717   1.207  0.0288  0.3110 -0.2182
15777TIP3    H168822   4.461   4.656   1.275  0.0527  1.8475  1.2227
15777TIP3    H268823   4.525   4.661   1.138 -2.1717 -1.4754 -0.0780
15778TIP3   OH268824   0.824   6.823  15.731  0.2509 -0.7248  0.0750
15778TIP3    H168825   0.754   6.888  15.739 -0.7844 -1.7010 -0.7418
15778TIP3    H268826   0.853   6.808  15.820 -1.3620 -1.1234  0.5679
15779TIP3   OH268827   0.193   6.481   4.253  0.0800  0.9221  0.0191
15779TIP3    H168828   0.151   6.481   4.167  0.0518  0.7115  0.0321
15779TIP3    H268829   0.183   6.391   4.284  1.2106  0.6688 -0.3045
15780TIP3   OH268830   3.871   0.297  14.271  0.4689 -0.4714 -0.1571
15780TIP3    H168831   3.777   0.286  14.257  0.7990 -1.4247 -1.9192
15780TIP3    H268832   3.887   0.264  14.359 -1.3755  3.2402  1.8411
15781TIP3   OH268833   1.290   4.647  13.822  0.1985  0.3779 -0.6475
15781TIP3    H168834   1.278   4.604  13.907 -0.0453 -0.8194 -1.2680
15781TIP3    H268835   1.310   4.738  13.844 -1.6635  0.5280  0.6510
15782TIP3   OH268836   4.654   2.419   3.599 -0.4407 -0.3263  0.4772
15782TIP3    H168837   4.561   2.405   3.581 -0.7252  0.9966  0.7615
15782TIP3    H268838   4.687   2.462   3.520 -0.8483  2.1207  1.5249
15783TIP3   OH268839   4.187   1.107  12.382 -0.2070  0.0464 -0.2679
15783TIP3    H168840   4.122   1.147  12.324  0.9715 -0.2137 -1.8244
15783TIP3    H268841   4.195   1.017  12.351  0.0446 -0.2703  0.6795
15784TIP3   OH268842   5.744   5.240  15.563 -0.4040  0.1831 -0.2482
15784TIP3    H168843   5.749   5.321  15.614  0.1964  0.4077 -0.6441
15784TIP3    H268844   5.656   5.239  15.527 -0.0716  1.2383 -1.1513
15785TIP3   OH268845   3.385   0.773   2.376  0.2450 -0.1880 -0.2734
15785TIP3    H168846   3.375   0.731   2.462 -0.3404  0.9908  0.2503
15785TIP3    H268847   3.297   0.777   2.341  0.0371  1.9030  0.3438
15786TIP3   OH268848   1.064   5.015   1.853  0.5077  0.5588 -0.4327
15786TIP3    H168849   0.983   5.010   1.803  0.2073 -0.6600  0.1474
15786TIP3    H268850   1.118   5.078   1.805 -0.1112  0.0932 -1.7871
15787TIP3   OH268851   0.848   4.542   5.024 -0.3650 -0.0990 -0.1423
15787TIP3    H168852   0.803   4.496   5.096  1.7249 -0.2198  1.1488
15787TIP3    H268853   0.890   4.617   5.066 -0.5949  0.8765 -1.5979
15788TIP3   OH268854   2.380   0.656  12.086 -0.1855 -0.3999  0.0617
15788TIP3    H168855   2.415   0.714  12.019 -0.0341 -1.5477 -0.8811
15788TIP3    H268856   2.313   0.709  12.130 -0.3966  0.3340 -1.0922
15789TIP3   OH268857   3.101   1.978   4.003 -0.0537  0.2614  0.0916
15789TIP3    H168858   3.174   2.016   4.052  0.7869 -1.7479  0.4838
15789TIP3    H268859   3.143   1.929   3.932 -1.1054  0.1215 -0.4537
15790TIP3   OH268860   1.097   5.387   5.384  0.0360 -0.0378  0.0376
15790TIP3    H168861   1.144   5.469   5.366 -0.6204  0.3787  0.2078
15790TIP3    H268862   1.035   5.378   5.312  0.3474 -0.5734 -0.1681
15791TIP3   OH268863   1.997   1.343   5.441  0.8463 -0.0536 -0.0100
15791TIP3    H168864   1.986   1.392   5.522 -1.0747  1.4997 -1.1231
15791TIP3    H268865   1.927   1.278   5.443  1.1528 -0.3943 -0.1689
15792TIP3   OH268866   5.093   6.121   3.377 -0.3080 -0.1819 -0.3806
15792TIP3    H168867   5.180   6.132   3.338  0.6289 -2.2672  0.9366
15792TIP3    H268868   5.034   6.165   3.316  1.7552  2.3749 -0.7019
15793TIP3   OH268869   4.763   0.266  13.356  0.4990  0.5557 -0.3364
15793TIP3    H168870   4.765   0.321  13.278  0.9134  1.2662  0.1613
15793TIP3    H268871   4.739   0.326  13.427  4.0631  0.8629  0.7934
15794TIP3   OH268872   2.151   3.575   4.222 -0.1462  0.6197  0.3325
15794TIP3    H168873   2.123   3.495   4.178  0.8453 -0.1692  1.0857
15794TIP3    H268874   2.073   3.605   4.270 -1.3519  1.6855 -2.1071
15795TIP3   OH268875   5.409   3.716   2.429  0.1539  0.2622  0.2589
15795TIP3    H168876   5.388   3.701   2.337  0.6316 -0.7696  0.3017
15795TIP3    H268877   5.407   3.811   2.439  1.9803  0.5285 -1.2936
15796TIP3   OH268878   3.265   6.157  13.125  0.2859 -0.7460  0.0415
15796TIP3    H168879   3.297   6.228  13.180 -1.2232  1.2971 -1.5213
15796TIP3    H268880   3.343   6.107  13.102  1.3555  0.1460  1.5277
15797TIP3   OH268881   5.799   6.166   0.283 -0.4076  0.3504  0.0056
15797TIP3    H168882   5.877   6.119   0.312 -0.4968  1.3237  1.9803
15797TIP3    H268883   5.827   6.212   0.204  1.0122  0.5561  0.5904
15798TIP3   OH268884   0.592   5.817  12.145  0.2527 -0.3247 -0.6806
15798TIP3    H168885   0.548   5.758  12.084 -0.9981 -0.8655  0.6796
15798TIP3    H268886   0.615   5.762  12.220  1.1914  0.4446 -0.3775
15799TIP3   OH268887   0.689   5.282  15.699 -0.3095  0.4506  0.5048
15799TIP3    H168888   0.625   5.225  15.657  0.5454 -0.4459  0.3848
15799TIP3    H268889   0.761   5.224  15.723 -0.3535  1.0944  2.3803
15800TIP3   OH268890   5.443   2.748   0.641 -0.5340 -0.2098  0.3083
15800TIP3    H168891   5.503   2.674   0.650  1.0343  0.7072 -1.6967
15800TIP3    H268892   5.356   2.708   0.634  0.0268 -1.6939  1.3745
15801TIP3   OH268893   0.985   2.125   5.280  0.0431  0.2261 -0.1116
15801TIP3    H168894   0.937   2.067   5.339  2.2855 -2.2150 -0.5115
15801TIP3    H268895   1.064   2.149   5.329  0.6746  0.3288 -1.1558
15802TIP3   OH268896   1.964   1.204  12.579 -0.2035 -0.2123 -0.3293
15802TIP3    H168897   1.940   1.188  12.670 -4.4400  2.0176 -0.8481
15802TIP3    H268898   1.954   1.298  12.567  0.6758 -0.3759 -3.0322
15803TIP3   OH268899   3.167   2.977  15.104 -0.4710  0.4732  0.0756
15803TIP3    H168900   3.090   3.001  15.052 -1.2302 -0.2477  0.8489
15803TIP3    H268901   3.241   3.000  15.048 -1.2147 -3.0459 -2.7368
15804TIP3   OH268902   2.225   5.106  11.385 -0.8083  0.2940  0.0735
15804TIP3    H168903   2.321   5.105  11.390 -0.5142 -0.4096 -3.2451
15804TIP3    H268904   2.200   5.014  11.393 -0.7857 -0.0327 -2.5906
15805TIP3   OH268905   5.740   5.607   2.944  0.2564 -0.8395  0.1830
15805TIP3    H168906   5.726   5.610   2.849  1.5369 -1.8750 -0.0692
15805TIP3    H268907   5.735   5.699   2.971  4.4405  0.2108 -1.6814
15806TIP3   OH268908   2.052   2.641  13.169 -0.2063  0.2260  0.3945
15806TIP3    H168909   2.118   2.572  13.169  0.0625  0.4788  0.7798
15806TIP3    H268910   1.995   2.619  13.243 -1.6877 -1.0440 -1.0451
15807TIP3   OH268911   7.010   0.426  12.129  0.0849 -0.4057  0.1176
15807TIP3    H168912   6.925   0.412  12.170 -0.7295 -1.5303 -1.7917
15807TIP3    H268913   7.073   0.421  12.201 -1.0776 -3.9455  1.1075
15808TIP3   OH268914   0.362   5.240   4.416 -0.0647 -0.1321  0.0636
15808TIP3    H168915   0.455   5.244   4.392 -0.3751 -0.7862 -1.3877
15808TIP3    H268916   0.355   5.290   4.497  1.3125  1.1006 -0.5420
15809TIP3   OH268917   2.452   3.366   3.335 -0.5293  0.5441  0.4245
15809TIP3    H168918   2.503   3.446   3.321  2.5566 -1.1024  1.2445
15809TIP3    H268919   2.416   3.376   3.423  0.7334  0.6538  0.9563
15810TIP3   OH268920   5.069   5.105  12.831  0.4395 -0.3941 -0.1755
15810TIP3    H168921   5.032   5.174  12.886 -0.5458  0.2925 -1.6176
15810TIP3    H268922   4.993   5.053  12.803  1.2500 -2.7561  1.6944
15811TIP3   OH268923   0.948   2.949   4.610 -0.3377  0.0917  0.4416
15811TIP3    H168924   0.865   2.916   4.647 -0.0344 -0.8041  0.3517
15811TIP3    H268925   0.989   2.872   4.572 -1.4091  1.2102 -3.3536
15812TIP3   OH268926   0.805   1.175   2.944  0.6225 -0.0689  0.3689
15812TIP3    H168927   0.754   1.103   2.979  0.8685 -0.5227 -0.1859
15812TIP3    H268928   0.759   1.202   2.864  0.0664  0.9520  1.0119
15813TIP3   OH268929   2.508   2.850   3.078 -0.3617 -0.1659 -0.3006
15813TIP3    H168930   2.596   2.819   3.098 -0.2683  1.0643  1.4676
15813TIP3    H268931   2.522   2.922   3.015  0.0229  0.7218  0.7695
15814TIP3   OH268932   2.233   1.118   4.401 -0.0813  0.5559 -0.4933
15814TIP3    H168933   2.299   1.150   4.463 -0.1080  0.6016 -0.4886
15814TIP3    H268934   2.274   1.041   4.360 -0.2970  0.1626  0.0138
15815TIP3   OH268935   3.196   6.662   5.285  0.5683 -0.6018 -0.0457
15815TIP3    H168936   3.120   6.683   5.340  0.2693 -1.0381 -0.2832
15815TIP3    H268937   3.218   6.572   5.310 -0.8118 -1.5588 -2.0306
15816TIP3   OH268938   0.969   0.631   0.637  0.2652 -0.1941  0.1228
15816TIP3    H168939   0.912   0.692   0.590 -1.0437 -1.1712  0.3771
15816TIP3    H268940   0.913   0.556   0.656  2.0111 -1.8429 -0.8736
15817TIP3   OH268941   3.078   3.223   2.405  0.4983 -0.3071 -0.7144
15817TIP3    H168942   3.002   3.196   2.353  2.2450 -2.5900 -2.2686
15817TIP3    H268943   3.152   3.216   2.344  2.6665 -2.9097  1.9268
15818TIP3   OH268944   4.617   3.557   0.145  0.4674 -0.1546 -0.1376
15818TIP3    H168945   4.541   3.512   0.183 -1.0031  2.6734  0.5933
15818TIP3    H268946   4.612   3.536   0.052 -2.0813  0.9598 -0.3526
15819TIP3   OH268947   6.694   5.019   4.790  0.0505 -0.0765 -0.8880
15819TIP3    H168948   6.731   5.081   4.727  0.3557  0.6458 -0.0311
15819TIP3    H268949   6.755   4.945   4.790  1.5019  1.0339  0.3992
15820TIP3   OH268950   2.474   0.255   0.438 -0.9904  0.5875 -0.3107
15820TIP3    H168951   2.380   0.269   0.427 -0.8484  1.1658 -0.7793
15820TIP3    H268952   2.482   0.223   0.528 -1.7154 -0.2592 -0.5214
15821TIP3   OH268953   6.205   5.690   9.829 -0.1426 -0.4557 -0.0631
15821TIP3    H168954   6.262   5.722   9.899 -1.2389  0.3959  0.4653
15821TIP3    H268955   6.262   5.686   9.752  1.0816 -1.3962  0.8500
15822TIP3   OH268956   1.305   4.525   4.020  0.1765  0.2932 -0.0715
15822TIP3    H168957   1.255   4.445   4.034 -0.1254  0.3593 -0.7625
15822TIP3    H268958   1.353   4.509   3.939  0.9376  0.4052  0.3465
15823TIP3   OH268959   3.807   3.919   3.875  0.0169  0.2730 -0.4988
15823TIP3    H168960   3.843   3.980   3.810  2.1288 -1.6450 -1.2407
15823TIP3    H268961   3.714   3.915   3.854  0.0491  2.2240 -1.2433
15824TIP3   OH268962   2.670   3.731   4.695 -0.5103 -0.2086  0.0227
15824TIP3    H168963   2.756   3.720   4.656 -1.3048 -1.5616 -1.4586
15824TIP3    H268964   2.632   3.805   4.647 -0.9807 -1.0257 -0.9076
15825TIP3   OH268965   2.448   3.919   4.617  0.1133  0.0139 -0.1119
15825TIP3    H168966   2.433   3.837   4.664  3.4325 -0.0177  1.1459
15825TIP3    H268967   2.435   3.988   4.683 -2.5042  0.6268 -1.1207
15826TIP3   OH268968   0.510   5.713   4.557  0.9992  0.0469  0.2110
15826TIP3    H168969   0.528   5.621   4.538  1.7412  0.1927  0.1818
15826TIP3    H268970   0.475   5.748   4.475 -1.0329 -0.6249  0.7326
15827TIP3   OH268971   7.040   6.837  15.577  0.3306 -0.3587 -0.1741
15827TIP3    H168972   6.997   6.893  15.512 -1.0961 -0.5552  0.5609
15827TIP3    H268973   7.106   6.893  15.617 -1.5703  1.1046  1.0893
15828TIP3   OH268974   2.380   6.214   1.603  0.4505 -0.2365  0.7688
15828TIP3    H168975   2.386   6.258   1.519 -1.4404  1.7611  1.5896
15828TIP3    H268976   2.291   6.178   1.605  0.6726 -0.7723  1.6769
15829TIP3   OH268977   7.062   3.591   1.587 -0.7046 -0.1155 -0.5534
15829TIP3    H168978   7.095   3.672   1.627 -0.0818  0.1149 -1.4896
15829TIP3    H268979   7.141   3.544   1.560 -1.0955 -0.4544 -1.1268
15830TIP3   OH268980   3.525   2.376   2.376 -0.0132 -0.1853 -0.1888
15830TIP3    H168981   3.551   2.383   2.468  1.2004  2.1670 -0.6299
15830TIP3    H268982   3.430   2.390   2.376 -0.1000 -0.7001  0.7169
15831TIP3   OH268983   0.342   4.087   3.370  0.2339 -0.2448 -0.1688
15831TIP3    H168984   0.366   4.162   3.316  2.2990 -1.3445 -0.9114
15831TIP3    H268985   0.391   4.099   3.452  1.4756 -1.2584 -0.7165
15832TIP3   OH268986   2.517   6.534   5.468  0.0140  0.4111 -0.4426
15832TIP3    H168987   2.589   6.519   5.530 -0.2533 -2.2127 -0.6460
15832TIP3    H268988   2.527   6.625   5.441  4.2781 -0.2297 -1.7021
15833TIP3   OH268989   3.320   7.015   3.773 -0.2639  0.2304 -0.2666
15833TIP3    H168990   3.285   7.050   3.855  2.8185  1.0781  0.8234
15833TIP3    H268991   3.339   6.923   3.793  1.3755  0.6713  0.3579
15834TIP3   OH268992   5.641   5.848  15.612  0.1479 -0.2493  0.3766
15834TIP3    H168993   5.734   5.826  15.621  0.0262 -1.2355 -0.6516
15834TIP3    H268994   5.624   5.842  15.518 -1.3165 -1.5917  0.6917
15835TIP3   OH268995   6.157   0.508  15.128  0.0922 -0.3257 -0.0934
15835TIP3    H168996   6.250   0.504  15.105 -0.0738 -1.3592 -0.6518
15835TIP3    H268997   6.122   0.579  15.075  0.2961 -0.8235 -0.9046
15836TIP3   OH268998   5.235   1.486   3.937 -0.3326 -0.2871  0.0440
15836TIP3    H168999   5.172   1.428   3.981 -0.0388 -0.6104  0.0405
15836TIP3    H269000   5.276   1.534   4.008 -0.4916 -0.1689  0.0565
15837TIP3   OH269001   5.327   4.957   3.714  0.3180  0.4118 -0.8784
15837TIP3    H169002   5.371   4.926   3.635  0.6871  1.0726 -0.9300
15837TIP3    H269003   5.248   4.903   3.719  2.9952 -3.8243  1.4969
15838TIP3   OH269004   2.414   0.159   2.254  0.0869  0.1425 -0.4020
15838TIP3    H169005   2.467   0.095   2.300 -0.5956 -1.0406 -1.2045
15838TIP3    H269006   2.373   0.211   2.323 -0.7145 -1.4137  0.3429
15839TIP3   OH269007   1.621   6.130   3.760 -0.2186  0.1354 -0.1335
15839TIP3    H169008   1.697   6.184   3.740 -0.1710 -0.2482 -0.9937
15839TIP3    H269009   1.607   6.077   3.682 -2.0636  1.0227 -0.4782
15840TIP3   OH269010   1.966   6.923   2.222  0.2617  0.2859 -0.1481
15840TIP3    H169011   1.987   6.949   2.311  0.2902  0.0420 -0.0837
15840TIP3    H269012   1.958   6.828   2.226  1.4990  0.1425 -0.6616
15841TIP3   OH269013   3.951   5.021   3.068 -0.1180  0.6955 -0.4274
15841TIP3    H169014   4.029   5.075   3.070  0.7799 -0.5336  2.0864
15841TIP3    H269015   3.883   5.077   3.031  1.5749  2.3185 -1.1945
15842TIP3   OH269016   4.036   5.065   2.731 -0.0659  0.1144 -0.4787
15842TIP3    H169017   4.030   5.112   2.815 -0.9634  0.4599 -0.7270
15842TIP3    H269018   4.073   5.129   2.670 -1.4595  0.5866 -0.8609
15843TIP3   OH269019   3.336   5.853   5.365  0.3266  0.2351  0.3131
15843TIP3    H169020   3.272   5.825   5.299  0.0171  0.4847  0.5061
15843TIP3    H269021   3.296   5.929   5.407  0.7251  0.3575  0.4780
15844TIP3   OH269022   3.816   4.739   1.574  0.0787 -0.1504 -0.2782
15844TIP3    H169023   3.810   4.744   1.478 -1.7426  3.1478 -0.1488
15844TIP3    H269024   3.739   4.690   1.600 -0.7752  1.0329 -0.4796
15845TIP3   OH269025   0.065   4.103   4.417  0.3743 -0.4308 -0.0535
15845TIP3    H169026   0.133   4.162   4.387  1.0685 -0.5754  1.1787
15845TIP3    H269027  -0.017   4.143   4.388  0.9042  0.4841 -0.3082
15846TIP3   OH269028   4.641   5.388   1.859 -0.2952 -0.1123  0.5114
15846TIP3    H169029   4.620   5.432   1.942 -0.8742  1.3862 -0.3902
15846TIP3    H269030   4.737   5.382   1.859 -0.3295 -1.0069  1.6977
15847TIP3   OH269031   4.966   3.805   4.725 -0.0170  0.7415 -0.3320
15847TIP3    H169032   5.020   3.883   4.737 -0.1536  0.6116  1.5053
15847TIP3    H269033   5.018   3.748   4.670  0.8561  1.4188 -0.2355
15848TIP3   OH269034   1.140   3.689   5.686  0.1218 -0.3520 -0.1066
15848TIP3    H169035   1.220   3.655   5.646  0.0739  0.6501 -1.1065
15848TIP3    H269036   1.071   3.667   5.624 -0.5220 -1.8323  1.0797
15849TIP3   OH269037   3.595   6.087  14.392  0.3901  0.2438  0.0440
15849TIP3    H169038   3.680   6.069  14.350 -0.2740  0.3806 -1.4431
15849TIP3    H269039   3.604   6.175  14.428  0.2981  1.0750 -1.8205
15850TIP3   OH269040   5.101   2.753   2.660 -0.1035 -0.3391  0.4533
15850TIP3    H169041   5.029   2.805   2.624  1.7637  1.9090 -0.2714
15850TIP3    H269042   5.121   2.795   2.743  0.6764 -0.6419  0.4233
15851TIP3   OH269043   1.235   0.794   0.393  0.0383 -0.1391  0.3121
15851TIP3    H169044   1.291   0.830   0.325 -0.7109  0.9253  0.2307
15851TIP3    H269045   1.285   0.805   0.474 -0.4433  1.8031  0.3920
15852TIP3   OH269046   3.518   2.166  12.594  0.0034 -0.1661  0.1028
15852TIP3    H169047   3.468   2.244  12.572 -0.2347 -0.7201 -1.4881
15852TIP3    H269048   3.481   2.098  12.538  0.4571 -1.3389  1.1799
15853TIP3   OH269049   2.044   5.935   2.941 -0.3921  0.0795  0.0629
15853TIP3    H169050   2.103   5.907   2.871 -1.6171 -0.5641 -0.7350
15853TIP3    H269051   2.059   5.871   3.011 -0.0039  0.0449 -0.0453
15854TIP3   OH269052   0.340   0.078   1.373 -0.3680 -0.1687  0.6375
15854TIP3    H169053   0.416   0.129   1.344 -0.9798  0.3912 -0.0232
15854TIP3    H269054   0.350  -0.006   1.329  0.5856 -0.5987  1.6392
15855TIP3   OH269055   3.411   6.836   2.406 -0.4116 -0.0674  0.0070
15855TIP3    H169056   3.394   6.883   2.324  1.1440  1.3890  0.4811
15855TIP3    H269057   3.448   6.901   2.464  1.3530 -1.7608  0.8762
15856TIP3   OH269058   2.400   7.000  14.698  0.4731  0.6556 -0.0780
15856TIP3    H169059   2.436   7.007  14.609  0.8538  2.1908  0.1589
15856TIP3    H269060   2.435   7.077  14.744 -1.6562  1.2540  0.6803
15857TIP3   OH269061   1.287   0.265   5.881 -0.1798  0.0404  0.2284
15857TIP3    H169062   1.272   0.204   5.953  0.5868 -0.5820 -0.1257
15857TIP3    H269063   1.348   0.219   5.822  1.9093  1.8390  0.8536
15858TIP3   OH269064   1.795   2.844   0.962  0.2074 -0.3832 -0.4947
15858TIP3    H169065   1.796   2.812   1.052  0.8329 -1.1812 -0.7704
15858TIP3    H269066   1.707   2.878   0.949  0.1752 -0.0696  0.4797
15859TIP3   OH269067   4.906   4.241   4.594 -0.1280 -0.3128 -0.0434
15859TIP3    H169068   4.870   4.275   4.676 -0.1889  0.0482 -0.2190
15859TIP3    H269069   4.994   4.210   4.618 -0.1984 -0.3389  0.1863
15860TIP3   OH269070   1.279   0.918   1.822  0.8312  0.3152  0.1555
15860TIP3    H169071   1.327   0.915   1.739  2.2358  0.3730  0.9305
15860TIP3    H269072   1.338   0.876   1.885 -0.2392  0.2068  1.1234
15861TIP3   OH269073   5.345   6.532   3.108 -0.1789 -0.1299 -0.1928
15861TIP3    H169074   5.375   6.519   3.018 -0.5334  0.8594 -0.4751
15861TIP3    H269075   5.418   6.503   3.162  1.0241  1.4673 -0.8551
15862TIP3   OH269076   0.988   1.703  13.392 -0.2119  0.0229 -0.3482
15862TIP3    H169077   0.895   1.691  13.371 -0.5683  0.1346  1.0745
15862TIP3    H269078   1.004   1.642  13.464  0.9556 -0.3569 -0.9143
15863TIP3   OH269079   2.458   3.810  14.836 -0.1368 -0.4310  0.0357
15863TIP3    H169080   2.539   3.777  14.875 -0.1764 -1.5130 -0.7432
15863TIP3    H269081   2.487   3.867  14.765 -0.0498 -0.7510 -0.1883
15864TIP3   OH269082   4.242   5.107   0.211 -0.0487 -0.1390 -0.6456
15864TIP3    H169083   4.247   5.086   0.304  0.1313 -1.6570 -0.9760
15864TIP3    H269084   4.257   5.202   0.207  1.4607 -0.2847  0.7253
15865TIP3   OH269085   5.800   5.751  13.998  0.6685  0.3907  0.0325
15865TIP3    H169086   5.729   5.708  13.950  1.7567 -0.2240 -1.0986
15865TIP3    H269087   5.798   5.712  14.085 -0.4764  0.4938  0.0547
15866TIP3   OH269088   1.135   0.751   3.686  0.4357  0.1819  0.7670
15866TIP3    H169089   1.060   0.758   3.627 -0.9580  3.1526  2.6747
15866TIP3    H269090   1.118   0.671   3.737 -0.4014 -0.2238 -0.1176
15867TIP3   OH269091   3.087   3.117   3.377  1.0723 -0.4525 -0.5393
15867TIP3    H169092   3.042   3.051   3.324  0.3912  0.6720 -1.4404
15867TIP3    H269093   3.020   3.148   3.438  1.3802 -0.5954 -0.1296
15868TIP3   OH269094   0.731   5.164  13.871 -0.2385  0.4777  0.1959
15868TIP3    H169095   0.644   5.142  13.905  0.4270 -0.6026  1.2471
15868TIP3    H269096   0.792   5.135  13.938  1.0523 -0.5551 -1.3291
15869TIP3   OH269097   4.089   7.144   1.689  0.4817 -0.6652 -0.1189
15869TIP3    H169098   4.158   7.203   1.719 -0.1059 -0.3141  0.5733
15869TIP3    H269099   4.101   7.139   1.594  0.7276  0.3237 -0.1452
15870TIP3   OH269100   4.929   4.324   2.366 -0.4911  0.3086  0.1907
15870TIP3    H169101   4.837   4.349   2.361 -0.5664 -0.1453 -1.5743
15870TIP3    H269102   4.928   4.237   2.406 -1.0607 -0.5301 -1.5281
15871TIP3   OH269103   5.282   5.338  15.075  0.1229 -0.4578  0.4400
15871TIP3    H169104   5.326   5.295  15.149  0.0289  0.6561  1.1760
15871TIP3    H269105   5.225   5.403  15.117 -0.8256 -0.6134 -0.5755
15872TIP3   OH269106   4.087   0.859   3.068  0.0241 -0.7719  0.0101
15872TIP3    H169107   4.144   0.848   3.144 -1.0766  0.5931  1.0846
15872TIP3    H269108   4.004   0.820   3.095  0.4056 -2.8257 -1.5712
15873TIP3   OH269109   6.289   5.367   1.013 -0.2190  0.7674 -0.4088
15873TIP3    H169110   6.229   5.441   1.026 -0.6554  0.7263 -1.9084
15873TIP3    H269111   6.370   5.407   0.983 -0.1468  0.6969 -0.3056
15874TIP3   OH269112   0.961   5.192   2.842 -0.4006  0.9147 -0.3623
15874TIP3    H169113   0.996   5.263   2.788  2.5503 -2.2136 -3.0588
15874TIP3    H269114   1.038   5.139   2.865 -2.4668 -1.7568  0.9740
15875TIP3   OH269115   5.330   0.643   2.058 -0.1396  0.3131  0.5590
15875TIP3    H169116   5.420   0.636   2.090 -0.0793 -0.8511  0.1640
15875TIP3    H269117   5.339   0.679   1.970  0.0733 -1.1414 -0.0468
15876TIP3   OH269118   6.753   6.627   4.648 -0.2013 -0.2246 -0.3563
15876TIP3    H169119   6.674   6.573   4.647  0.6944 -1.6605 -2.6766
15876TIP3    H269120   6.735   6.694   4.713 -3.0698 -0.8566 -0.3414
15877TIP3   OH269121   1.449   1.452   2.828  0.4079 -0.4416  0.4575
15877TIP3    H169122   1.508   1.415   2.893  0.9218  1.6013  1.1991
15877TIP3    H269123   1.399   1.519   2.875  2.5394  2.9181 -1.6459
15878TIP3   OH269124   0.918   3.081  15.435 -0.0618  0.6937  0.0334
15878TIP3    H169125   0.831   3.045  15.415  0.2537  0.9071 -1.9221
15878TIP3    H269126   0.971   3.004  15.456  0.1708  0.1169 -2.4054
15879TIP3   OH269127   1.024   1.721  11.020 -0.4312 -0.4309  0.0443
15879TIP3    H169128   1.110   1.719  10.977 -1.0714 -0.5028 -1.2983
15879TIP3    H269129   0.986   1.636  11.001 -0.9910 -0.2202  0.2030
15880TIP3   OH269130   7.143   2.882   1.694  0.0881  0.7757  0.3964
15880TIP3    H169131   7.193   2.963   1.693  3.0718 -0.9424 -0.4257
15880TIP3    H269132   7.198   2.819   1.740 -0.0002 -1.8889 -2.7217
15881TIP3   OH269133   3.662   6.475   2.176  0.0874 -0.4334 -0.5505
15881TIP3    H169134   3.604   6.542   2.139  1.5397  1.6186  0.6791
15881TIP3    H269135   3.742   6.522   2.197  0.4684 -2.1291  2.2635
15882TIP3   OH269136   0.509   1.369   0.628  0.2740  0.0390 -0.2772
15882TIP3    H169137   0.439   1.315   0.591  1.4296 -0.3786 -1.9554
15882TIP3    H269138   0.562   1.308   0.679 -0.0564  0.1774  0.2384
15883TIP3   OH269139   4.195   3.081   2.259  0.0415 -0.1509 -0.6696
15883TIP3    H169140   4.243   2.999   2.258 -1.0386 -0.8011 -2.1373
15883TIP3    H269141   4.262   3.149   2.253  0.8146 -1.0268 -2.6813
15884TIP3   OH269142   0.484   0.324   1.643 -0.1198  0.2496 -0.7949
15884TIP3    H169143   0.567   0.368   1.663 -1.7612  3.1872  0.1438
15884TIP3    H269144   0.446   0.305   1.728 -1.2098  0.6211 -1.1814
15885TIP3   OH269145   0.953   7.126  12.254 -0.1725  0.2302 -0.0733
15885TIP3    H169146   0.991   7.213  12.246  1.0839 -0.3973 -1.4096
15885TIP3    H269147   0.905   7.114  12.172  1.8340 -1.2843 -1.1118
15886TIP3   OH269148   1.115   4.773   2.775 -0.2169  0.3102  0.3134
15886TIP3    H169149   1.080   4.774   2.864  1.3992  0.4073  0.9876
15886TIP3    H269150   1.117   4.680   2.751 -0.5542  0.2757  0.4165
15887TIP3   OH269151   3.538   4.950  13.425 -0.2941  0.3682 -0.7946
15887TIP3    H169152   3.453   4.970  13.462  0.5719  2.1005  0.3955
15887TIP3    H269153   3.546   5.007  13.349  0.0202  0.6856 -0.5342
15888TIP3   OH269154   3.159   5.851   3.020  0.0238  0.0525  0.3598
15888TIP3    H169155   3.184   5.842   3.112  1.1962 -0.8882 -0.0258
15888TIP3    H269156   3.234   5.817   2.971 -0.4077  0.9376 -0.9649
15889TIP3   OH269157   4.825   6.301  15.480 -0.1702 -0.3112 -1.0150
15889TIP3    H169158   4.849   6.271  15.568 -1.8042  0.6663 -0.1845
15889TIP3    H269159   4.904   6.289  15.428  1.4789  0.9101  1.0670
15890TIP3   OH269160   3.215   0.872  14.635 -0.2502 -0.2759 -0.2599
15890TIP3    H169161   3.277   0.800  14.629 -0.2023 -0.1471 -1.8687
15890TIP3    H269162   3.196   0.895  14.544  0.7500  2.5905  0.1626
15891TIP3   OH269163   5.776   0.419  12.936  0.4455 -0.1821  0.2516
15891TIP3    H169164   5.754   0.500  12.983 -1.1583 -1.0343  1.0691
15891TIP3    H269165   5.692   0.374  12.927  1.1437 -1.2574 -1.1750
15892TIP3   OH269166   5.338   3.109   1.932 -0.0025  0.3639  0.1902
15892TIP3    H169167   5.354   3.176   2.000  0.4526  1.7585 -1.2262
15892TIP3    H269168   5.420   3.106   1.883 -0.4242 -0.4217 -0.4789
15893TIP3   OH269169   5.860   5.598   4.941  0.3931 -0.6393 -0.1559
15893TIP3    H169170   5.900   5.529   4.994 -0.2632 -1.5398 -0.8094
15893TIP3    H269171   5.895   5.585   4.853  2.0632  1.3077  0.1390
15894TIP3   OH269172   2.901   0.967   2.067  0.2540 -0.1546  0.1994
15894TIP3    H169173   2.977   0.945   2.013  1.2994 -0.1375  1.6083
15894TIP3    H269174   2.938   0.992   2.152 -1.3334 -0.1810  0.9375
15895TIP3   OH269175   1.804   2.086  12.395 -0.5206  0.0013  0.1333
15895TIP3    H169176   1.820   2.148  12.324  0.6029  0.7780  1.0291
15895TIP3    H269177   1.719   2.112  12.430  0.3222  1.6805  1.0812
15896TIP3   OH269178   5.539   6.742   5.752 -0.3211  0.1828 -0.1494
15896TIP3    H169179   5.608   6.699   5.803  1.1478  1.6237 -0.8250
15896TIP3    H269180   5.497   6.801   5.814  2.4045  3.0086 -0.7652
15897TIP3   OH269181   1.559   1.661   5.604 -0.3916  0.9571 -0.1305
15897TIP3    H169182   1.580   1.705   5.687  0.1031  2.0994 -0.8346
15897TIP3    H269183   1.596   1.573   5.614  0.7529  1.4717  0.4199
15898TIP3   OH269184   0.515   1.717   4.963 -0.2497  0.1246  0.8094
15898TIP3    H169185   0.577   1.730   5.035 -0.6307  0.4904  1.0819
15898TIP3    H269186   0.441   1.773   4.986  0.2290  1.4180 -0.6032
15899TIP3   OH269187   2.657   2.817   1.915 -1.2028  0.0698  0.8199
15899TIP3    H169188   2.657   2.736   1.864  1.5720  0.2070  0.4339
15899TIP3    H269189   2.602   2.799   1.991 -1.3504 -1.8652  0.2875
15900TIP3   OH269190   5.791   6.261   5.178  0.2849 -0.3335  0.7136
15900TIP3    H169191   5.709   6.240   5.224 -1.1495 -1.4791 -2.0701
15900TIP3    H269192   5.831   6.175   5.162  0.0863 -0.1293 -1.1232
15901TIP3   OH269193   6.769   7.075  13.428 -0.2811  0.0130  0.3528
15901TIP3    H169194   6.814   7.146  13.381 -0.3180  0.5678  1.1261
15901TIP3    H269195   6.840   7.024  13.467 -0.2589  1.3519  2.2456
15902TIP3   OH269196   6.438   0.061  15.527 -0.4180  0.7053 -0.2411
15902TIP3    H169197   6.429   0.041  15.620 -0.8553 -0.0961 -0.4429
15902TIP3    H269198   6.518   0.113  15.521  1.7756 -2.3131  0.2114
15903TIP3   OH269199   6.025   0.126  12.588 -0.2384 -0.4484 -0.8270
15903TIP3    H169200   6.008   0.034  12.605  3.0069 -0.8635  1.1655
15903TIP3    H269201   5.975   0.173  12.655  1.0571 -1.1321  0.7063
15904TIP3   OH269202   6.570   3.766   2.127 -0.6659  0.4096  0.5496
15904TIP3    H169203   6.547   3.801   2.213 -0.4393 -0.4220  0.9596
15904TIP3    H269204   6.488   3.731   2.093 -0.5813 -0.0423  0.8057
15905TIP3   OH269205   6.682   0.537   1.776 -0.7805 -0.0403 -0.0963
15905TIP3    H169206   6.610   0.520   1.716 -5.1308  4.2373  3.1664
15905TIP3    H269207   6.664   0.481   1.851  0.7133 -0.5190 -0.0576
15906TIP3   OH269208   7.051   4.042  12.308  0.1240  0.1489 -0.1441
15906TIP3    H169209   6.999   3.975  12.352  0.4413 -0.5146 -0.7566
15906TIP3    H269210   7.110   4.075  12.375 -0.7795  0.6052  0.4503
15907TIP3   OH269211   1.837   2.164   5.287 -0.2859 -0.4536 -0.2552
15907TIP3    H169212   1.924   2.147   5.252  0.4246  0.9993  0.7639
15907TIP3    H269213   1.821   2.092   5.348  0.3555 -0.5118 -0.1561
15908TIP3   OH269214   5.799   6.696   0.998 -0.0414 -0.5207  0.0681
15908TIP3    H169215   5.862   6.768   1.007  1.4952 -2.0278  2.4532
15908TIP3    H269216   5.798   6.677   0.904 -0.5642  2.5808 -0.6642
15909TIP3   OH269217   6.296   0.592  13.298 -0.4764 -0.4725  0.0748
15909TIP3    H169218   6.352   0.538  13.354 -0.3022  0.0946  0.4668
15909TIP3    H269219   6.228   0.533  13.267 -0.1173 -0.9860  0.2474
15910TIP3   OH269220   6.823   6.641  13.822  0.5240  0.5221 -0.8502
15910TIP3    H169221   6.811   6.669  13.913  0.0277 -1.2691 -0.3162
15910TIP3    H269222   6.907   6.594  13.822 -0.7140 -1.8604 -0.6207
15911TIP3   OH269223   6.186   5.455   1.327  0.2055  0.9224 -0.2572
15911TIP3    H169224   6.229   5.370   1.314 -2.2566 -0.1748 -2.0390
15911TIP3    H269225   6.234   5.516   1.272 -1.0046 -0.5169 -3.1104
15912TIP3   OH269226   5.580   1.235   4.691  0.0338 -0.2157  0.0864
15912TIP3    H169227   5.621   1.151   4.672 -1.0104 -0.5184 -0.9392
15912TIP3    H269228   5.622   1.264   4.772  2.3242 -0.4497 -0.9281
15913TIP3   OH269229   0.742   3.698  10.029 -0.2616 -0.1584 -0.0109
15913TIP3    H169230   0.835   3.679  10.040  0.1014  1.6918  0.4275
15913TIP3    H269231   0.713   3.726  10.116 -1.3204 -1.0260 -0.0633
15914TIP3   OH269232   1.078   0.321   2.082  0.1457 -0.3755  0.1784
15914TIP3    H169233   1.090   0.238   2.035  0.2752  0.3415 -1.0981
15914TIP3    H269234   1.117   0.306   2.168  1.4249 -1.2097 -0.5143
15915TIP3   OH269235   3.225   2.414   5.968  0.0685  0.2326 -0.2227
15915TIP3    H169236   3.178   2.412   5.885  0.2144 -0.1469 -0.3015
15915TIP3    H269237   3.195   2.335   6.013 -0.9467  1.0628  0.6120
15916TIP3   OH269238   2.009   3.973   3.685 -0.0266  0.3707  0.2626
15916TIP3    H169239   1.936   4.002   3.631  0.5642 -2.0651 -2.0076
15916TIP3    H269240   1.971   3.910   3.746 -0.1256  0.4696  0.3017
15917TIP3   OH269241   2.754   2.649  14.893 -0.5234 -0.3104  0.3647
15917TIP3    H169242   2.720   2.567  14.929  0.9846 -1.1218  0.0287
15917TIP3    H269243   2.823   2.676  14.954  1.1051 -0.9769 -1.0801
15918TIP3   OH269244   6.210   5.308  13.780 -0.0056 -0.1583  0.0705
15918TIP3    H169245   6.297   5.316  13.819  0.0943 -0.1132 -0.1633
15918TIP3    H269246   6.223   5.325  13.687 -0.3024  0.0848  0.0722
15919TIP3   OH269247   4.092   1.686   0.873 -0.2326 -0.8698  0.2567
15919TIP3    H169248   4.179   1.690   0.834 -0.7882  1.7764 -0.9801
15919TIP3    H269249   4.041   1.632   0.813  0.0757 -0.7292 -0.1360
15920TIP3   OH269250   2.517   1.521  11.333  0.1068  0.4369 -0.0079
15920TIP3    H169251   2.528   1.606  11.375 -0.9065  0.3198  0.5052
15920TIP3    H269252   2.504   1.460  11.405  2.0569 -0.3848 -0.2894
15921TIP3   OH269253   0.200   4.920   1.984  0.1196 -0.1098 -0.5397
15921TIP3    H169254   0.178   4.888   1.897 -0.4953 -2.1961  0.3078
15921TIP3    H269255   0.142   4.872   2.043  0.0116  1.7535  0.9926
15922TIP3   OH269256   6.242   0.387   2.460 -0.6114 -0.1786  0.5594
15922TIP3    H169257   6.202   0.307   2.428  1.0325 -0.2655 -1.5402
15922TIP3    H269258   6.260   0.438   2.381  2.2968  0.3103  1.4125
15923TIP3   OH269259   5.068   5.240  11.001 -0.0994  0.1424 -0.3058
15923TIP3    H169260   4.992   5.298  11.003  0.7232  1.4119 -2.3886
15923TIP3    H269261   5.104   5.251  10.913  2.1369 -0.8944  0.4099
15924TIP3   OH269262   0.701   4.835   0.599  0.4624 -0.1207  0.0920
15924TIP3    H169263   0.661   4.775   0.662 -1.5155 -0.0355 -0.9899
15924TIP3    H269264   0.714   4.782   0.520 -0.5160  0.6138 -0.5967
15925TIP3   OH269265   5.782   2.957   2.466  0.2372 -0.4763 -0.4232
15925TIP3    H169266   5.866   2.910   2.463 -0.3314 -1.4996 -2.5911
15925TIP3    H269267   5.802   3.044   2.431  0.3115 -0.9504 -1.6237
15926TIP3   OH269268   0.951   5.742   5.199 -0.4915  0.0558 -0.0136
15926TIP3    H169269   0.911   5.800   5.264 -0.0907 -0.5142  0.7546
15926TIP3    H269270   0.990   5.671   5.251  0.8732  0.2124 -0.8006
15927TIP3   OH269271   5.923   6.317  13.233  0.1174  0.3397  0.5835
15927TIP3    H169272   5.961   6.254  13.172  0.2177 -0.6115  1.6072
15927TIP3    H269273   5.890   6.387  13.177  1.0830 -0.0336 -0.4957
15928TIP3   OH269274   6.911   6.547   1.522  0.0193 -0.2035 -0.8574
15928TIP3    H169275   6.901   6.619   1.585 -0.0121 -1.4013  0.5579
15928TIP3    H269276   6.969   6.583   1.454  2.1944  0.3543  1.1622
15929TIP3   OH269277   3.267   1.776   3.791 -0.1860 -0.1038 -0.3390
15929TIP3    H169278   3.338   1.764   3.727  0.4026 -0.2875  0.3328
15929TIP3    H269279   3.312   1.777   3.876 -0.9505  0.2258  0.0629
15930TIP3   OH269280   5.962   3.086   1.296 -0.5283  0.0188  0.5500
15930TIP3    H169281   6.051   3.087   1.260 -1.1141  0.0015 -0.9901
15930TIP3    H269282   5.937   2.994   1.295 -0.6280  0.0420  0.8246
15931TIP3   OH269283   2.214   3.207   2.443 -0.5841  0.3867 -0.4745
15931TIP3    H169284   2.207   3.185   2.350  1.0664  0.8954 -0.7477
15931TIP3    H269285   2.307   3.197   2.463 -0.7499  1.2885  0.8631
15932TIP3   OH269286   3.324   3.520  13.288 -0.0363 -0.0726  0.0728
15932TIP3    H169287   3.302   3.597  13.340 -1.2835 -1.1996  1.2773
15932TIP3    H269288   3.339   3.451  13.352  1.5136 -0.7641 -0.9573
15933TIP3   OH269289   2.788   7.007   4.550  0.2075 -0.0655  0.1861
15933TIP3    H169290   2.801   7.092   4.591 -0.7229 -0.0686  0.5046
15933TIP3    H269291   2.876   6.972   4.539  0.5215  0.3653  1.2677
15934TIP3   OH269292   6.820   3.808   4.486 -0.9143  0.0426 -0.1041
15934TIP3    H169293   6.795   3.777   4.573  0.0728 -2.2531 -0.5802
15934TIP3    H269294   6.908   3.845   4.497 -1.2908  0.9160  0.0791
15935TIP3   OH269295   3.999   4.374  14.598  0.0932  0.2798  0.7204
15935TIP3    H169296   4.050   4.295  14.580  0.7561  0.0238  3.3104
15935TIP3    H269297   3.950   4.354  14.677 -4.8400  0.2375 -1.9615
15936TIP3   OH269298   0.186   2.691   2.912  0.1195  0.6514 -0.3237
15936TIP3    H169299   0.202   2.597   2.922  0.8313  0.8355  0.4415
15936TIP3    H269300   0.109   2.697   2.856  1.3139 -0.3495 -2.1744
15937TIP3   OH269301   0.903   2.739   5.023  0.1376 -0.1032  0.0626
15937TIP3    H169302   0.930   2.650   4.998 -1.7835 -0.8569  0.4590
15937TIP3    H269303   0.867   2.729   5.111 -1.2997  0.7935 -0.3943
15938TIP3   OH269304   7.115   3.832  12.697  0.3357 -0.6109  0.4726
15938TIP3    H169305   7.199   3.839  12.652 -0.0642 -1.2068 -0.3882
15938TIP3    H269306   7.064   3.906  12.665 -0.2879 -1.5566 -0.8441
15939TIP3   OH269307   4.741   6.885   3.258 -0.1505 -0.2532 -0.5398
15939TIP3    H169308   4.700   6.943   3.194  0.0291  0.8575  0.3222
15939TIP3    H269309   4.741   6.936   3.340 -0.9046 -1.8445  0.5022
15940TIP3   OH269310   3.439   5.988  11.257  0.0568  0.2854 -0.7692
15940TIP3    H169311   3.472   6.012  11.344 -2.5119  0.1780  0.3305
15940TIP3    H269312   3.382   6.061  11.232 -1.3258 -0.8528 -1.1232
15941TIP3   OH269313   3.533   5.415   5.496  0.5273 -0.1503 -0.2705
15941TIP3    H169314   3.574   5.368   5.424 -0.2135 -1.9481  0.4258
15941TIP3    H269315   3.442   5.427   5.467  0.9110  1.7335 -0.8258
15942TIP3   OH269316   0.981   6.612  12.761  0.1088 -0.1579  0.3477
15942TIP3    H169317   1.009   6.613  12.670  1.2607 -0.4529  0.6744
15942TIP3    H269318   0.901   6.664  12.763  0.4277  0.3963 -0.7204
15943TIP3   OH269319   0.615   5.003   1.651 -0.3777  0.1192 -0.2480
15943TIP3    H169320   0.643   5.089   1.620 -1.6229  1.8750  2.9410
15943TIP3    H269321   0.527   4.992   1.615  0.1408 -0.3211 -1.4334
15944TIP3   OH269322   5.821   1.372   3.161 -0.1328 -0.3806  0.3781
15944TIP3    H169323   5.909   1.340   3.144  1.1777  2.6833  0.7297
15944TIP3    H269324   5.810   1.445   3.100 -1.5564  0.6705  1.7975
15945TIP3   OH269325   4.444   2.294   1.201  0.1231  0.3975 -0.6628
15945TIP3    H169326   4.501   2.335   1.266  2.6640 -2.0599 -1.1551
15945TIP3    H269327   4.387   2.236   1.251  2.2146 -1.6453 -0.5010
15946TIP3   OH269328   6.590   6.142   1.152 -0.3513 -0.3462  0.1706
15946TIP3    H169329   6.649   6.208   1.190 -0.9841 -0.6775  1.8025
15946TIP3    H269330   6.523   6.194   1.107  0.0200  0.0678  0.0736
15947TIP3   OH269331   5.075   6.867   3.097 -0.3824 -0.2111 -0.0160
15947TIP3    H169332   5.153   6.841   3.146  0.2670 -3.1833 -2.2932
15947TIP3    H269333   5.004   6.817   3.136 -0.4645 -0.1894 -0.1370
15948TIP3   OH269334   6.872   1.021   1.629  0.4463 -0.0713  0.7647
15948TIP3    H169335   6.889   0.934   1.665 -0.4694 -0.7919 -0.4357
15948TIP3    H269336   6.897   1.014   1.536 -0.5749  0.6198  0.4126
15949TIP3   OH269337   4.058   6.325   1.205 -0.1195 -0.3307 -0.3749
15949TIP3    H169338   4.027   6.238   1.181 -0.7677 -0.1088 -0.3508
15949TIP3    H269339   3.980   6.371   1.236  0.3482  0.0276  0.2891
15950TIP3   OH269340   0.193   3.580   2.548  0.0914 -0.2033 -0.2883
15950TIP3    H169341   0.180   3.655   2.489 -2.3928  0.3318  0.7937
15950TIP3    H269342   0.161   3.505   2.499 -0.7765  0.0396 -0.1085
15951TIP3   OH269343   5.273   5.065  14.924 -0.4583  1.0027 -0.4663
15951TIP3    H169344   5.314   5.150  14.940  1.2581  0.0776  0.3512
15951TIP3    H269345   5.235   5.041  15.008  2.7610 -0.8608  0.6381
15952TIP3   OH269346   4.958   0.910   1.022  0.0886 -0.7200  0.6221
15952TIP3    H169347   4.989   0.832   0.975 -0.7492 -0.1585 -0.9162
15952TIP3    H269348   4.864   0.895   1.032 -0.5656  1.1107 -1.8642
15953TIP3   OH269349   3.083   1.485  13.419 -0.1641 -0.5486 -0.2243
15953TIP3    H169350   3.152   1.419  13.412  1.3797  0.9678 -0.0185
15953TIP3    H269351   3.116   1.559  13.369 -1.7258  0.1882 -0.2172
15954TIP3   OH269352   2.478   6.092   5.153 -0.3260 -0.2025  0.1045
15954TIP3    H169353   2.456   6.144   5.230  1.8510 -0.5501  1.0204
15954TIP3    H269354   2.565   6.122   5.127 -0.0009 -1.7635 -0.7539
15955TIP3   OH269355   5.130   1.670  11.392  0.5290  0.4726 -0.3962
15955TIP3    H169356   5.140   1.720  11.311  2.4818 -0.4844 -0.8181
15955TIP3    H269357   5.194   1.599  11.384 -0.1363 -0.3997  1.4324
15956TIP3   OH269358   6.439   2.819   5.793  0.5368  0.1412 -0.4129
15956TIP3    H169359   6.524   2.779   5.813 -0.6354 -1.8518  0.9631
15956TIP3    H269360   6.405   2.767   5.720  0.2252  0.5313 -0.5465
15957TIP3   OH269361   3.490   0.284  15.463  0.4923 -0.1638 -0.0356
15957TIP3    H169362   3.492   0.231  15.384 -1.1044  0.0589 -0.2562
15957TIP3    H269363   3.562   0.251  15.516 -0.7984 -3.0196  0.1312
15958TIP3   OH269364   0.920   4.803  13.863  0.5747  0.7476 -0.2437
15958TIP3    H169365   0.970   4.811  13.782 -0.7857  0.6633 -1.1311
15958TIP3    H269366   0.830   4.824  13.837  0.0429  0.2834  1.1600
15959TIP3   OH269367   6.704   4.192   5.263 -0.8273  1.0036  0.2730
15959TIP3    H169368   6.778   4.131   5.261 -0.9489  0.7051  2.2970
15959TIP3    H269369   6.627   4.136   5.250 -0.8011  1.0726 -0.1853
15960TIP3   OH269370   1.592   5.113   6.234 -0.4562 -0.0967 -0.3484
15960TIP3    H169371   1.685   5.092   6.220 -0.5701  0.0581 -1.4307
15960TIP3    H269372   1.589   5.209   6.233 -0.5798 -0.0969  0.0344
15961TIP3   OH269373   4.819   4.505  15.431 -0.2407  0.9328  0.6317
15961TIP3    H169374   4.805   4.449  15.355  1.0693 -0.7268  1.5196
15961TIP3    H269375   4.792   4.592  15.403 -2.9260 -0.2192 -0.6403
15962TIP3   OH269376   1.038   6.877   4.948 -0.4688  0.0466  0.5722
15962TIP3    H169377   0.961   6.933   4.956 -0.1854  0.4410  0.5384
15962TIP3    H269378   1.107   6.935   4.916 -0.6655 -0.7352 -1.3690
15963TIP3   OH269379   0.364   5.557   2.694 -0.1438  0.4660 -0.0351
15963TIP3    H169380   0.433   5.521   2.749  1.0894  0.9016 -1.2341
15963TIP3    H269381   0.286   5.509   2.719  0.4055  0.5049  1.9159
15964TIP3   OH269382   3.593   5.351  14.461 -0.1710  0.4924 -0.0522
15964TIP3    H169383   3.682   5.321  14.440 -0.3106 -0.2929  0.4188
15964TIP3    H269384   3.603   5.407  14.537 -0.3136 -1.6402  1.6383
15965TIP3   OH269385   4.324   1.431   9.264  0.1474  0.3364  0.5107
15965TIP3    H169386   4.388   1.452   9.331  1.1323 -1.5577  0.2398
15965TIP3    H269387   4.355   1.348   9.226 -0.7385  0.9744 -1.7935
15966TIP3   OH269388   0.055   4.777   3.195  0.5038 -0.1997  0.1279
15966TIP3    H169389   0.121   4.719   3.157  0.9752 -0.0879  0.7640
15966TIP3    H269390   0.035   4.739   3.280  0.8991  0.6121  0.6048
15967TIP3   OH269391   2.336   5.836  10.601 -0.2414 -0.5445  0.0757
15967TIP3    H169392   2.286   5.842  10.682 -1.0806 -1.8212 -0.3175
15967TIP3    H269393   2.417   5.791  10.626  2.0681  3.7156  1.2478
15968TIP3   OH269394   4.623   3.028   4.645  0.0437  0.0213 -0.6488
15968TIP3    H169395   4.543   3.080   4.652 -2.0035 -2.8719 -0.7354
15968TIP3    H269396   4.651   3.040   4.554 -0.9110  0.2817 -0.9245
15969TIP3   OH269397   5.049   5.806  11.619  0.0887  0.1495  0.5350
15969TIP3    H169398   5.124   5.805  11.678  2.6914 -1.8214 -2.4345
15969TIP3    H269399   5.079   5.857  11.544 -3.1383  2.7596  0.8088
15970TIP3   OH269400   3.908   2.962   5.768  0.3299  0.2101 -0.1705
15970TIP3    H169401   3.825   2.919   5.747 -0.7087  0.8644  2.2084
15970TIP3    H269402   3.972   2.892   5.773 -0.5517 -0.6018  0.0144
15971TIP3   OH269403   6.537   0.681   4.515 -0.1608  0.1067 -0.0813
15971TIP3    H169404   6.590   0.634   4.580 -1.1251  0.5476  1.0827
15971TIP3    H269405   6.480   0.737   4.568 -1.3709  0.0765 -1.3031
15972TIP3   OH269406   2.467   4.035  13.426 -0.3972  0.2212  0.3046
15972TIP3    H169407   2.416   4.091  13.485 -3.3362 -0.7059 -1.1958
15972TIP3    H269408   2.541   4.005  13.480 -0.9340  2.2801  2.3455
15973TIP3   OH269409   4.063   6.661  10.961 -0.4240  0.6903  0.3613
15973TIP3    H169410   4.011   6.685  11.038  0.9386  2.1923  0.8627
15973TIP3    H269411   4.103   6.744  10.933  0.3366 -0.1249 -1.0316
15974TIP3   OH269412   1.017   6.349   1.016 -0.4300  0.0660 -0.3520
15974TIP3    H169413   1.010   6.407   0.939 -3.2306 -0.4202 -0.5769
15974TIP3    H269414   1.099   6.302   1.003  1.4889  3.1959 -0.6682
15975TIP3   OH269415   3.695   6.442  13.233 -0.4212 -0.0628  0.2171
15975TIP3    H169416   3.731   6.421  13.147 -1.1392  0.0855 -0.1290
15975TIP3    H269417   3.692   6.358  13.279  0.9181  0.0062  0.4893
15976TIP3   OH269418   5.567   7.036   0.352  0.3283  0.2956  0.4735
15976TIP3    H169419   5.609   7.118   0.378  2.5480 -0.6783  0.2088
15976TIP3    H269420   5.543   7.049   0.261  1.2925  0.4212  0.2334
15977TIP3   OH269421   5.551   4.938   3.271 -0.1011  0.9510 -0.4518
15977TIP3    H169422   5.567   4.963   3.362 -1.2811 -3.1145  1.0798
15977TIP3    H269423   5.639   4.931   3.233  0.5049  1.0333  0.8763
15978TIP3   OH269424   3.744   2.174   0.554  0.8401  0.4039  0.1293
15978TIP3    H169425   3.734   2.230   0.478  2.0840  0.8962  0.3030
15978TIP3    H269426   3.786   2.229   0.620  0.3874 -0.2021  0.9515
15979TIP3   OH269427   7.043   0.930   0.083  0.0522  0.5745  0.6508
15979TIP3    H169428   7.030   0.942   0.177 -0.9894 -0.7226  0.7001
15979TIP3    H269429   7.138   0.940   0.071  0.1391  1.3080  1.7372
15980TIP3   OH269430   1.039   0.852  12.623  0.4214 -0.3857 -0.2286
15980TIP3    H169431   0.998   0.894  12.699  0.4522 -2.8242  1.2332
15980TIP3    H269432   0.972   0.855  12.555  0.0128  0.9101  0.1874
15981TIP3   OH269433   4.451   2.455   5.957  0.0274 -0.3127  0.2402
15981TIP3    H169434   4.428   2.367   5.927 -2.4382  0.1671  0.5053
15981TIP3    H269435   4.368   2.502   5.958  1.5385  2.7633 -2.1412
15982TIP3   OH269436   2.924   3.547   4.086 -0.4230 -0.0375 -0.0224
15982TIP3    H169437   2.860   3.500   4.139 -0.6945 -0.6316 -0.8582
15982TIP3    H269438   2.911   3.514   3.997  0.8702  0.0120 -0.2531
15983TIP3   OH269439   5.525   4.879   3.896  0.0794 -0.0557  0.0522
15983TIP3    H169440   5.472   4.911   3.824 -2.0677  0.4302  1.7429
15983TIP3    H269441   5.560   4.958   3.937 -1.7052 -0.0164  1.6512
15984TIP3   OH269442   2.223   2.618  12.219  0.1645  0.7154 -0.1010
15984TIP3    H169443   2.310   2.586  12.196  0.3870  1.3260 -0.1483
15984TIP3    H269444   2.230   2.713  12.211 -0.9535  0.7084 -1.6887
15985TIP3   OH269445   6.159   4.744   4.382 -0.0884  0.3863  0.3092
15985TIP3    H169446   6.160   4.809   4.312 -1.1715 -0.0266 -0.1102
15985TIP3    H269447   6.232   4.685   4.360  0.7408  1.2941  0.5597
15986TIP3   OH269448   2.351   3.883   5.310 -0.4419  0.2090 -0.0410
15986TIP3    H169449   2.324   3.800   5.350 -5.1006  1.7527  0.6805
15986TIP3    H269450   2.373   3.940   5.384 -0.6691  0.5827 -0.2546
15987TIP3   OH269451   3.309   1.153   0.885  0.1452 -0.0181  0.5931
15987TIP3    H169452   3.357   1.226   0.923  0.8560 -0.6857  1.0129
15987TIP3    H269453   3.254   1.120   0.956 -0.9513  0.7218  0.1246
15988TIP3   OH269454   4.873   2.461  14.086  0.2183  0.5489  0.0163
15988TIP3    H169455   4.807   2.392  14.088 -0.1960  0.8065 -1.9507
15988TIP3    H269456   4.946   2.427  14.138 -1.3841  0.2356  2.1865
15989TIP3   OH269457   5.192   6.781  13.999  0.3037 -0.1507 -0.2045
15989TIP3    H169458   5.244   6.804  13.922  0.2759 -1.9985 -0.8232
15989TIP3    H269459   5.252   6.731  14.054  0.0820  0.4418  0.5903
15990TIP3   OH269460   0.460   2.924  12.306  0.1941  0.0557 -0.0977
15990TIP3    H169461   0.381   2.977  12.309 -0.2577 -0.4993 -1.4508
15990TIP3    H269462   0.499   2.933  12.393 -0.2747  1.9587 -0.0561
15991TIP3   OH269463   0.676   6.043   2.912 -0.3924 -0.2118 -0.6090
15991TIP3    H169464   0.650   5.952   2.925 -2.3838  0.3322 -0.5709
15991TIP3    H269465   0.615   6.077   2.848  0.0622  1.2258 -0.3111
15992TIP3   OH269466   3.996   2.814  15.113 -0.1005 -0.0901  0.1045
15992TIP3    H169467   4.066   2.793  15.175  1.5424  0.5520 -1.4355
15992TIP3    H269468   3.970   2.730  15.077 -1.5521 -0.5561  2.0577
15993TIP3   OH269469   3.015   5.775   2.131 -0.8421  0.1777 -0.4216
15993TIP3    H169470   2.925   5.770   2.162 -0.5030  0.6482  0.6950
15993TIP3    H269471   3.049   5.856   2.170 -0.0917  0.2845 -1.2571
15994TIP3   OH269472   0.839   5.479   0.901 -0.4793  0.1511 -0.4647
15994TIP3    H169473   0.759   5.427   0.900 -0.8231  0.6322  0.3786
15994TIP3    H269474   0.910   5.416   0.888 -0.9503 -0.3741 -0.5210
15995TIP3   OH269475   2.239   6.020  13.678  0.4231 -0.2192 -0.6962
15995TIP3    H169476   2.313   6.077  13.699 -2.0379  2.8906  0.3464
15995TIP3    H269477   2.228   6.029  13.584  1.5571 -1.0420 -0.9298
15996TIP3   OH269478   4.606   5.279   0.382 -0.1957  0.2328 -0.0239
15996TIP3    H169479   4.654   5.196   0.378  0.3601  0.5695 -0.5869
15996TIP3    H269480   4.657   5.332   0.443  1.1176  1.1630 -1.8279
15997TIP3   OH269481   0.300   0.961   9.407  0.1289  0.4060  0.8734
15997TIP3    H169482   0.213   1.001   9.408  0.0136  0.1599  1.7091
15997TIP3    H269483   0.284   0.867   9.420  0.3209 -0.1376 -2.2290
15998TIP3   OH269484   5.903   6.598  14.117 -0.1375 -0.5315  0.1275
15998TIP3    H169485   5.994   6.581  14.143 -0.2519 -0.9841  0.2388
15998TIP3    H269486   5.910   6.635  14.029  0.1781 -0.1685  0.3012
15999TIP3   OH269487   3.774   2.384  10.856 -0.1112  0.4023  0.5210
15999TIP3    H169488   3.861   2.344  10.862 -0.3631 -0.1670  0.4305
15999TIP3    H269489   3.776   2.456  10.920  0.6155  0.7584  0.1032
16000TIP3   OH269490   4.369   0.343   2.848  0.3986 -0.6844  0.0433
16000TIP3    H169491   4.303   0.341   2.917 -1.5456  0.4590 -1.6784
16000TIP3    H269492   4.445   0.300   2.887 -0.3673  0.4688  3.0866
16001TIP3   OH269493   4.011   7.022   4.599  0.1460 -0.4390 -0.0950
16001TIP3    H169494   3.972   6.963   4.664  1.1723 -2.1329 -0.9680
16001TIP3    H269495   3.941   7.085   4.579 -0.4955 -0.4328  1.9365
16002TIP3   OH269496   5.679   5.073   0.563  0.6378 -0.2884 -0.3426
16002TIP3    H169497   5.635   4.996   0.599  0.8130  0.5458  1.8155
16002TIP3    H269498   5.712   5.120   0.639 -0.9168  2.8388 -1.4076
16003TIP3   OH269499   5.721   2.467   4.149 -0.1634  0.0728  0.7180
16003TIP3    H169500   5.815   2.477   4.137 -0.1580  0.2072  0.8619
16003TIP3    H269501   5.711   2.444   4.241 -0.1819 -1.2261  0.4054
16004TIP3   OH269502   0.513   1.403   4.350 -0.3279  0.0453  0.6383
16004TIP3    H169503   0.470   1.450   4.279  1.1203  1.1079  0.4181
16004TIP3    H269504   0.576   1.346   4.307 -0.9089 -0.9117  0.9981
16005TIP3   OH269505   4.579   2.890   5.151 -0.4194 -0.1665  0.0073
16005TIP3    H169506   4.536   2.919   5.232 -0.3755  1.2186 -0.4352
16005TIP3    H269507   4.515   2.831   5.110 -1.2474  0.5955  0.1518
16006TIP3   OH269508   1.199   1.803  12.191  0.0332 -0.1900  0.1100
16006TIP3    H169509   1.119   1.761  12.223 -0.2279 -0.0969 -0.4078
16006TIP3    H269510   1.203   1.886  12.240  0.1537 -0.4745  0.5913
16007TIP3   OH269511   7.160   6.824   2.954 -0.2863  0.1869  0.0771
16007TIP3    H169512   7.116   6.753   3.002 -2.4325  1.3609 -0.0283
16007TIP3    H269513   7.163   6.793   2.864 -1.4507  0.3247 -0.0164
16008TIP3   OH269514   2.206   4.359   4.464  0.0478  0.0339  0.0443
16008TIP3    H169515   2.156   4.290   4.421  0.5939 -0.9053  0.8589
16008TIP3    H269516   2.215   4.329   4.554  3.0239 -0.4488 -0.2945
16009TIP3   OH269517   1.285   3.772   5.098  0.0364  0.0919  0.1018
16009TIP3    H169518   1.196   3.785   5.130  0.9760  1.6245  2.3660
16009TIP3    H269519   1.332   3.732   5.171  1.2178 -0.8007 -1.0821
16010TIP3   OH269520   0.423   2.917   2.752 -0.4122 -0.2721  0.0213
16010TIP3    H169521   0.496   2.866   2.717 -2.1116 -2.7053 -0.2506
16010TIP3    H269522   0.404   2.877   2.837 -1.4365  0.2542  0.0573
16011TIP3   OH269523   2.010   0.417   4.290  0.3864  0.2480  0.4035
16011TIP3    H169524   2.085   0.478   4.287  2.8731 -2.5884 -0.1314
16011TIP3    H269525   2.019   0.365   4.211 -0.1708 -2.3334  1.9308
16012TIP3   OH269526   4.478   5.439  15.548 -0.1134 -0.0998  0.0703
16012TIP3    H169527   4.509   5.529  15.534  0.0578 -0.5289 -2.9182
16012TIP3    H269528   4.382   5.446  15.542 -0.1502 -0.0264  0.6609
16013TIP3   OH269529   3.681   4.031   4.780 -0.2074 -0.3255 -0.0199
16013TIP3    H169530   3.633   4.112   4.799  0.0045 -0.3841  0.8178
16013TIP3    H269531   3.614   3.968   4.757 -0.3919  0.0419 -0.4982
16014TIP3   OH269532   2.868   1.815   4.183 -0.2221  0.1202  0.3403
16014TIP3    H169533   2.908   1.843   4.101 -0.6494  1.0514  0.4282
16014TIP3    H269534   2.850   1.897   4.229 -0.8855 -0.3493  0.9298
16015TIP3   OH269535   7.063   0.476  10.987  0.8464  0.5842  0.1861
16015TIP3    H169536   7.056   0.464  10.892 -0.3444  0.2288  0.3063
16015TIP3    H269537   7.156   0.491  11.002  1.2794 -0.8263 -0.8735
16016TIP3   OH269538   7.103   1.990  12.978  0.1441 -0.0276 -0.2454
16016TIP3    H169539   7.048   1.929  13.027  1.6464 -0.5575  0.8662
16016TIP3    H269540   7.180   2.003  13.033  0.2805  2.2080 -0.8745
16017TIP3   OH269541   1.697   4.582   4.494  0.4454  0.1865 -0.7097
16017TIP3    H169542   1.629   4.638   4.456 -1.9595 -0.5140  2.1270
16017TIP3    H269543   1.699   4.504   4.438 -1.0114  0.3170 -0.9845
16018TIP3   OH269544   7.085   3.287   3.114 -0.3376 -0.0622  0.6048
16018TIP3    H169545   6.995   3.256   3.122 -1.3229  2.6344  1.1958
16018TIP3    H269546   7.138   3.208   3.108 -2.6299 -1.7602  1.4370
16019TIP3   OH269547   5.572   2.328  12.978  0.5642 -0.1973 -0.7872
16019TIP3    H169548   5.495   2.324  13.035  0.1665  2.4737 -1.0148
16019TIP3    H269549   5.626   2.398  13.014  2.6412 -1.6245 -0.9869
16020TIP3   OH269550   3.155   1.062  10.893  0.7524  0.2920 -0.4165
16020TIP3    H169551   3.150   1.098  10.804  1.0047 -0.0409 -0.5679
16020TIP3    H269552   3.215   1.120  10.939 -0.6751  1.4641  0.0272
16021TIP3   OH269553   4.130   3.080   2.930  0.0293 -0.7980 -0.0894
16021TIP3    H169554   4.110   3.029   3.009 -0.8707  3.0188  2.4004
16021TIP3    H269555   4.208   3.130   2.954  0.2918 -0.2043 -2.0339
16022TIP3   OH269556   2.035   1.353   2.064  0.2329  0.0305 -0.6184
16022TIP3    H169557   2.049   1.315   1.977  0.0998 -0.0881 -0.5882
16022TIP3    H269558   2.009   1.279   2.119  1.7811 -0.1709 -0.1218
16023TIP3   OH269559   1.324   6.905   0.923  0.3251  0.0161  0.1197
16023TIP3    H169560   1.411   6.931   0.892  0.4803  1.8482  1.9190
16023TIP3    H269561   1.296   6.976   0.980 -1.3813 -1.6121  1.4382
16024TIP3   OH269562   3.676   3.971   2.322  0.3238  0.4005 -0.1413
16024TIP3    H169563   3.675   4.030   2.397  1.0285 -1.0127  1.0353
16024TIP3    H269564   3.589   3.980   2.283  0.7642  2.9815 -0.6796
16025TIP3   OH269565   7.156   4.231   3.379  0.5897  0.6089  0.0088
16025TIP3    H169566   7.234   4.246   3.432 -0.4167 -1.7231  2.3713
16025TIP3    H269567   7.154   4.136   3.365  0.1199  0.9897 -3.2852
16026TIP3   OH269568   2.579   2.331  11.153 -0.2086  0.0311 -0.0837
16026TIP3    H169569   2.502   2.387  11.166  0.6238  0.8857  1.4609
16026TIP3    H269570   2.604   2.303  11.241  0.6390 -1.1004 -0.6538
16027TIP3   OH269571   2.076   7.003  10.770 -0.1419 -0.5327 -0.4685
16027TIP3    H169572   2.081   6.909  10.750  0.1310 -0.6597  0.1457
16027TIP3    H269573   2.056   7.045  10.687  0.1767 -1.1004 -0.8367
16028TIP3   OH269574   6.549   4.327  12.536  0.8909 -0.1782 -0.1339
16028TIP3    H169575   6.508   4.267  12.473 -0.2377 -1.6129  1.8400
16028TIP3    H269576   6.530   4.414  12.502  0.6134 -0.8872 -1.9208
16029TIP3   OH269577   4.529   4.924  13.012  0.3604  0.0803 -0.1655
16029TIP3    H169578   4.505   4.889  12.926 -2.4896  2.3531 -0.4728
16029TIP3    H269579   4.623   4.937  13.008  1.2298 -4.6132 -0.9770
16030TIP3   OH269580   6.442   3.037   9.864 -0.8169  0.2985 -1.2627
16030TIP3    H169581   6.468   3.123   9.830 -0.1002  0.3797 -0.5091
16030TIP3    H269582   6.520   2.983   9.855 -0.0790  0.7317  1.6527
16031TIP3   OH269583   2.943   6.992   0.559  0.3451  0.3211 -0.0230
16031TIP3    H169584   2.943   6.988   0.463 -0.2006  1.7688 -0.1056
16031TIP3    H269585   2.852   7.011   0.582  0.0867 -1.7742  0.9083
16032TIP3   OH269586   5.887   5.664  14.506 -0.0613 -0.0443  0.7102
16032TIP3    H169587   5.871   5.583  14.555  0.4905 -0.4647  0.2055
16032TIP3    H269588   5.963   5.704  14.548 -1.7695  1.4925  2.5302
16033TIP3   OH269589   6.412   5.316  12.705 -0.1446  0.0213 -0.3743
16033TIP3    H169590   6.499   5.277  12.699 -0.1837 -0.0067 -0.7896
16033TIP3    H269591   6.426   5.409  12.686 -0.2918 -0.0945 -1.0808
16034TIP3   OH269592   1.478   6.045   4.358  0.6943 -0.1735 -0.1535
16034TIP3    H169593   1.547   6.110   4.350  0.0073  0.7013  0.7758
16034TIP3    H269594   1.506   5.989   4.430  1.3078 -0.9681 -0.9830
16035TIP3   OH269595   1.858   4.357   1.794 -0.2668  0.8211  0.2474
16035TIP3    H169596   1.914   4.292   1.752 -2.5144  0.5430 -2.6356
16035TIP3    H269597   1.792   4.305   1.840 -1.6663  0.9398 -1.5001
16036TIP3   OH269598   7.134   6.685  10.303  0.4910 -0.0233 -0.0459
16036TIP3    H169599   7.122   6.640  10.220  1.9296 -1.0284  0.2683
16036TIP3    H269600   7.056   6.740  10.312  0.0474 -0.3325 -1.7718
16037TIP3   OH269601   2.080   5.852   5.662 -0.4193 -0.3982  0.0098
16037TIP3    H169602   2.043   5.940   5.661  0.9910  0.2389  0.7218
16037TIP3    H269603   2.130   5.846   5.580  0.4701 -0.0765  0.5196
16038TIP3   OH269604   4.688   6.492   4.339 -0.6230 -0.2178 -0.3110
16038TIP3    H169605   4.599   6.524   4.353 -0.4462  0.7193 -1.1875
16038TIP3    H269606   4.686   6.456   4.250  0.1954  1.0123 -0.8424
16039TIP3   OH269607   5.012   2.699  14.123  0.3353 -0.3684  0.7420
16039TIP3    H169608   4.996   2.627  14.063  0.7631  0.0263  0.1432
16039TIP3    H269609   5.027   2.656  14.208 -2.4627 -0.8069  1.0832
16040TIP3   OH269610   4.864   6.003   0.614  0.4565  0.3312  0.2041
16040TIP3    H169611   4.856   6.039   0.525 -0.5645  0.4170  0.3170
16040TIP3    H269612   4.803   6.056   0.666 -1.4818 -1.8154  0.2964
16041TIP3   OH269613   3.472   2.843   3.290  0.3557  0.6871  0.3148
16041TIP3    H169614   3.450   2.889   3.208  0.7889  0.1897 -0.0869
16041TIP3    H269615   3.426   2.893   3.358 -3.2542 -1.0383 -0.6044
16042TIP3   OH269616   1.208   0.877   3.010 -0.1259  0.4830  0.6335
16042TIP3    H169617   1.124   0.886   2.965 -0.4880 -2.5239  0.5011
16042TIP3    H269618   1.185   0.853   3.100  0.4893 -1.8966  0.2287
16043TIP3   OH269619   3.653   0.135   1.059 -0.0900 -0.0007 -0.2433
16043TIP3    H169620   3.709   0.062   1.086 -2.0123 -1.7334 -0.7306
16043TIP3    H269621   3.614   0.166   1.141  2.1603  1.8421  0.2378
16044TIP3   OH269622   5.749   0.208  12.524  0.3106  0.1238 -0.2771
16044TIP3    H169623   5.801   0.147  12.472 -0.0817 -0.1305 -0.3773
16044TIP3    H269624   5.759   0.292  12.481  3.5147  0.8984  1.6767
16045TIP3   OH269625   1.912   2.391  14.538 -0.5389  0.3577  0.2515
16045TIP3    H169626   1.902   2.440  14.457 -0.3550 -0.2686 -0.1580
16045TIP3    H269627   1.837   2.417  14.592 -1.7449 -0.6676 -0.8794
16046TIP3   OH269628   1.416   5.536  13.582 -0.6052 -0.1707  0.6164
16046TIP3    H169629   1.322   5.555  13.576 -0.5352  0.8188  2.1551
16046TIP3    H269630   1.457   5.604  13.529 -0.7845 -1.4236 -1.2165
16047TIP3   OH269631   6.816   4.188   3.100 -0.1129  0.5906 -0.1321
16047TIP3    H169632   6.858   4.163   3.018  0.2543 -0.4900  0.3565
16047TIP3    H269633   6.836   4.281   3.111 -0.0255  0.7014 -1.1743
16048TIP3   OH269634   4.542   1.530  14.521  0.0404 -0.2483  0.5868
16048TIP3    H169635   4.583   1.610  14.488 -0.4330 -0.0883  0.3792
16048TIP3    H269636   4.604   1.495  14.585  1.2773 -0.9063 -0.9115
16049TIP3   OH269637   5.767   2.411   5.410  0.1297 -0.0332  0.2698
16049TIP3    H169638   5.764   2.319   5.438 -0.5094  0.2224  1.0804
16049TIP3    H269639   5.845   2.447   5.452 -0.0647 -0.0011  0.6033
16050TIP3   OH269640   0.189   6.892   1.557 -0.0354  0.4544  0.5676
16050TIP3    H169641   0.236   6.841   1.491  0.5332 -1.1735  2.1723
16050TIP3    H269642   0.254   6.951   1.594 -0.5065  1.8525 -0.7151
16051TIP3   OH269643   6.023   2.022  11.970 -0.1731 -0.0648  0.1376
16051TIP3    H169644   6.092   1.991  11.911  0.2206  0.7194  0.1750
16051TIP3    H269645   6.050   2.111  11.994 -1.1425  0.2069  0.2456
16052TIP3   OH269646   3.955   1.931   0.808  0.2914 -0.3380  0.1092
16052TIP3    H169647   3.895   1.904   0.739  1.7699  0.1114 -1.4202
16052TIP3    H269648   4.007   1.853   0.826 -0.5753 -0.6741  1.3041
16053TIP3   OH269649   5.515   5.699   5.013 -1.1045 -0.0108 -0.1945
16053TIP3    H169650   5.483   5.691   5.103 -1.2186  0.6432 -0.1780
16053TIP3    H269651   5.541   5.609   4.989 -0.3716 -0.0681  0.7518
16054TIP3   OH269652   6.081   5.372   4.297 -0.1203 -0.0524  0.0710
16054TIP3    H169653   6.018   5.426   4.345  1.1810 -0.1704  2.0376
16054TIP3    H269654   6.091   5.415   4.212 -2.2756  0.3635 -0.0199
16055TIP3   OH269655   4.973   1.833   4.609 -0.0826 -0.0432 -0.1375
16055TIP3    H169656   4.982   1.876   4.694 -0.1196  0.4996 -0.4072
16055TIP3    H269657   4.920   1.756   4.628 -0.9623  0.6135  0.1575
16056TIP3   OH269658   3.997   2.905   6.170  0.1793  0.6024 -0.1844
16056TIP3    H169659   4.010   3.000   6.166  0.1336  0.5951 -0.6224
16056TIP3    H269660   4.079   2.868   6.139  0.3494  0.4911  0.4050
16057TIP3   OH269661   0.260   6.929  12.381 -0.2029 -0.9175 -0.8305
16057TIP3    H169662   0.278   6.978  12.462 -0.7730  0.6280 -1.5911
16057TIP3    H269663   0.322   6.857  12.383  0.1044 -0.6589  0.7719
16058TIP3   OH269664   3.570   1.364   5.093 -0.3712  0.6039 -0.1223
16058TIP3    H169665   3.552   1.454   5.120 -1.2513  1.0559 -2.0292
16058TIP3    H269666   3.665   1.357   5.094 -0.3160  1.2482  0.9240
16059TIP3   OH269667   0.149   2.594   4.335 -0.0177 -0.5876 -0.3798
16059TIP3    H169668   0.174   2.549   4.416 -0.0951 -0.7535 -0.4466
16059TIP3    H269669   0.057   2.617   4.348 -0.3744 -1.6469 -0.8746
16060TIP3   OH269670   3.089   5.093   3.285 -0.2815 -0.2407 -0.1001
16060TIP3    H169671   3.048   5.007   3.276  1.4942 -1.1821  0.3639
16060TIP3    H269672   3.182   5.074   3.296  0.4753  1.8338 -2.0969
16061TIP3   OH269673   0.253   3.018   3.837 -0.2874  0.0649 -0.2796
16061TIP3    H169674   0.286   3.012   3.748  0.2140 -1.7988 -0.0032
16061TIP3    H269675   0.330   3.032   3.892 -0.1104 -2.2364  0.1601
16062TIP3   OH269676   5.781   4.503   2.061 -0.0434  0.2082 -0.6633
16062TIP3    H169677   5.866   4.545   2.062  0.0172  0.1091 -1.3414
16062TIP3    H269678   5.730   4.549   2.127  0.7254 -0.1373  0.1896
16063TIP3   OH269679   1.720   6.802   2.515  0.4478 -0.6172 -0.7464
16063TIP3    H169680   1.769   6.721   2.507  0.8050 -0.3042 -2.0380
16063TIP3    H269681   1.714   6.818   2.609  0.8451 -1.8432 -0.4954
16064TIP3   OH269682   1.426   2.525   0.408 -0.2021 -0.1372 -0.1115
16064TIP3    H169683   1.507   2.575   0.397  0.1333 -0.4118  0.9651
16064TIP3    H269684   1.358   2.592   0.419  0.2016  0.0949  1.0506
16065TIP3   OH269685   3.169   2.702   0.214 -0.3975  0.0608 -0.2604
16065TIP3    H169686   3.158   2.793   0.240 -0.6228  0.5320 -1.9032
16065TIP3    H269687   3.220   2.705   0.133  0.4167 -1.3374  0.1611
16066TIP3   OH269688   1.890   5.672  10.307  0.5406  0.2953  0.2739
16066TIP3    H169689   1.809   5.699  10.351  1.2698  1.3576  1.0157
16066TIP3    H269690   1.861   5.628  10.227 -0.7332  2.9601 -0.8166
16067TIP3   OH269691   3.048   0.351   3.031 -0.4002 -0.1037  0.1986
16067TIP3    H169692   2.996   0.366   2.953 -0.7695  0.0793  0.4761
16067TIP3    H269693   3.070   0.438   3.063 -0.3196 -0.1749  0.3427
16068TIP3   OH269694   0.786   4.309   3.548  0.5622 -0.1032 -0.4136
16068TIP3    H169695   0.863   4.326   3.493 -0.1747  1.7366 -0.9436
16068TIP3    H269696   0.773   4.214   3.541  1.0955 -0.0729 -2.6162
16069TIP3   OH269697   5.455   0.376   2.210  0.2179  0.0620 -0.4585
16069TIP3    H169698   5.524   0.331   2.160 -0.8588  0.1016 -2.0389
16069TIP3    H269699   5.415   0.436   2.147 -1.7016 -0.4500  0.2141
16070TIP3   OH269700   0.899   1.242   3.992 -0.5722  0.0664 -0.5127
16070TIP3    H169701   0.904   1.316   3.930 -0.2652  1.4092  1.0559
16070TIP3    H269702   0.878   1.167   3.937 -2.0522  1.5127 -2.0499
16071TIP3   OH269703   0.590   1.138  13.090  0.0631 -0.2454 -0.1321
16071TIP3    H169704   0.567   1.055  13.047  1.6544  0.3876 -2.3574
16071TIP3    H269705   0.589   1.117  13.183 -1.3748 -2.2821 -0.5271
16072TIP3   OH269706   2.176   5.081   3.366  0.1767 -0.0039 -0.5821
16072TIP3    H169707   2.231   5.064   3.289  1.4058 -0.7503  0.4275
16072TIP3    H269708   2.232   5.062   3.441 -1.2817 -0.2051  0.5097
16073TIP3   OH269709   4.557   1.732   9.273  0.3246 -0.0433 -0.0434
16073TIP3    H169710   4.568   1.672   9.199  0.5435  1.7381 -1.5140
16073TIP3    H269711   4.488   1.792   9.245 -0.6227 -0.2058  1.8160
16074TIP3   OH269712   3.136   3.716   2.628 -0.4876 -0.2897  0.5573
16074TIP3    H169713   3.100   3.772   2.696 -0.1650  0.9383 -0.2509
16074TIP3    H269714   3.191   3.774   2.575  1.1003 -1.6737  0.5715
16075TIP3   OH269715   3.980   1.540   0.676  0.2522  0.1160 -0.4766
16075TIP3    H169716   3.989   1.581   0.590 -2.6592  2.1770  0.0637
16075TIP3    H269717   3.892   1.564   0.705  0.3402 -2.2838  2.2076
16076TIP3   OH269718   1.839   1.345   4.921  0.3325  0.0468  0.0638
16076TIP3    H169719   1.800   1.395   4.992  1.1186  0.5039  0.1751
16076TIP3    H269720   1.927   1.380   4.911  1.5661 -2.4477  1.3015
16077TIP3   OH269721   1.536   1.456  14.661  0.1271 -0.1119  0.1259
16077TIP3    H169722   1.475   1.430  14.730 -1.2216  0.8654 -0.6364
16077TIP3    H269723   1.505   1.542  14.634  0.4490 -0.5748 -1.8564
16078TIP3   OH269724   2.304   5.085  13.096 -0.2648  0.5850 -0.2471
16078TIP3    H169725   2.307   5.099  13.190 -1.7670  1.0171 -0.2458
16078TIP3    H269726   2.374   5.142  13.061  0.8544 -0.2016  0.6373
16079TIP3   OH269727   1.611   3.031   1.825 -0.0083  0.3449  0.7780
16079TIP3    H169728   1.651   2.983   1.752 -0.7046  1.5812 -0.4586
16079TIP3    H269729   1.560   2.964   1.871  0.7182 -0.5350  0.3557
16080TIP3   OH269730   5.662   4.266  13.294  0.5203  0.2336 -0.2464
16080TIP3    H169731   5.718   4.206  13.343  2.7001  1.2210 -1.3876
16080TIP3    H269732   5.606   4.306  13.361 -0.4938 -2.4181  0.6375
16081TIP3   OH269733   5.201   5.295   6.173  0.3679  0.7166 -0.0732
16081TIP3    H169734   5.170   5.224   6.229 -0.5149  1.2115  0.0739
16081TIP3    H269735   5.291   5.271   6.153  0.2533 -0.1753  0.4134
16082TIP3   OH269736   2.533   5.574  13.381  0.2984 -0.6695  0.6172
16082TIP3    H169737   2.620   5.597  13.413  0.6161 -2.5783  1.2577
16082TIP3    H269738   2.474   5.635  13.425  1.1850 -0.1753  1.1572
16083TIP3   OH269739   0.639   1.290  12.282 -0.6614 -0.6733 -0.5787
16083TIP3    H169740   0.655   1.225  12.350  0.9499  0.5792  0.2986
16083TIP3    H269741   0.565   1.341  12.315 -0.6064 -0.7681 -0.3060
16084TIP3   OH269742   1.774   2.378   3.614  0.4873  0.3787  0.0338
16084TIP3    H169743   1.768   2.288   3.582 -1.8112 -0.3372  2.1695
16084TIP3    H269744   1.757   2.433   3.538  1.2309 -1.0004 -1.1597
16085TIP3   OH269745   4.046   0.572  13.606  0.1939  0.5060  0.1036
16085TIP3    H169746   4.137   0.597  13.618  0.1160  0.3318  1.2044
16085TIP3    H269747   4.038   0.487  13.649 -1.0209  1.6710  2.4416
16086TIP3   OH269748   3.374   7.043   1.137 -0.2848 -0.1204  0.3505
16086TIP3    H169749   3.433   6.974   1.170  1.4495  1.4222  0.6826
16086TIP3    H269750   3.418   7.125   1.161 -1.9830  1.1141 -0.5424
16087TIP3   OH269751   0.668   5.247   0.601  0.0578  0.5312  0.1495
16087TIP3    H169752   0.629   5.327   0.635 -1.7819 -0.9486  1.7847
16087TIP3    H269753   0.620   5.227   0.522 -0.0522  0.6004  0.1996
16088TIP3   OH269754   5.530   4.251  13.997 -0.0594 -0.8645 -0.2937
16088TIP3    H169755   5.620   4.280  13.984  0.3590 -0.7904  2.2362
16088TIP3    H269756   5.527   4.163  13.959  0.7508 -0.4368 -1.3894
16089TIP3   OH269757   4.149   2.122   0.670 -0.5679 -0.1907 -0.1457
16089TIP3    H169758   4.218   2.055   0.667  0.2873  0.6758 -0.2275
16089TIP3    H269759   4.093   2.095   0.743 -1.3802 -2.0553 -1.3519
16090TIP3   OH269760   5.596   3.079   2.908 -0.1320  0.0640  0.1062
16090TIP3    H169761   5.543   3.154   2.881  0.3637  0.8866  1.3303
16090TIP3    H269762   5.540   3.029   2.967  0.3892  0.8813  1.3239
16091TIP3   OH269763   4.715   0.648   4.050  0.0730 -0.3803  0.2218
16091TIP3    H169764   4.663   0.580   4.094 -0.3390  0.0856  0.4721
16091TIP3    H269765   4.768   0.687   4.120 -0.3453  0.1458  0.2549
16092TIP3   OH269766   0.972   5.634   3.722 -0.0793 -0.2646 -0.2011
16092TIP3    H169767   0.899   5.586   3.762 -0.7512  1.7552  1.1621
16092TIP3    H269768   1.009   5.685   3.794  0.5371  1.3050 -1.5782
16093TIP3   OH269769   6.367   2.255   0.436  0.0746  0.3046 -0.0937
16093TIP3    H169770   6.410   2.235   0.353  2.2810 -0.9498  1.2689
16093TIP3    H269771   6.383   2.348   0.450  0.9057  0.2124 -0.4053
16094TIP3   OH269772   4.610   3.747  15.439 -0.9174 -0.6378 -0.4893
16094TIP3    H169773   4.517   3.756  15.415 -1.1111  2.3769  0.9761
16094TIP3    H269774   4.615   3.778  15.529  1.6997  0.4172 -0.9179
16095TIP3   OH269775   3.584   4.684   5.315 -0.3322 -0.0227  0.1226
16095TIP3    H169776   3.514   4.637   5.360 -1.4172  0.3719 -1.0760
16095TIP3    H269777   3.664   4.660   5.362 -0.6210 -3.9415 -1.0735
16096TIP3   OH269778   3.685   4.587  12.241  0.4173 -0.2360 -0.3010
16096TIP3    H169779   3.750   4.633  12.293 -0.0957  0.6323 -0.4051
16096TIP3    H269780   3.734   4.548  12.169  1.1111 -1.3342  0.7241
16097TIP3   OH269781   4.184   5.579  13.990 -0.3497  0.0148  0.0975
16097TIP3    H169782   4.107   5.628  14.020 -0.6022 -1.6242  2.3201
16097TIP3    H269783   4.190   5.504  14.049  1.1761 -1.5878 -1.9412
16098TIP3   OH269784   1.900   0.650   3.636  0.0619  0.2422  0.0402
16098TIP3    H169785   1.808   0.659   3.612  0.4232 -0.2487 -1.6713
16098TIP3    H269786   1.932   0.740   3.644 -0.2157  0.4408 -0.9121
16099TIP3   OH269787   4.046   2.123   0.405  0.0087 -0.6714  0.6547
16099TIP3    H169788   4.048   2.093   0.496 -2.1791 -0.5221  0.8099
16099TIP3    H269789   4.061   2.217   0.410  0.9113 -0.8119  0.7435
16100TIP3   OH269790   2.822   2.687   5.507  0.7139 -0.5778 -0.2706
16100TIP3    H169791   2.769   2.614   5.540  0.2971  0.2311  0.9385
16100TIP3    H269792   2.855   2.729   5.586  1.4236  0.2008 -0.9673
16101TIP3   OH269793   0.605   2.380   1.782 -0.2268  0.0943 -0.1563
16101TIP3    H169794   0.674   2.315   1.770 -0.9765 -0.8539  0.5422
16101TIP3    H269795   0.632   2.430   1.859  0.8888  1.3559 -1.3142
16102TIP3   OH269796   5.075   0.231   3.187  0.0390 -0.1261 -0.1693
16102TIP3    H169797   5.033   0.249   3.103 -0.2677 -0.5945 -0.1182
16102TIP3    H269798   5.016   0.169   3.230  1.8935 -2.6748 -1.0721
16103TIP3   OH269799   0.412   0.885   2.146 -0.4862 -0.1642 -0.0369
16103TIP3    H169800   0.392   0.793   2.130  0.2166 -0.2384 -0.5839
16103TIP3    H269801   0.503   0.895   2.116 -0.1625  0.4472  1.0840
16104TIP3   OH269802   2.952   6.917   1.471 -0.5312 -0.1035 -0.3895
16104TIP3    H169803   2.872   6.871   1.498 -0.2993  0.1320  0.7532
16104TIP3    H269804   2.924   6.974   1.400 -0.6142 -2.7900 -2.6546
16105TIP3   OH269805   1.229   3.380  15.564 -0.6289  0.2187 -0.2359
16105TIP3    H169806   1.288   3.358  15.492  0.4498  0.8846  0.4066
16105TIP3    H269807   1.258   3.467  15.592 -0.4906 -0.3505  1.5062
16106TIP3   OH269808   2.743   3.007   6.262  0.0421  0.2251  0.5580
16106TIP3    H169809   2.804   2.999   6.189 -0.5556 -1.1453  0.1703
16106TIP3    H269810   2.777   2.948   6.329 -1.7449 -2.0281 -0.3593
16107TIP3   OH269811   3.996   4.745  15.462 -0.6560 -0.3552  0.1967
16107TIP3    H169812   4.015   4.652  15.453 -0.8851 -0.3986  0.1662
16107TIP3    H269813   4.033   4.769  15.546  0.0269 -0.3185 -0.1082
16108TIP3   OH269814   1.761   4.348   2.995 -0.1344 -0.3000  0.6036
16108TIP3    H169815   1.811   4.390   3.065  1.8034  0.5329 -1.1813
16108TIP3    H269816   1.791   4.257   2.995 -0.5587 -0.4503  1.1678
16109TIP3   OH269817   1.889   3.604   4.374  0.3630 -0.4146 -0.2762
16109TIP3    H169818   1.891   3.510   4.358  1.4163 -0.7559  1.4760
16109TIP3    H269819   1.796   3.626   4.382  0.0266 -0.9602 -2.3019
16110TIP3   OH269820   2.466   0.471   5.278  0.9444  0.5291 -0.5981
16110TIP3    H169821   2.482   0.446   5.369  0.5834  1.2459 -0.3299
16110TIP3    H269822   2.552   0.462   5.236  0.8442 -1.0504 -0.5091
16111TIP3   OH269823   2.414   6.133  11.755 -0.2932 -0.0625  0.5393
16111TIP3    H169824   2.366   6.164  11.832 -0.7115  0.1271  0.2092
16111TIP3    H269825   2.348   6.133  11.685 -0.1652 -1.1830  0.4056
16112TIP3   OH269826   7.069   4.586  15.015 -0.4904 -0.2002 -0.0408
16112TIP3    H169827   7.149   4.537  14.997 -0.7616  0.0988 -2.4540
16112TIP3    H269828   7.091   4.639  15.092  0.6364 -2.1695  1.0978
16113TIP3   OH269829   1.774   2.417   5.259  0.0692 -0.1512 -0.3718
16113TIP3    H169830   1.813   2.331   5.274 -1.8817 -1.0051  0.1202
16113TIP3    H269831   1.723   2.435   5.338 -1.0464  0.5962 -1.2155
16114TIP3   OH269832   2.454   1.095   5.527  0.1313  0.3090  0.2416
16114TIP3    H169833   2.529   1.092   5.468  0.1040 -0.6237  0.2430
16114TIP3    H269834   2.382   1.129   5.473  0.3360  0.3635  0.0026
16115TIP3   OH269835   0.979   0.979   4.417  0.0653 -0.3546 -0.1009
16115TIP3    H169836   0.898   0.935   4.394 -1.2653 -0.1653  3.6093
16115TIP3    H269837   0.952   1.067   4.444  1.8102  0.4406 -0.7803
16116TIP3   OH269838   6.766   7.119  12.625 -0.1458  0.4325  0.0100
16116TIP3    H169839   6.795   7.105  12.535 -0.5469 -0.9811  0.0747
16116TIP3    H269840   6.847   7.139  12.673  0.5888 -1.9553 -0.0928
16117TIP3   OH269841   0.382   0.270  13.338 -0.0450 -0.3660 -0.1238
16117TIP3    H169842   0.445   0.342  13.328 -0.5531 -0.0674 -1.2657
16117TIP3    H269843   0.342   0.261  13.252 -2.0156 -0.1330  0.7207
16118TIP3   OH269844   4.230   1.950   4.632  0.0663 -0.1112  0.6227
16118TIP3    H169845   4.183   1.879   4.675 -0.7745 -0.3254 -0.6366
16118TIP3    H269846   4.216   1.937   4.539  1.0697  0.9086  0.2975
16119TIP3   OH269847   1.511   3.441   4.777  0.4862  0.1106 -0.4675
16119TIP3    H169848   1.548   3.503   4.840  1.4078 -0.0089 -0.8723
16119TIP3    H269849   1.423   3.424   4.810  1.5840 -1.4846  1.9330
16120TIP3   OH269850   1.072   2.874  10.532  0.3129 -0.0330 -0.1210
16120TIP3    H169851   1.032   2.803  10.484  0.6514 -0.1975 -0.1604
16120TIP3    H269852   1.134   2.832  10.592 -0.9783  0.0680  1.3403
16121TIP3   OH269853   4.328   6.298   0.961  0.0721  0.0391  0.7762
16121TIP3    H169854   4.360   6.332   1.044 -0.3567  0.8047  0.6376
16121TIP3    H269855   4.233   6.294   0.971  0.1379 -1.9264  1.0749
16122TIP3   OH269856   2.318   6.228   0.787  0.3984 -0.3466  0.4619
16122TIP3    H169857   2.393   6.171   0.767  0.8639  0.7456 -1.0594
16122TIP3    H269858   2.257   6.214   0.714  0.3462  0.8023  0.2678
16123TIP3   OH269859   6.492   3.657  12.531 -0.0156  0.3646  0.2430
16123TIP3    H169860   6.416   3.650  12.472 -0.6404 -0.3752  1.1011
16123TIP3    H269861   6.503   3.751  12.544  1.7278  0.7373 -3.0104
16124TIP3   OH269862   0.163   6.772   0.074  0.2606 -0.2341  0.0031
16124TIP3    H169863   0.236   6.792   0.014 -1.1203  0.2176 -1.5980
16124TIP3    H269864   0.086   6.809   0.031 -1.1308 -1.8351  1.0059
16125TIP3   OH269865   4.813   6.083   5.716  0.2598 -0.0509  0.0514
16125TIP3    H169866   4.765   6.034   5.782  1.7137 -0.2813  0.9930
16125TIP3    H269867   4.886   6.025   5.691  0.5229  0.5916 -0.7348
16126TIP3   OH269868   4.040   0.793   4.276  0.5843  0.8100 -0.5322
16126TIP3    H169869   4.098   0.801   4.352 -0.5719  1.8398  0.2760
16126TIP3    H269870   4.097   0.805   4.200  2.1782 -2.3491 -0.0153
16127TIP3   OH269871   0.313   1.568   0.860 -0.0820 -0.2907  0.5759
16127TIP3    H169872   0.328   1.662   0.864 -0.5746 -0.2509  2.4933
16127TIP3    H269873   0.367   1.531   0.930 -0.7037 -1.3114  0.5433
16128TIP3   OH269874   4.628   1.180  15.425  0.2933 -0.0258 -0.0144
16128TIP3    H169875   4.677   1.199  15.505 -0.2458  1.2325  0.0468
16128TIP3    H269876   4.537   1.169  15.454  0.0671  0.5993 -0.4564
16129TIP3   OH269877   3.272   3.595  15.382  0.7788 -0.1626 -0.1556
16129TIP3    H169878   3.258   3.519  15.326  0.0147 -0.2865  0.1825
16129TIP3    H269879   3.296   3.666  15.322  2.9039 -0.9700 -0.3569
16130TIP3   OH269880   0.451   0.240   2.333 -0.1717 -0.1957  0.0528
16130TIP3    H169881   0.402   0.302   2.388 -0.4544 -0.4093  0.0422
16130TIP3    H269882   0.537   0.235   2.374  0.0354  0.6290 -0.2604
16131TIP3   OH269883   1.960   5.366  14.324  0.3647  0.3053  0.1474
16131TIP3    H169884   2.003   5.417  14.393  0.8165  0.8127 -0.5033
16131TIP3    H269885   1.941   5.429  14.256 -2.1627  0.2533  0.7356
16132TIP3   OH269886   0.463   1.401   1.043  0.0918 -0.2946  0.3651
16132TIP3    H169887   0.435   1.403   1.135 -0.7772 -0.5824  0.1203
16132TIP3    H269888   0.446   1.311   1.015 -0.8166  0.1000 -0.4176
16133TIP3   OH269889   5.636   0.275   1.437  0.4458  0.2104 -0.3703
16133TIP3    H169890   5.730   0.282   1.451  0.9383 -5.0227  0.9413
16133TIP3    H269891   5.625   0.202   1.377 -2.7688 -0.8073  1.2068
16134TIP3   OH269892   3.512   1.230  11.468 -0.5827  0.5624  0.0847
16134TIP3    H169893   3.495   1.277  11.387 -0.7674 -0.5303 -0.5314
16134TIP3    H269894   3.605   1.208  11.465 -0.8486 -0.5585 -0.4421
16135TIP3   OH269895   2.408   0.602   5.771 -0.0051 -0.4402 -0.2932
16135TIP3    H169896   2.408   0.520   5.819 -0.1461  0.0767  0.6002
16135TIP3    H269897   2.427   0.669   5.836 -0.6921  0.3238 -0.8468
16136TIP3   OH269898   3.963   1.281   3.758  0.0762  0.5966 -0.1968
16136TIP3    H169899   3.923   1.353   3.806 -1.0024  0.5286 -0.9545
16136TIP3    H269900   4.018   1.237   3.822 -0.5666  1.0863  0.7134
16137TIP3   OH269901   0.727   4.285  15.144  0.0211 -0.1101  0.0258
16137TIP3    H169902   0.795   4.348  15.123  0.1500 -0.1714  0.2518
16137TIP3    H269903   0.650   4.338  15.163 -0.2130 -0.0751 -1.0099
16138TIP3   OH269904   4.312   2.677   1.624  0.5163  0.0310  0.8472
16138TIP3    H169905   4.274   2.605   1.574  1.3993 -0.4995  0.9139
16138TIP3    H269906   4.277   2.756   1.583  0.7460 -0.4035 -0.2235
16139TIP3   OH269907   4.472   2.303   0.935 -0.3234 -0.3575 -0.1234
16139TIP3    H169908   4.470   2.337   1.024 -0.9689 -0.9816  0.1109
16139TIP3    H269909   4.444   2.377   0.881  3.0881  1.0621 -0.2134
16140TIP3   OH269910   6.129   6.324   2.563 -0.1219 -0.0099  0.6595
16140TIP3    H169911   6.079   6.243   2.560 -0.0501 -0.1772  2.7352
16140TIP3    H269912   6.064   6.393   2.546 -0.6409 -0.3588  1.2159
16141TIP3   OH269913   3.056   3.268   1.308 -0.4185  0.0806  0.4996
16141TIP3    H169914   3.109   3.276   1.229 -3.1481 -0.7809 -1.5587
16141TIP3    H269915   3.120   3.259   1.379  2.1801 -1.6566 -1.8702
16142TIP3   OH269916   0.366   6.279  14.568  0.2505 -0.4872 -0.0104
16142TIP3    H169917   0.412   6.196  14.581  1.2630  0.1098  0.3377
16142TIP3    H269918   0.282   6.267  14.613 -0.6216 -2.1226 -1.9411
16143TIP3   OH269919   5.366   0.697   5.571  0.4471 -0.5817 -0.6262
16143TIP3    H169920   5.383   0.666   5.661  2.3783  0.3859 -0.5959
16143TIP3    H269921   5.348   0.790   5.581  2.9827  0.0629 -1.3714
16144TIP3   OH269922   5.060   0.567   0.368  0.1310  0.1891 -0.9062
16144TIP3    H169923   4.993   0.588   0.303 -0.5357  0.8762 -0.0144
16144TIP3    H269924   5.013   0.563   0.451  1.2339  1.0035 -0.2087
16145TIP3   OH269925   6.211   2.710   3.261  0.1743 -0.1837  0.1043
16145TIP3    H169926   6.267   2.635   3.240  1.1631  0.6289 -0.2472
16145TIP3    H269927   6.145   2.710   3.191  1.4680  0.5360 -1.1628
16146TIP3   OH269928   0.620   4.817  11.916  0.0227 -0.0320  0.1876
16146TIP3    H169929   0.594   4.725  11.913  3.1781 -0.9913 -2.2719
16146TIP3    H269930   0.538   4.865  11.904 -1.5496 -2.5157  0.2792
16147TIP3   OH269931   1.705   1.303  10.718  0.1749 -0.2174 -0.4203
16147TIP3    H169932   1.633   1.327  10.660  0.3115  0.8457 -0.1753
16147TIP3    H269933   1.783   1.337  10.673  0.6495 -2.1132 -1.1137
16148TIP3   OH269934   2.735   5.460  14.275 -0.5496 -0.5663  0.1820
16148TIP3    H169935   2.672   5.445  14.204 -0.7690  0.5065  0.1359
16148TIP3    H269936   2.738   5.555  14.285  1.5581 -0.5533 -0.2417
16149TIP3   OH269937   2.722   3.542   2.693  0.1462  1.0110 -0.4906
16149TIP3    H169938   2.627   3.547   2.689 -0.2247 -0.1840  3.1561
16149TIP3    H269939   2.748   3.499   2.611 -2.5714  0.1442 -0.9765
16150TIP3   OH269940   5.567   6.066  13.896  0.4335  0.1992 -0.7293
16150TIP3    H169941   5.510   6.066  13.973 -0.9394 -1.0234 -1.7082
16150TIP3    H269942   5.609   6.153  13.898 -3.0109  2.0328 -1.0820
16151TIP3   OH269943   5.307   3.852  14.518 -0.0614 -0.1763  0.1722
16151TIP3    H169944   5.228   3.875  14.469  0.0034 -1.9940 -0.8668
16151TIP3    H269945   5.315   3.921  14.584 -2.6584 -0.0885  0.4810
16152TIP3   OH269946   6.202   2.612   3.520 -0.1410 -0.0059  0.1507
16152TIP3    H169947   6.163   2.528   3.496  1.6164 -0.8953  0.2222
16152TIP3    H269948   6.213   2.658   3.437  0.2593 -0.4935 -0.0748
16153TIP3   OH269949   6.755   6.608   3.846 -0.6239 -0.1384 -0.0258
16153TIP3    H169950   6.690   6.539   3.835 -0.3019 -0.4948  0.2964
16153TIP3    H269951   6.802   6.585   3.926  0.8168 -0.6408 -0.9691
16154TIP3   OH269952   3.550   6.739   5.417 -0.1595  0.5496  0.3162
16154TIP3    H169953   3.531   6.731   5.511  0.6396  0.6760  0.4959
16154TIP3    H269954   3.476   6.787   5.381 -1.0834 -0.5889  0.6622
16155TIP3   OH269955   4.925   4.613  14.900  0.6067 -0.4646  0.1352
16155TIP3    H169956   4.924   4.552  14.826 -1.4573 -0.5035  0.1382
16155TIP3    H269957   4.943   4.698  14.861 -0.6939 -0.4450 -0.4742
16156TIP3   OH269958   1.065   3.627   3.651  0.2854  0.4701 -0.1589
16156TIP3    H169959   0.973   3.646   3.633 -0.7964 -3.7027 -0.0587
16156TIP3    H269960   1.104   3.618   3.564  0.1567  0.5397 -0.2252
16157TIP3   OH269961   5.602   4.710  14.385 -0.2672 -0.7482  0.1232
16157TIP3    H169962   5.645   4.652  14.448 -2.2469 -0.5765  1.7449
16157TIP3    H269963   5.617   4.669  14.300  1.5167 -1.6119  0.8051
16158TIP3   OH269964   6.301   2.013   0.533  0.0215 -0.3608 -0.1306
16158TIP3    H169965   6.369   1.945   0.538  1.0112  0.6402  0.6239
16158TIP3    H269966   6.349   2.092   0.509 -0.2654  1.1430  3.6772
16159TIP3   OH269967   5.072   3.655  12.587  0.3825 -0.8259  0.1835
16159TIP3    H169968   5.013   3.726  12.560 -1.6688 -2.3503  0.4049
16159TIP3    H269969   5.086   3.603  12.508 -1.0533 -2.1224  0.7249
16160TIP3   OH269970   4.415   2.342   4.647  0.1306 -0.1133 -0.0052
16160TIP3    H169971   4.435   2.343   4.554 -2.5762  1.5601 -0.6617
16160TIP3    H269972   4.402   2.434   4.671 -0.5118 -0.5982  1.7122
16161TIP3   OH269973   1.864   4.659   3.790 -0.2474  0.0236 -0.0749
16161TIP3    H169974   1.939   4.707   3.825  0.1190 -1.3632  1.1286
16161TIP3    H269975   1.789   4.713   3.813  0.1839  0.2380  0.8968
16162TIP3   OH269976   5.712   2.768  14.978  0.3177  0.1432  0.1700
16162TIP3    H169977   5.779   2.791  15.043  0.5182  0.4703 -0.1526
16162TIP3    H269978   5.702   2.846  14.924  0.5857 -0.3196 -0.5675
16163TIP3   OH269979   1.402   6.311  10.745  0.4750 -0.0911  0.0330
16163TIP3    H169980   1.431   6.395  10.708 -0.3623  0.3263  0.3064
16163TIP3    H269981   1.464   6.295  10.817  0.4520  0.4503  0.1809
16164TIP3   OH269982   5.545   3.882   4.745 -0.3434  0.1619 -0.0880
16164TIP3    H169983   5.595   3.825   4.803  0.8037 -0.0106 -1.2006
16164TIP3    H269984   5.466   3.831   4.725  0.5291 -0.9540 -0.8443
16165TIP3   OH269985   3.017   5.313   0.376  1.0265 -0.3233 -0.2710
16165TIP3    H169986   3.002   5.284   0.466  0.3909  0.2642 -0.1855
16165TIP3    H269987   2.936   5.356   0.350  1.4743  0.1758 -0.8747
16166TIP3   OH269988   4.440   3.958   3.760  0.2260 -0.1875  0.3845
16166TIP3    H169989   4.469   4.035   3.809  1.0605  0.6915 -1.3942
16166TIP3    H269990   4.521   3.917   3.729 -0.2756  0.4573 -1.9518
16167TIP3   OH269991   0.011   2.352   4.426  0.1773  0.1751 -0.4187
16167TIP3    H169992   0.047   2.424   4.479  0.0686  0.3094 -0.5262
16167TIP3    H269993  -0.063   2.319   4.478 -1.6554  2.0633 -1.6722
16168TIP3   OH269994   4.338   1.955   1.228 -0.2439 -0.4856  0.2048
16168TIP3    H169995   4.384   1.938   1.310 -0.6777 -0.6113  0.4302
16168TIP3    H269996   4.349   1.874   1.178 -0.7647 -0.7635  0.5271
16169TIP3   OH269997   5.493   3.108  14.792 -0.2151  0.5341  0.3315
16169TIP3    H169998   5.409   3.081  14.756 -1.2511  0.0672  2.9470
16169TIP3    H269999   5.501   3.201  14.769 -1.2479  0.4855 -0.2584
16170TIP3   OH270000   4.209   4.636   2.636 -0.0949 -0.7598 -0.1543
16170TIP3    H170001   4.273   4.592   2.693  0.8388  0.5943 -0.1211
16170TIP3    H270002   4.125   4.599   2.663  0.4222 -0.8158  1.4869
16171TIP3   OH270003   2.471   2.295  10.274 -0.4211 -0.1452  0.7830
16171TIP3    H170004   2.420   2.251  10.342  0.2293 -1.8827  0.1972
16171TIP3    H270005   2.474   2.232  10.201 -0.1648  1.2194 -0.4307
16172TIP3   OH270006   1.095   2.744   5.904 -0.1167  0.0263 -0.5110
16172TIP3    H170007   1.150   2.770   5.977  0.7663 -0.6792 -0.9070
16172TIP3    H270008   1.032   2.816   5.894 -0.7150 -0.1735  1.3758
16173TIP3   OH270009   4.330   0.027  13.887 -0.1419 -0.4294 -0.5183
16173TIP3    H170010   4.401   0.037  13.824  0.0303 -1.7086 -0.5604
16173TIP3    H270011   4.254   0.003  13.834 -0.2028 -0.6680 -0.3273
16174TIP3   OH270012   2.857   3.765  13.811  0.3906 -0.3250 -0.0438
16174TIP3    H170013   2.778   3.809  13.840 -0.1167 -0.6670 -0.8843
16174TIP3    H270014   2.907   3.832  13.765  0.6749 -0.0686  0.6249
16175TIP3   OH270015   1.766   5.438   4.732 -0.1795 -0.4882 -0.1199
16175TIP3    H170016   1.738   5.491   4.658 -3.8052 -0.1404  1.2822
16175TIP3    H270017   1.809   5.362   4.692 -1.2098  0.0980 -2.5229
16176TIP3   OH270018   2.640   2.604   4.868 -0.7278 -0.1336 -0.6228
16176TIP3    H170019   2.730   2.602   4.900  0.1148  4.0491 -2.1433
16176TIP3    H270020   2.639   2.543   4.794  0.6774 -0.6203 -0.2692
16177TIP3   OH270021   3.991   2.004  14.428  0.1799  0.1381  0.2627
16177TIP3    H170022   3.990   1.997  14.332 -2.7733 -1.3625  0.2862
16177TIP3    H270023   4.006   1.914  14.458 -2.2370 -0.0765  1.0865
16178TIP3   OH270024   6.653   5.580  12.055  0.0500 -0.1227 -0.7330
16178TIP3    H170025   6.613   5.521  12.119 -0.4278  0.7742 -0.1716
16178TIP3    H270026   6.747   5.567  12.066 -0.0421 -0.5304 -0.3775
16179TIP3   OH270027   2.635   5.360   3.217 -0.4116  0.4287  0.2780
16179TIP3    H170028   2.645   5.301   3.142 -1.4804 -3.1112  2.6419
16179TIP3    H270029   2.720   5.359   3.259 -0.8948 -1.1016  1.3229
16180TIP3   OH270030   2.816   1.649  11.725 -0.4033 -0.1635  0.0135
16180TIP3    H170031   2.828   1.735  11.764  2.1019 -0.1808 -0.5471
16180TIP3    H270032   2.750   1.661  11.657 -1.0305  0.9930  0.8063
16181TIP3   OH270033   3.799   3.169  15.399 -0.5136 -0.4463 -0.5601
16181TIP3    H170034   3.709   3.194  15.380 -0.6880 -1.0336 -0.5177
16181TIP3    H270035   3.818   3.099  15.337 -0.2474 -0.6488 -0.2546
16182TIP3   OH270036   3.805   3.845  15.499 -0.3743 -0.2583  0.9435
16182TIP3    H170037   3.851   3.808  15.424 -0.2295 -0.4798  1.1418
16182TIP3    H270038   3.713   3.843  15.475 -0.4680 -1.6880  1.3606
16183TIP3   OH270039   3.629   5.402   2.830  1.4763  0.1989 -0.1727
16183TIP3    H170040   3.677   5.403   2.747  0.8647  0.0596 -0.5315
16183TIP3    H270041   3.559   5.338   2.817  0.0133  1.7493 -0.3351
16184TIP3   OH270042   2.109   2.358   9.771  0.3046  0.2723 -0.5979
16184TIP3    H170043   2.092   2.283   9.713 -2.7775 -0.3099  0.8435
16184TIP3    H270044   2.065   2.431   9.728 -0.9680  0.1001  0.3691
16185TIP3   OH270045   4.073   1.104  11.740 -0.5600 -0.4863  0.1436
16185TIP3    H170046   4.112   1.089  11.654  0.0618  0.5381  0.2349
16185TIP3    H270047   4.044   1.195  11.737 -1.2209 -0.6642  0.7654
16186TIP3   OH270048   0.821   7.071   5.199 -1.1570 -0.0782 -0.1533
16186TIP3    H170049   0.791   7.161   5.186 -1.3598 -0.1223 -0.0048
16186TIP3    H270050   0.914   7.073   5.177 -1.3933 -0.0610 -1.2028
16187TIP3   OH270051   7.151   2.514   9.791 -0.6665  0.1745  0.0382
16187TIP3    H170052   7.239   2.515   9.828 -0.5075  0.1451 -0.3391
16187TIP3    H270053   7.100   2.459   9.851 -0.1989 -0.6091 -0.2803
16188TIP3   OH270054   3.410   6.460   3.527 -0.2231 -0.3383 -0.0802
16188TIP3    H170055   3.445   6.376   3.559  0.7970 -0.5510 -1.6274
16188TIP3    H270056   3.323   6.438   3.494 -1.0169 -0.2448  1.8304
16189TIP3   OH270057   1.574   1.108  12.038  0.4670  0.1698 -0.6610
16189TIP3    H170058   1.480   1.115  12.019  0.6202  1.4008 -1.0103
16189TIP3    H270059   1.613   1.083  11.954  0.5553  0.5403 -0.7300
16190TIP3   OH270060   1.295   6.997  10.723  0.3306 -0.8070 -0.0687
16190TIP3    H170061   1.387   7.007  10.750  0.7887 -1.4517 -1.2883
16190TIP3    H270062   1.254   7.079  10.747  0.9608 -0.9052  1.4926
16191TIP3   OH270063   6.824   6.343  12.959 -0.3653  0.5224 -0.3139
16191TIP3    H170064   6.842   6.254  12.929  2.6940  1.0574 -0.3582
16191TIP3    H270065   6.863   6.348  13.046  3.2790  2.8407 -1.8422
16192TIP3   OH270066   3.772   4.677   0.273 -0.3176 -0.0899 -0.4529
16192TIP3    H170067   3.839   4.610   0.287 -0.7682 -0.5509 -0.4663
16192TIP3    H270068   3.702   4.631   0.226 -0.7657  0.3104 -0.1840
16193TIP3   OH270069   6.211   6.611  15.079  0.2090  0.0618  0.0265
16193TIP3    H170070   6.150   6.619  15.005 -0.2949 -2.7432  0.0503
16193TIP3    H270071   6.164   6.651  15.153 -0.5914  0.0795 -0.4758
16194TIP3   OH270072   2.187   1.688  12.244 -0.0917  0.3685  0.0894
16194TIP3    H170073   2.275   1.654  12.262 -0.1274 -1.0667 -2.0277
16194TIP3    H270074   2.151   1.707  12.330  1.7621 -0.4211  1.1050
16195TIP3   OH270075   3.180   6.707   0.546  0.8133 -0.4217  0.6316
16195TIP3    H170076   3.114   6.654   0.591 -0.0856  0.5515  0.5089
16195TIP3    H270077   3.163   6.692   0.453 -0.1414  0.8497  0.5707
16196TIP3   OH270078   6.684   4.761   1.518  0.3759  0.4745 -0.1074
16196TIP3    H170079   6.674   4.848   1.479  2.1226  0.1076 -1.4618
16196TIP3    H270080   6.740   4.713   1.457 -0.4161 -1.5714  0.6870
16197TIP3   OH270081   2.838   5.360   2.988 -0.0163 -0.5009  0.0250
16197TIP3    H170082   2.861   5.452   3.001 -0.1303 -0.5797  0.8513
16197TIP3    H270083   2.753   5.363   2.943  0.7524 -0.2175 -1.4775
16198TIP3   OH270084   3.289   4.172  12.566  0.3295  0.2862 -0.4241
16198TIP3    H170085   3.253   4.090  12.532 -0.8614  1.4459 -2.1112
16198TIP3    H270086   3.378   4.174  12.532 -0.1992  0.4762 -1.8756
16199TIP3   OH270087   3.322   4.581   2.085 -0.6764 -0.0049  0.0485
16199TIP3    H170088   3.285   4.662   2.121 -0.9882 -0.2999  0.3930
16199TIP3    H270089   3.368   4.609   2.005  0.6699  0.7699  1.0504
16200TIP3   OH270090   2.608   4.969   2.574 -0.2737 -0.2014 -0.0055
16200TIP3    H170091   2.617   4.987   2.668 -0.7865  0.0395  0.0030
16200TIP3    H270092   2.696   4.946   2.546 -0.2933 -1.2630  0.7347
16201TIP3   OH270093   5.481   6.557  15.405 -0.1121  0.6639  0.2464
16201TIP3    H170094   5.445   6.470  15.424  0.6514  0.6075  1.6056
16201TIP3    H270095   5.572   6.550  15.432  0.6241  1.1817 -1.9194
16202TIP3   OH270096   4.662   4.552   6.028 -0.0441  0.4892 -0.2069
16202TIP3    H170097   4.566   4.552   6.030 -0.1235  2.7281 -1.3827
16202TIP3    H270098   4.685   4.485   5.963 -0.9025  1.2330 -1.3117
16203TIP3   OH270099   2.125   0.108  14.836 -0.0858  0.0349 -0.0638
16203TIP3    H170100   2.129   0.075  14.746 -1.2342 -0.4538  0.0440
16203TIP3    H270101   2.039   0.151  14.842  0.4987  1.1767  0.4349
16204TIP3   OH270102   3.039   6.816  13.604  0.2447  0.1324 -0.6019
16204TIP3    H170103   2.969   6.869  13.567  0.3616  0.6541 -0.0891
16204TIP3    H270104   3.098   6.879  13.645  0.7764 -0.3347 -0.6247
16205TIP3   OH270105   0.615   1.904   0.156  0.1962 -0.3049 -0.3585
16205TIP3    H170106   0.638   1.884   0.065  1.2356  1.3574 -0.5112
16205TIP3    H270107   0.535   1.855   0.172 -0.9428  0.6218 -2.7173
16206TIP3   OH270108   1.348   4.734  15.524 -0.2226  0.0225  0.1043
16206TIP3    H170109   1.413   4.668  15.503  1.0294  1.0198  0.7423
16206TIP3    H270110   1.382   4.815  15.487 -1.4354  0.4486 -0.1371
16207TIP3   OH270111   4.476   3.605   1.544  0.1998 -0.0572  0.4666
16207TIP3    H170112   4.560   3.585   1.586 -0.5639 -0.8047  1.6976
16207TIP3    H270113   4.500   3.638   1.457  1.8416  1.3656  1.3833
16208TIP3   OH270114   4.584   5.072   5.338 -0.0055 -0.0498 -0.1230
16208TIP3    H170115   4.526   4.997   5.323 -0.7067  0.6271 -0.9576
16208TIP3    H270116   4.606   5.067   5.431 -0.3964 -1.0399 -0.0717
16209TIP3   OH270117   5.352   3.093  13.425  0.4664 -0.2054  0.3412
16209TIP3    H170118   5.293   3.118  13.496 -1.5183 -1.5483 -0.7518
16209TIP3    H270119   5.424   3.156  13.430 -0.9690  1.3959  1.8513
16210TIP3   OH270120   6.937   6.088  13.239  0.9943  0.5714  0.5226
16210TIP3    H170121   6.863   6.148  13.232 -0.8450 -1.5827  0.2094
16210TIP3    H270122   6.957   6.084  13.332  0.4567  0.8849  0.6515
16211TIP3   OH270123   2.936   4.878   0.760 -0.2867  0.3192 -0.1692
16211TIP3    H170124   2.886   4.940   0.708  0.4483  0.9733 -0.1270
16211TIP3    H270125   2.970   4.814   0.697  0.1063  0.7679 -0.4226
16212TIP3   OH270126   2.188   4.589  12.678  0.0259 -0.5217  0.6135
16212TIP3    H170127   2.284   4.586  12.669 -0.0934 -0.1810 -1.1013
16212TIP3    H270128   2.159   4.504  12.645 -0.2921 -0.4851  0.8015
16213TIP3   OH270129   6.887   2.016   3.356 -0.3396 -0.6776 -0.2797
16213TIP3    H170130   6.808   2.038   3.404 -1.6094  0.7645 -2.8299
16213TIP3    H270131   6.955   2.071   3.396 -1.1752 -0.0763  0.3619
16214TIP3   OH270132   6.579   3.758  15.454 -0.3798  0.3315  0.5765
16214TIP3    H170133   6.525   3.796  15.385  0.3630 -1.5769 -1.1713
16214TIP3    H270134   6.654   3.818  15.461 -1.4526  1.6316  1.2154
16215TIP3   OH270135   1.840   3.903   1.067 -0.0743  0.4577  0.4190
16215TIP3    H170136   1.819   3.813   1.042  2.1056 -0.0105  0.0913
16215TIP3    H270137   1.840   3.901   1.163  1.5731 -0.3520  0.4378
16216TIP3   OH270138   0.330   1.558  13.551 -0.8587 -0.0717 -0.5523
16216TIP3    H170139   0.259   1.494  13.554 -0.6014 -0.3591 -0.4845
16216TIP3    H270140   0.297   1.634  13.598 -1.5379  0.2268 -1.4915
16217TIP3   OH270141   0.142   5.562   2.471 -0.0571 -0.2683 -0.7016
16217TIP3    H170142   0.063   5.551   2.419 -0.1324 -0.2324 -0.5948
16217TIP3    H270143   0.112   5.600   2.554  0.2811  1.4831 -1.3429
16218TIP3   OH270144   6.112   5.309  14.770  0.2377 -0.1576  0.6576
16218TIP3    H170145   6.146   5.226  14.804  0.3052  0.1712  1.4129
16218TIP3    H270146   6.035   5.284  14.718 -0.2777 -0.6103  1.6195
16219TIP3   OH270147   0.810   4.850  14.233 -0.7606  0.6617 -0.1017
16219TIP3    H170148   0.754   4.821  14.305 -0.0912 -0.5286 -0.0457
16219TIP3    H270149   0.864   4.774  14.212 -1.7859  0.5545 -2.7145
16220TIP3   OH270150   5.976   3.936   4.380  0.8255  0.6097  0.3710
16220TIP3    H170151   5.884   3.926   4.404  1.1034 -1.3918  0.7660
16220TIP3    H270152   5.988   4.031   4.372 -1.3307  0.9184  0.0031
16221TIP3   OH270153   2.677   0.913  11.087  0.3852  0.2447 -0.0130
16221TIP3    H170154   2.723   0.842  11.133  0.5307  0.0288 -0.4912
16221TIP3    H270155   2.740   0.946  11.024 -0.7901 -1.5883 -2.3367
16222TIP3   OH270156   1.400   4.095   2.809 -0.1070  0.9793 -0.2483
16222TIP3    H170157   1.348   4.100   2.729 -0.9906  0.1270  0.2492
16222TIP3    H270158   1.418   4.186   2.831 -2.0802  1.3584 -0.0105
16223TIP3   OH270159   3.368   1.014   2.137 -0.3479  0.6482 -0.1831
16223TIP3    H170160   3.347   0.990   2.047  0.8572  0.9622 -0.5659
16223TIP3    H270161   3.463   1.003   2.144 -0.5623 -0.7434  1.4662
16224TIP3   OH270162   2.635   2.209   5.562 -0.0918  0.2652 -0.2349
16224TIP3    H170163   2.665   2.231   5.473  2.0186  1.8449  0.7899
16224TIP3    H270164   2.706   2.156   5.599  0.2241  1.7047  1.3234
16225TIP3   OH270165   5.267   2.184   3.573 -0.3027 -0.3085 -0.3690
16225TIP3    H170166   5.341   2.194   3.634  0.3934 -1.6924 -0.9404
16225TIP3    H270167   5.291   2.110   3.518 -1.7348 -0.2190 -1.1685
16226TIP3   OH270168   3.449   1.240   3.475 -0.4018  0.0896 -0.6118
16226TIP3    H170169   3.353   1.241   3.477 -0.4378 -1.9698  0.4188
16226TIP3    H270170   3.473   1.330   3.453 -2.5582  0.7114 -0.6224
16227TIP3   OH270171   6.887   1.321   4.728  0.3702  0.0101 -0.2994
16227TIP3    H170172   6.912   1.236   4.763  0.9193  1.0234  1.9706
16227TIP3    H270173   6.793   1.327   4.743  0.6206  0.4854  1.2419
16228TIP3   OH270174   3.857   0.556   5.992  0.1468  0.1115  0.1514
16228TIP3    H170175   3.772   0.516   5.971 -0.5385  0.2338  2.3982
16228TIP3    H270176   3.841   0.650   5.986  0.5369  0.1289 -0.7887
16229TIP3   OH270177   6.501   4.476  13.040  0.4604 -0.1886 -0.1454
16229TIP3    H170178   6.545   4.507  12.961 -0.8878 -3.2073 -2.2925
16229TIP3    H270179   6.570   4.433  13.091  1.2882  1.5511  0.2675
16230TIP3   OH270180   6.358   0.443  12.452 -0.3905 -0.1189 -0.0710
16230TIP3    H170181   6.304   0.364  12.448  1.7718 -1.7894  1.3842
16230TIP3    H270182   6.296   0.513  12.476 -2.2565 -1.4507 -0.7248
16231TIP3   OH270183   3.541   2.662  15.396  0.2686  0.5106 -0.2881
16231TIP3    H170184   3.461   2.708  15.371 -0.1278  0.5088  0.9106
16231TIP3    H270185   3.528   2.573  15.362 -0.3348  0.4504  0.0761
16232TIP3   OH270186   2.818   6.824   0.954  0.0075 -0.3282  0.6317
16232TIP3    H170187   2.891   6.807   0.895  0.8464 -0.8373  1.7880
16232TIP3    H270188   2.850   6.800   1.041 -1.3491 -0.0389  1.2486
16233TIP3   OH270189   3.842   3.784  11.140 -0.7733 -0.3176  0.0408
16233TIP3    H170190   3.912   3.781  11.206 -0.1102  1.5281 -0.5236
16233TIP3    H270191   3.762   3.792  11.191 -0.4079 -0.4675  0.6529
16234TIP3   OH270192   6.445   1.082  15.011  0.3749 -0.3192  0.2785
16234TIP3    H170193   6.350   1.085  15.012  0.3215 -1.5269  0.2469
16234TIP3    H270194   6.472   1.173  15.000 -0.7145  0.3094  2.3467
16235TIP3   OH270195   2.101   6.772   2.920 -0.0861  0.2417  0.2424
16235TIP3    H170196   2.085   6.683   2.887 -1.4566  0.7058 -0.3889
16235TIP3    H270197   2.196   6.784   2.910 -0.1784 -0.3207 -1.8202
16236TIP3   OH270198   7.052   6.063  14.509  0.1504  0.1040 -0.2989
16236TIP3    H170199   7.083   5.977  14.481  1.5625  0.1515  0.9520
16236TIP3    H270200   6.995   6.092  14.439 -3.1912 -3.2657  0.6637
16237TIP3   OH270201   1.439   1.068   3.530 -0.3819 -0.1172 -0.2113
16237TIP3    H170202   1.532   1.052   3.549 -0.3943 -0.4523 -0.4421
16237TIP3    H270203   1.401   0.981   3.521 -0.9349 -0.0112  0.9096
16238TIP3   OH270204   4.339   6.124  12.233 -0.0539  0.1291 -0.1010
16238TIP3    H170205   4.294   6.156  12.155  0.4410 -0.0384 -0.4610
16238TIP3    H270206   4.272   6.075  12.281  0.1173 -1.5950 -1.4837
16239TIP3   OH270207   5.711   3.411   0.188  0.3249  0.0842  0.2472
16239TIP3    H170208   5.678   3.426   0.100 -1.3680 -0.0130  0.8316
16239TIP3    H270209   5.795   3.367   0.175  1.3058  2.2114 -1.3351
16240TIP3   OH270210   0.259   4.522   0.929 -0.3393 -0.0833 -0.2419
16240TIP3    H170211   0.271   4.500   0.837  0.1615 -0.2178 -0.1521
16240TIP3    H270212   0.185   4.581   0.931 -0.1717  0.1484 -0.7655
16241TIP3   OH270213   2.485   0.076  14.818  0.2578 -0.0892 -0.2122
16241TIP3    H170214   2.540   0.154  14.827  0.6768 -0.3784 -0.2440
16241TIP3    H270215   2.395   0.109  14.828  0.3891  0.4962 -0.8679
16242TIP3   OH270216   5.726   3.339  13.666 -0.0476  0.3853 -0.9429
16242TIP3    H170217   5.771   3.374  13.589  0.4222  1.2098 -0.3118
16242TIP3    H270218   5.788   3.352  13.738  0.1016 -1.6447 -0.6291
16243TIP3   OH270219   1.477   1.060  13.154  0.6909 -0.3880 -0.1564
16243TIP3    H170220   1.457   1.124  13.222  1.0420 -0.7187  0.2597
16243TIP3    H270221   1.392   1.027  13.126  0.5798 -0.8030  0.6564
16244TIP3   OH270222   1.100   3.874  14.523  0.2816  0.1904  0.1717
16244TIP3    H170223   1.159   3.849  14.451 -1.0353 -2.6844 -0.0652
16244TIP3    H270224   1.013   3.848  14.493 -0.7375  1.6527  1.6745
16245TIP3   OH270225   0.755   5.015  11.613  0.0622  0.2938 -0.0563
16245TIP3    H170226   0.734   5.059  11.531 -2.8548  0.3563  0.6028
16245TIP3    H270227   0.739   4.922  11.595 -3.4181  0.5188  1.0061
16246TIP3   OH270228   1.425   0.331   0.328 -0.3494  0.2089  0.0424
16246TIP3    H170229   1.482   0.267   0.287 -0.1453  0.0066  0.6233
16246TIP3    H270230   1.474   0.362   0.404 -1.0541 -0.0559  0.6217
16247TIP3   OH270231   2.760   2.839   1.239  0.3040  0.4049 -0.0735
16247TIP3    H170232   2.766   2.919   1.186 -1.4860 -0.6335 -1.9943
16247TIP3    H270233   2.840   2.791   1.220  0.5970  0.9623 -0.2692
16248TIP3   OH270234   3.695   0.955   0.622 -0.9420 -0.6062 -0.1836
16248TIP3    H170235   3.723   0.910   0.702 -0.5528  0.0929  0.0783
16248TIP3    H270236   3.607   0.988   0.642 -1.3277 -1.4254 -0.4566
16249TIP3   OH270237   0.259   6.483   3.423  0.3207  0.1977 -0.3270
16249TIP3    H170238   0.287   6.403   3.467 -2.2980  0.1580  1.4420
16249TIP3    H270239   0.297   6.554   3.475 -0.4055  0.1157  0.3283
16250TIP3   OH270240   7.064   3.457   5.764  0.9421 -0.3095  0.2739
16250TIP3    H170241   7.137   3.445   5.702  1.5873  0.3424  0.8908
16250TIP3    H270242   6.986   3.435   5.713  1.4762  0.0183 -0.7141
16251TIP3   OH270243   1.868   2.507  14.304 -0.1938 -0.3569 -0.8068
16251TIP3    H170244   1.849   2.586  14.253  0.7264  2.7319  3.1433
16251TIP3    H270245   1.963   2.504  14.309 -0.2557  0.2639  1.7122
16252TIP3   OH270246   0.094   6.995  15.653  0.1760 -0.1874 -0.1500
16252TIP3    H170247   0.143   7.034  15.724  1.0802 -0.9990 -0.3086
16252TIP3    H270248   0.120   7.045  15.575  0.1949 -0.1500 -0.1195
16253TIP3   OH270249   3.384   4.335   5.148  0.4354 -0.1080  0.0428
16253TIP3    H170250   3.462   4.385   5.123  1.3831 -0.7463  1.5528
16253TIP3    H270251   3.328   4.399   5.192  0.3994  0.2062 -0.4508
16254TIP3   OH270252   4.134   2.228   1.705  0.0122  0.3842 -0.1634
16254TIP3    H170253   4.164   2.172   1.633  0.3830  0.5208 -0.1151
16254TIP3    H270254   4.049   2.260   1.675 -0.1445 -0.0951 -0.2513
16255TIP3   OH270255   5.008   5.709   3.510 -0.1936  0.2080 -0.6685
16255TIP3    H170256   5.074   5.764   3.552 -0.1992  0.8713 -1.4994
16255TIP3    H270257   5.048   5.621   3.509 -0.3567  0.0799  1.0266
16256TIP3   OH270258   7.079   0.407   3.512  0.2543 -0.0638 -0.2451
16256TIP3    H170259   7.017   0.439   3.447  0.9172 -0.1709 -0.9552
16256TIP3    H270260   7.162   0.400   3.464  0.2595 -2.4307 -0.0419
16257TIP3   OH270261   3.147   5.547   2.579 -0.7352  0.1636  0.0638
16257TIP3    H170262   3.221   5.564   2.637  0.3675 -0.4528 -1.0916
16257TIP3    H270263   3.115   5.461   2.606 -0.9721  0.3857  0.4989
16258TIP3   OH270264   4.107   2.890   4.903 -0.1166 -0.2435  0.3094
16258TIP3    H170265   4.113   2.912   4.996  0.3002  0.7098  0.0687
16258TIP3    H270266   4.020   2.852   4.893 -0.5300  0.5142  0.9265
16259TIP3   OH270267   6.920   5.215  13.844 -0.1069  0.5093 -0.4201
16259TIP3    H170268   6.839   5.169  13.865 -0.6446  0.6733 -1.9937
16259TIP3    H270269   6.944   5.260  13.925 -1.6087  0.4854  0.0678
16260TIP3   OH270270   5.507   0.887  15.512 -0.0569 -0.7552  0.0408
16260TIP3    H170271   5.461   0.856  15.590  0.9145 -0.1474  0.8870
16260TIP3    H270272   5.489   0.981  15.509  0.6780 -0.6015  0.0959
16261TIP3   OH270273   1.196   5.044   6.062  0.2007 -0.5191  0.1130
16261TIP3    H170274   1.130   5.113   6.070  0.8667  0.0240  1.2452
16261TIP3    H270275   1.159   4.982   5.999 -1.5463 -0.4052  0.9592
16262TIP3   OH270276   6.746   1.425   1.863 -0.7232  0.4147 -0.1350
16262TIP3    H170277   6.686   1.411   1.936 -0.0889 -0.9532  0.1459
16262TIP3    H270278   6.778   1.338   1.840  0.0707  0.9581 -1.2162
16263TIP3   OH270279   5.429   3.104   2.635 -0.1359 -0.2444  0.3965
16263TIP3    H170280   5.347   3.088   2.683 -1.6499  0.6032 -1.7500
16263TIP3    H270281   5.422   3.196   2.608  1.2078 -0.3719 -0.4398
16264TIP3   OH270282   6.564   5.522   5.857  0.1804 -0.1328  0.1308
16264TIP3    H170283   6.540   5.607   5.820 -0.7586  0.4928  2.0836
16264TIP3    H270284   6.487   5.467   5.841  1.2421 -1.0763 -2.2497
16265TIP3   OH270285   2.527   0.386   3.349 -0.0471 -0.4839  0.0505
16265TIP3    H170286   2.508   0.298   3.315  0.4563 -0.5631 -0.0338
16265TIP3    H270287   2.590   0.372   3.419  0.6544 -0.1242 -0.4958
16266TIP3   OH270288   5.544   0.882   1.652  0.6362 -0.7931 -0.1306
16266TIP3    H170289   5.569   0.974   1.660  0.5980 -0.8383  0.5828
16266TIP3    H270290   5.553   0.862   1.559 -1.9942  0.6768 -0.7872
16267TIP3   OH270291   5.457   0.852  14.138  0.1881  0.3947  0.3297
16267TIP3    H170292   5.507   0.921  14.180  0.6929 -0.2228  0.7697
16267TIP3    H270293   5.436   0.791  14.209  0.1346 -0.1317 -0.1278
16268TIP3   OH270294   3.669   0.702   4.202 -0.4049 -0.4327 -0.2570
16268TIP3    H170295   3.725   0.644   4.254 -2.7515 -1.5205  1.2378
16268TIP3    H270296   3.660   0.781   4.256  1.7235  0.8758 -1.6967
16269TIP3   OH270297   1.396   0.103  13.143  0.1257  0.4766 -0.2415
16269TIP3    H170298   1.354   0.017  13.151  3.2890 -1.3467 -1.5145
16269TIP3    H270299   1.384   0.143  13.229 -0.3067 -1.8341  0.8533
16270TIP3   OH270300   6.025   5.559   0.054 -0.0582 -0.6765  0.1571
16270TIP3    H170301   6.002   5.641   0.010  0.7618 -0.3043  0.4161
16270TIP3    H270302   6.113   5.573   0.088 -0.0636 -1.5269  0.5526
16271TIP3   OH270303   5.870   5.993  14.803  0.2200 -0.3359 -0.4086
16271TIP3    H170304   5.878   6.088  14.791  1.3313 -0.5184 -1.2689
16271TIP3    H270305   5.838   5.960  14.719 -1.8227 -0.5832  0.4004
16272TIP3   OH270306   0.346   3.052   0.648  0.0074  0.1165  0.5717
16272TIP3    H170307   0.434   3.090   0.654 -1.2394  3.0917  2.0386
16272TIP3    H270308   0.319   3.039   0.739 -1.9223  1.5615  0.2740
16273TIP3   OH270309   7.068   1.588   3.404  0.5618  0.4287  0.0658
16273TIP3    H170310   7.156   1.593   3.367  0.6151  0.0587  0.1389
16273TIP3    H270311   7.061   1.499   3.438 -0.4104 -0.0959 -1.3678
16274TIP3   OH270312   1.374   4.281  13.464 -0.4003 -0.1460 -0.4002
16274TIP3    H170313   1.363   4.375  13.479 -1.3781 -0.3077  0.0297
16274TIP3    H270314   1.308   4.260  13.398  1.2503 -0.1644 -2.1078
16275TIP3   OH270315   4.412   3.000   3.389  0.0997  0.0954 -0.0151
16275TIP3    H170316   4.458   3.054   3.325  1.3291 -0.2300  0.5471
16275TIP3    H270317   4.463   2.919   3.392 -1.4925 -0.9592 -0.5629
16276TIP3   OH270318   5.471   0.716  14.358 -0.3838 -0.3851 -0.3311
16276TIP3    H170319   5.551   0.664  14.354  0.6326  1.1545 -0.8113
16276TIP3    H270320   5.437   0.701  14.447  1.1829 -0.0394  0.3642
16277TIP3   OH270321   4.046   6.595   0.939  0.4427  0.4880  0.2532
16277TIP3    H170322   4.054   6.502   0.917  1.3366  0.8131 -0.9028
16277TIP3    H270323   4.125   6.615   0.990  0.9449  0.9077 -0.6667
16278TIP3   OH270324   2.658   3.405  15.265  0.4669 -0.4015 -0.7148
16278TIP3    H170325   2.640   3.321  15.306 -2.1413 -0.3875 -1.6419
16278TIP3    H270326   2.753   3.414  15.270  0.7091 -2.7961  0.5335
16279TIP3   OH270327   2.601   5.918   1.280  0.1444  0.0105  0.0183
16279TIP3    H170328   2.607   6.011   1.258 -0.3084  0.4980  1.7523
16279TIP3    H270329   2.538   5.915   1.352 -0.7251 -1.7956 -0.7709
16280TIP3   OH270330   0.143   5.751   0.017 -0.4816  0.7881 -0.0560
16280TIP3    H170331   0.174   5.819   0.076 -3.1976  1.5339  0.6663
16280TIP3    H270332   0.176   5.669   0.055  0.2674  1.4769  0.8199
16281TIP3   OH270333   6.218   1.986  15.441 -0.0737 -0.8117 -0.4381
16281TIP3    H170334   6.144   2.046  15.431 -0.3369 -1.3519 -2.0237
16281TIP3    H270335   6.296   2.040  15.429 -0.2059 -0.3363  0.7169
16282TIP3   OH270336   6.176   0.916   3.821 -0.6052  0.0314  0.2009
16282TIP3    H170337   6.156   0.999   3.865 -0.1450  1.1766 -1.6117
16282TIP3    H270338   6.101   0.901   3.764 -0.4726 -0.5521  0.1820
16283TIP3   OH270339   0.240   3.127   4.919 -0.0821 -0.1929  0.2473
16283TIP3    H170340   0.184   3.197   4.884 -1.2897 -0.7261  1.0469
16283TIP3    H270341   0.228   3.054   4.857  0.7428  0.1030 -0.2787
16284TIP3   OH270342   5.727   2.798  10.202 -0.4891 -0.3050  0.1729
16284TIP3    H170343   5.700   2.879  10.244 -0.2856  0.5212 -1.2535
16284TIP3    H270344   5.645   2.754  10.181 -0.6321  0.1567 -0.2435
16285TIP3   OH270345   1.560   1.800  13.088 -0.0813  0.5763  0.0652
16285TIP3    H170346   1.479   1.754  13.068 -0.6240  0.9602  1.2509
16285TIP3    H270347   1.548   1.888  13.052  0.5975  0.0806 -1.4248
16286TIP3   OH270348   4.590   1.620   3.078  0.1005  0.5638  0.1890
16286TIP3    H170349   4.679   1.599   3.104  0.9747  1.7864 -1.6085
16286TIP3    H270350   4.573   1.706   3.115 -0.0057  0.6968 -0.1568
16287TIP3   OH270351   3.932   4.426   4.690  0.2492 -0.2406  0.2294
16287TIP3    H170352   3.889   4.485   4.752  1.3864  0.6280  0.2097
16287TIP3    H270353   4.007   4.475   4.657  2.0985 -2.1530  1.3025
16288TIP3   OH270354   0.976   6.037  13.894  0.2616  0.4193 -0.0989
16288TIP3    H170355   1.014   5.981  13.827  0.6555  0.5636  0.0003
16288TIP3    H270356   1.046   6.099  13.917  0.1899  0.2725  0.5551
16289TIP3   OH270357   4.930   4.701  13.908  0.3007 -0.6641  0.5205
16289TIP3    H170358   4.958   4.771  13.968  0.6894  0.7077 -1.1877
16289TIP3    H270359   4.877   4.746  13.842  0.8322 -1.9353 -0.8107
16290TIP3   OH270360   4.200   5.291   5.500 -0.3885  0.8478 -0.3324
16290TIP3    H170361   4.226   5.317   5.588 -0.1955  1.8345 -0.6649
16290TIP3    H270362   4.274   5.239   5.468  0.6226  2.4854 -0.7672
16291TIP3   OH270363   6.404   5.022   0.732 -0.0321 -0.5446  0.0430
16291TIP3    H170364   6.334   5.077   0.766 -0.0981 -1.5454  1.6395
16291TIP3    H270365   6.481   5.047   0.783  0.0699 -1.5170  0.3790
16292TIP3   OH270366   2.521   4.131  12.527  0.3748  0.4934  0.1902
16292TIP3    H170367   2.553   4.042  12.513 -1.0777 -0.1624  0.8373
16292TIP3    H270368   2.434   4.132  12.486  1.0855  2.1811 -1.4291
16293TIP3   OH270369   5.017   2.160   4.518  0.2975  0.3692 -0.0071
16293TIP3    H170370   4.982   2.231   4.573  0.2418  2.4793 -2.5398
16293TIP3    H270371   4.972   2.170   4.435  1.0216 -2.1046 -0.7782
16294TIP3   OH270372   0.882   4.384   2.487  0.5481  0.4584 -0.0823
16294TIP3    H170373   0.863   4.421   2.401 -0.0991  0.6678  0.1467
16294TIP3    H270374   0.812   4.320   2.502  0.2110  0.9764  0.6119
16295TIP3   OH270375   5.106   5.754   1.132 -0.3051  0.4107  0.1226
16295TIP3    H170376   5.157   5.825   1.094 -0.0816 -0.2990 -0.9607
16295TIP3    H270377   5.111   5.768   1.227  1.5176  0.6285  0.0280
16296TIP3   OH270378   6.585   2.559   2.539 -0.3385  0.3432 -0.1369
16296TIP3    H170379   6.674   2.578   2.570  0.0155  0.9115 -1.4406
16296TIP3    H270380   6.580   2.602   2.454 -0.6743 -2.5980 -1.7066
16297TIP3   OH270381   4.791   1.666   4.320  1.2135  0.1293  0.4623
16297TIP3    H170382   4.702   1.634   4.333  1.1075  0.3362  0.2482
16297TIP3    H270383   4.834   1.596   4.270  0.7556  0.6567 -0.6908
16298TIP3   OH270384   3.460   7.061   4.136 -0.4261  0.2853 -0.0920
16298TIP3    H170385   3.473   6.970   4.162 -0.6415  0.0747 -0.6953
16298TIP3    H270386   3.548   7.093   4.116 -0.0715  0.8860  2.2227
16299TIP3   OH270387   5.042   5.011  11.794  0.6587  0.5543  0.4686
16299TIP3    H170388   5.044   5.045  11.884  0.0876  0.8408  0.3737
16299TIP3    H270389   4.952   4.984  11.781  0.9433 -0.3314  0.2845
16300TIP3   OH270390   5.777   3.009  15.563 -0.2869 -0.1697 -0.1201
16300TIP3    H170391   5.686   3.013  15.533 -0.4302  1.0101  0.4225
16300TIP3    H270392   5.772   3.019  15.658  0.3460 -1.1672  0.0331
16301TIP3   OH270393   2.882   0.945   3.308  0.2538 -0.3474 -0.8005
16301TIP3    H170394   2.921   0.968   3.224  1.3583 -0.5393 -0.3651
16301TIP3    H270395   2.840   0.860   3.292 -0.3347  0.0505 -1.3827
16302TIP3   OH270396   0.628   3.857   9.836 -0.4841  0.5912 -0.2166
16302TIP3    H170397   0.536   3.865   9.862  0.0051  0.7613  1.5981
16302TIP3    H270398   0.671   3.820   9.913  1.0003  0.6598 -0.9889
16303TIP3   OH270399   3.696   4.213   2.970 -0.7008 -0.4880  0.4215
16303TIP3    H170400   3.723   4.219   3.062 -1.2336  1.1085  0.5045
16303TIP3    H270401   3.769   4.171   2.926  0.3443  0.3754  1.2675
16304TIP3   OH270402   3.549   1.730   2.129 -0.5761  0.5250 -0.5265
16304TIP3    H170403   3.488   1.686   2.188 -1.5323 -0.1643 -1.9590
16304TIP3    H270404   3.539   1.823   2.147 -1.9977  0.4116 -0.6553
16305TIP3   OH270405   1.247   6.632   1.181  0.0677 -0.1602  0.8204
16305TIP3    H170406   1.172   6.672   1.137  0.2857  1.8205  2.1213
16305TIP3    H270407   1.280   6.567   1.119 -0.5495  1.4331 -1.2788
16306TIP3   OH270408   1.110   6.927   4.303  0.7012  0.2962  0.1129
16306TIP3    H170409   1.116   6.841   4.261 -1.7855 -0.1143  0.4838
16306TIP3    H270410   1.035   6.921   4.361  0.9510  2.4894  0.7548
16307TIP3   OH270411   2.591   4.033   3.216 -0.1596 -0.7897 -0.7474
16307TIP3    H170412   2.666   4.091   3.227  0.5501 -1.6403 -0.8874
16307TIP3    H270413   2.519   4.090   3.191 -0.6993  0.6831  3.3897
16308TIP3   OH270414   0.450   0.815   1.069  0.2689 -0.0935 -0.1331
16308TIP3    H170415   0.484   0.780   1.151  2.6166  2.0188 -0.1041
16308TIP3    H270416   0.485   0.904   1.064 -2.1349  0.8599 -2.0945
16309TIP3   OH270417   1.110   2.317  14.678  0.0441 -0.2022  0.1012
16309TIP3    H170418   1.072   2.269  14.751  0.0910  0.6188  0.6835
16309TIP3    H270419   1.045   2.311  14.608 -0.2071 -0.5957  0.3661
16310TIP3   OH270420   2.197   4.369   1.908  0.1164 -1.1927 -0.3640
16310TIP3    H170421   2.262   4.330   1.967  0.7415  1.4222  0.8476
16310TIP3    H270422   2.221   4.462   1.905 -1.2708 -0.8389 -3.0217
16311TIP3   OH270423   2.212   7.083  14.070 -0.7314  0.0982  0.1824
16311TIP3    H170424   2.300   7.044  14.069  0.6556  2.9605 -1.0463
16311TIP3    H270425   2.162   7.029  14.131  1.6573 -2.0891  0.3481
16312TIP3   OH270426   2.722   1.281   2.716  0.5407  0.1313 -0.4858
16312TIP3    H170427   2.657   1.215   2.741  0.0424  0.1929 -1.5848
16312TIP3    H270428   2.690   1.316   2.633 -0.2465  3.1067  0.9196
16313TIP3   OH270429   0.628   6.218   1.209  0.6329  0.2932 -0.7698
16313TIP3    H170430   0.564   6.171   1.155  0.1375 -0.9016  0.7761
16313TIP3    H270431   0.597   6.309   1.208  0.1423  0.1304 -1.7645
16314TIP3   OH270432   6.612   6.209   0.241 -0.8424 -0.2761  0.5502
16314TIP3    H170433   6.573   6.293   0.267 -1.0528 -0.5351  1.0985
16314TIP3    H270434   6.665   6.184   0.316 -2.1786 -1.4925  1.1444
16315TIP3   OH270435   1.417   5.249  10.207 -0.1164 -0.2502 -0.3247
16315TIP3    H170436   1.501   5.294  10.212  0.8307 -2.0240  0.4691
16315TIP3    H270437   1.426   5.189  10.133 -0.5577 -0.7327  0.0078
16316TIP3   OH270438   6.657   6.421   3.159  0.0011 -0.1346 -0.8328
16316TIP3    H170439   6.700   6.337   3.142  0.3563  0.0102 -0.6764
16316TIP3    H270440   6.682   6.476   3.085  1.2730  0.3928 -0.0532
16317TIP3   OH270441   5.846   3.478   4.778  0.1104  0.1553  0.4116
16317TIP3    H170442   5.913   3.531   4.736 -0.7791  0.5609 -0.5342
16317TIP3    H270443   5.795   3.442   4.706  0.3948 -1.6183  1.0489
16318TIP3   OH270444   0.315   4.683  14.278 -0.1265 -0.1146 -0.0651
16318TIP3    H170445   0.268   4.622  14.221  0.1430 -0.4927  0.1199
16318TIP3    H270446   0.274   4.672  14.364 -1.1377  1.0896 -0.3535
16319TIP3   OH270447   3.907   0.344   0.947  0.2101  0.3586  0.1985
16319TIP3    H170448   3.908   0.421   1.004  0.2574  0.0520  0.6184
16319TIP3    H270449   3.956   0.371   0.869  3.7196 -0.4377  1.9242
16320TIP3   OH270450   3.325   6.904   4.488  0.0393 -0.1430 -0.7760
16320TIP3    H170451   3.385   6.907   4.413  1.6659  1.4785  0.5072
16320TIP3    H270452   3.375   6.942   4.560 -2.2746  0.5036  0.5747
16321TIP3   OH270453   5.360   4.931   4.962  0.1499  0.0448 -0.1221
16321TIP3    H170454   5.398   4.879   5.033  1.1703  0.2547 -0.5038
16321TIP3    H270455   5.307   4.868   4.913  1.5777 -0.7202 -0.7380
16322TIP3   OH270456   0.382   3.618   0.516  0.2490  0.4064 -0.2932
16322TIP3    H170457   0.334   3.562   0.577  1.1522 -1.4236 -1.2094
16322TIP3    H270458   0.461   3.643   0.563  0.1360  0.4191 -0.1081
16323TIP3   OH270459   1.595   5.830   4.530 -0.3502  0.1880 -0.4601
16323TIP3    H170460   1.540   5.806   4.605 -1.7868  0.1421 -1.4889
16323TIP3    H270461   1.685   5.814   4.560 -1.0014 -2.2110  0.4241
16324TIP3   OH270462   3.821   4.998   2.439  0.2040  0.2508  0.0985
16324TIP3    H170463   3.818   4.949   2.522  0.2388  0.0265 -0.0323
16324TIP3    H270464   3.869   5.078   2.461  0.9466 -0.1899  0.0989
16325TIP3   OH270465   3.336   4.847  13.097  0.6820 -0.0174 -0.0767
16325TIP3    H170466   3.320   4.904  13.172  1.1074 -1.0758  0.8566
16325TIP3    H270467   3.342   4.759  13.135  2.3075 -0.4252 -1.1592
16326TIP3   OH270468   1.251   6.750  11.753  0.0016  0.0938  0.5466
16326TIP3    H170469   1.329   6.755  11.808  0.4962  0.1854 -0.1455
16326TIP3    H270470   1.265   6.670  11.701 -1.3131 -1.0141  1.8127
16327TIP3   OH270471   0.870   4.638   5.993  0.1188  0.3176  0.4168
16327TIP3    H170472   0.821   4.710   5.953  0.6909  0.2724 -0.3827
16327TIP3    H270473   0.817   4.613   6.069 -1.7935 -0.5706 -1.0894
16328TIP3   OH270474   0.938   6.273   1.561  0.1611 -0.2559  0.5931
16328TIP3    H170475   0.891   6.356   1.555 -0.3591 -0.5848 -0.0751
16328TIP3    H270476   0.934   6.237   1.472  0.9474 -0.6915  0.7275
16329TIP3   OH270477   3.984   1.974   2.416 -0.4128  1.3948  0.3220
16329TIP3    H170478   4.058   1.981   2.476 -0.8166  0.4792  0.9536
16329TIP3    H270479   3.991   1.886   2.380 -0.7812  1.5655 -0.1646
16330TIP3   OH270480   3.341   6.458   4.315 -0.2485 -0.2708  0.2149
16330TIP3    H170481   3.300   6.522   4.374  0.7548  0.5646  0.0349
16330TIP3    H270482   3.277   6.387   4.309 -0.5348 -0.2218  2.0268
16331TIP3   OH270483   0.168   0.944   0.058  0.3372 -0.0340 -0.4116
16331TIP3    H170484   0.249   0.991   0.078  1.1015 -1.3324 -0.3262
16331TIP3    H270485   0.196   0.864   0.014 -0.9436 -0.2342 -0.9206
16332TIP3   OH270486   6.202   2.171   4.605 -0.0565 -0.2011 -0.2011
16332TIP3    H170487   6.219   2.167   4.510 -2.0925  0.3384 -0.6241
16332TIP3    H270488   6.128   2.112   4.619 -0.6967  0.8132  0.8101
16333TIP3   OH270489   2.305   6.769   5.021 -0.0989  0.6253  0.2872
16333TIP3    H170490   2.349   6.697   5.065 -1.2659 -0.0015  0.4613
16333TIP3    H270491   2.223   6.731   4.988 -0.7392  1.8688  0.3920
16334TIP3   OH270492   5.482   5.455   0.665  0.1319  0.4129 -0.3549
16334TIP3    H170493   5.482   5.431   0.572 -3.5030 -0.0815 -0.3838
16334TIP3    H270494   5.398   5.499   0.678  0.0499 -0.4588  2.8950
16335TIP3   OH270495   5.897   7.040   5.643  0.1621 -0.5834 -0.1665
16335TIP3    H170496   5.941   7.124   5.657 -0.5052 -0.5781  2.3216
16335TIP3    H270497   5.838   7.057   5.570  1.2406  0.5950 -0.8239
16336TIP3   OH270498   6.091   2.636  15.512  0.2504 -0.0368 -0.0314
16336TIP3    H170499   6.128   2.566  15.458  0.4751 -0.8213  1.1143
16336TIP3    H270500   6.161   2.662  15.571  0.0800  0.9787 -0.2445
16337TIP3   OH270501   3.435   6.524   2.385  0.2198  0.0461 -0.4919
16337TIP3    H170502   3.383   6.557   2.312  1.8404 -1.6793 -2.5418
16337TIP3    H270503   3.499   6.466   2.345 -1.0769 -3.9710  2.5867
16338TIP3   OH270504   3.269   5.221  12.034 -0.3251  0.2447  0.4153
16338TIP3    H170505   3.274   5.299  12.089  0.3999  0.3286  0.2423
16338TIP3    H270506   3.201   5.167  12.075 -0.2605  0.6026  1.0084
16339TIP3   OH270507   3.170   4.316  14.825 -0.1726 -0.1681 -0.2254
16339TIP3    H170508   3.141   4.225  14.815  0.4901 -0.3574 -0.4564
16339TIP3    H270509   3.089   4.366  14.838 -0.6496 -0.6060 -1.4322
16340TIP3   OH270510   1.389   4.876   3.897  0.5510  0.5688  0.5028
16340TIP3    H170511   1.294   4.865   3.892  0.3758  0.8250  2.4740
16340TIP3    H270512   1.413   4.843   3.984  2.5964 -1.5545 -0.7364
16341TIP3   OH270513   5.803   4.291  14.050  0.2011  0.5721 -0.1495
16341TIP3    H170514   5.856   4.277  13.972  1.1330  0.3523  0.5063
16341TIP3    H270515   5.864   4.279  14.123 -0.9981 -0.8596  0.6705
16342TIP3   OH270516   4.210   3.693   2.840 -0.5615  0.2286 -0.1039
16342TIP3    H170517   4.211   3.737   2.924  2.8761 -0.6603  0.4798
16342TIP3    H270518   4.282   3.629   2.845  0.7987  1.1414 -4.1535
16343TIP3   OH270519   6.302   1.679  14.632 -0.1386  0.1228  0.0182
16343TIP3    H170520   6.396   1.666  14.640  0.2064  1.1764 -1.8335
16343TIP3    H270521   6.265   1.591  14.643  0.9868 -0.2380  1.1919
16344TIP3   OH270522   5.768   6.652   1.312 -0.9578 -0.3095 -0.1844
16344TIP3    H170523   5.830   6.692   1.251  0.0081 -0.8100  0.4452
16344TIP3    H270524   5.682   6.665   1.271 -0.4718  0.6302 -0.9479
16345TIP3   OH270525   3.059   3.840   3.325  0.4124 -0.1550 -0.8922
16345TIP3    H170526   3.012   3.756   3.320  0.5754 -0.3589  0.5503
16345TIP3    H270527   3.130   3.831   3.261  2.1178 -2.2581  1.1352
16346TIP3   OH270528   5.265   2.556   2.954 -0.0665  0.4032  0.1202
16346TIP3    H170529   5.338   2.527   2.899 -1.1693 -0.1759 -1.0764
16346TIP3    H270530   5.307   2.589   3.034  1.5982  1.4804 -1.1328
16347TIP3   OH270531   2.367   0.944   4.801  0.8773 -0.5053 -0.1708
16347TIP3    H170532   2.430   0.882   4.838 -3.5682 -4.8100  1.2500
16347TIP3    H270533   2.302   0.956   4.871 -0.0370  3.7305 -1.4621
16348TIP3   OH270534   0.608   1.848  10.118  0.0127  0.4400  0.1534
16348TIP3    H170535   0.628   1.788  10.046  1.3480  1.3173 -0.2508
16348TIP3    H270536   0.566   1.794  10.184  1.6062 -1.0631  0.0115
16349TIP3   OH270537   6.068   1.480   2.149 -0.2637 -0.2577  0.8944
16349TIP3    H170538   6.031   1.565   2.172 -0.5722  0.1817 -1.1258
16349TIP3    H270539   6.159   1.485   2.180 -0.4423  0.5815  1.3106
16350TIP3   OH270540   4.565   3.163   1.914  0.8471 -0.3223 -0.1946
16350TIP3    H170541   4.492   3.111   1.948 -1.5294  1.1318 -2.6154
16350TIP3    H270542   4.627   3.099   1.880  0.4184 -1.6081  1.3107
16351TIP3   OH270543   0.736   3.386   5.142  0.1900  0.0190  0.2422
16351TIP3    H170544   0.656   3.343   5.112  0.7172 -0.9735  0.2264
16351TIP3    H270545   0.807   3.339   5.099  0.8215  0.4742  0.7541
16352TIP3   OH270546   7.060   3.747  15.204  0.0826 -0.0345 -0.2762
16352TIP3    H170547   6.967   3.735  15.220  0.0294  0.9389  0.1793
16352TIP3    H270548   7.080   3.685  15.133 -1.0671  0.3135 -0.9321
16353TIP3   OH270549   1.398   1.549  11.197 -0.2511  0.6447 -0.6577
16353TIP3    H170550   1.491   1.552  11.177 -0.3251  0.4451 -1.0394
16353TIP3    H270551   1.365   1.474  11.148 -0.5554  0.5211 -0.2698
16354TIP3   OH270552   3.737   4.518   3.211  0.6310 -0.1075  0.3553
16354TIP3    H170553   3.644   4.511   3.236  1.3250 -1.3464  2.8904
16354TIP3    H270554   3.769   4.593   3.261  0.8968  0.7567 -1.0546
16355TIP3   OH270555   1.641   1.360  11.435 -0.3053 -0.2956  0.6801
16355TIP3    H170556   1.658   1.269  11.457 -0.3019 -0.2482  0.8785
16355TIP3    H270557   1.702   1.410  11.491 -0.4357 -0.1663  0.7079
16356TIP3   OH270558   3.193   5.684   2.332  0.2691  0.3855  0.2745
16356TIP3    H170559   3.200   5.639   2.417  1.4749 -1.3921 -0.7007
16356TIP3    H270560   3.111   5.652   2.294 -0.2677  1.1764  0.7304
16357TIP3   OH270561   4.879   1.604  14.464  0.8569 -0.5453 -0.0120
16357TIP3    H170562   4.911   1.606  14.374  1.6470  0.3719  0.2740
16357TIP3    H270563   4.803   1.662  14.464  0.2173 -1.3677 -0.3089
16358TIP3   OH270564   3.435   6.434  12.629 -0.1016 -0.1497 -0.0310
16358TIP3    H170565   3.353   6.474  12.600 -0.7146 -0.2787  1.3984
16358TIP3    H270566   3.452   6.366  12.564  0.1665  1.3984 -1.6633
16359TIP3   OH270567   4.175   5.715   1.608  0.2441 -0.9816 -0.1332
16359TIP3    H170568   4.105   5.649   1.613  1.2156 -1.9504  1.7340
16359TIP3    H270569   4.137   5.794   1.647  0.3660 -1.7246  1.5829
16360TIP3   OH270570   0.789   4.694  15.218  0.4174  0.4423 -0.5283
16360TIP3    H170571   0.870   4.682  15.168 -0.5773 -2.7057 -1.6375
16360TIP3    H270572   0.721   4.701  15.151 -0.4807  0.7463  0.3895
16361TIP3   OH270573   0.313   1.048  12.743  0.3315 -0.4733 -0.0270
16361TIP3    H170574   0.344   1.139  12.741 -1.5098  0.2917  1.7953
16361TIP3    H270575   0.238   1.046  12.683  0.0317 -0.6284  0.3462
16362TIP3   OH270576   2.985   4.440   2.994  0.4673 -0.3270 -0.1982
16362TIP3    H170577   3.001   4.420   2.902 -0.0640  1.8730 -0.8459
16362TIP3    H270578   3.037   4.376   3.043  0.8743 -1.4471 -2.0182
16363TIP3   OH270579   2.497   0.043  12.166  0.1415  0.4750 -0.1462
16363TIP3    H170580   2.531   0.116  12.218  0.8740  0.1683 -0.1778
16363TIP3    H270581   2.442  -0.006  12.226 -2.0417  2.1321 -0.6225
16364TIP3   OH270582   4.417   6.709   0.636  0.0665 -0.0120  0.0415
16364TIP3    H170583   4.505   6.694   0.671  0.4167  2.0372  0.1952
16364TIP3    H270584   4.373   6.625   0.644  2.3058 -1.3681 -0.9448
16365TIP3   OH270585   6.579   6.081   4.345 -0.2915  0.7199 -0.2749
16365TIP3    H170586   6.578   6.170   4.382  0.5332 -0.5191  3.0252
16365TIP3    H270587   6.533   6.028   4.410  1.0904 -1.6372 -1.1335
16366TIP3   OH270588   1.080   0.712   4.125  0.1559  0.1177 -0.3705
16366TIP3    H170589   1.056   0.682   4.213  2.5508  0.7502  0.6064
16366TIP3    H270590   1.173   0.733   4.133  0.3284  0.5937 -2.9835
16367TIP3   OH270591   2.712   1.523   4.952  0.2974  0.0255  0.3273
16367TIP3    H170592   2.761   1.603   4.971  1.1185 -0.3468 -0.1713
16367TIP3    H270593   2.775   1.452   4.969  0.1895 -0.4279 -1.0433
16368TIP3   OH270594   1.277   6.906   2.745 -0.5517 -0.2435 -0.0934
16368TIP3    H170595   1.319   6.821   2.734  1.3213  0.6442 -0.2287
16368TIP3    H270596   1.276   6.919   2.840  1.2386  0.4999 -0.1284
16369TIP3   OH270597   5.411   5.473   4.025 -0.0923 -0.0751  0.8367
16369TIP3    H170598   5.500   5.446   4.001  0.0461 -0.7484  2.0200
16369TIP3    H270599   5.374   5.396   4.068 -0.7922  0.6359  1.5228
16370TIP3   OH270600   1.909   1.375  15.639 -0.5515 -0.1628 -0.0020
16370TIP3    H170601   1.853   1.381  15.716 -1.0171 -0.3599 -0.3208
16370TIP3    H270602   1.984   1.322  15.668 -1.9003 -2.4010 -0.3260
16371TIP3   OH270603   5.114   5.969   3.601  0.1247 -0.4907  0.0211
16371TIP3    H170604   5.134   6.023   3.525  1.3764 -1.4125 -0.3369
16371TIP3    H270605   5.020   5.955   3.597 -0.2083  1.5384  0.0578
16372TIP3   OH270606   6.828   6.758   3.299 -0.1723  0.0600  0.2619
16372TIP3    H170607   6.821   6.741   3.393  0.6872 -0.6849  0.2107
16372TIP3    H270608   6.912   6.720   3.275 -1.7956 -2.7994 -1.4225
16373TIP3   OH270609   2.429   0.815   0.122 -0.7645 -0.1460  0.5023
16373TIP3    H170610   2.507   0.803   0.067 -0.4200 -1.2809  1.2094
16373TIP3    H270611   2.382   0.732   0.116 -1.6871  0.3630  0.4659
16374TIP3   OH270612   4.243   4.546   0.451 -0.4782  0.1697  0.3077
16374TIP3    H170613   4.175   4.513   0.511 -1.4399  0.3418 -0.6527
16374TIP3    H270614   4.319   4.490   0.468 -1.0165 -0.3520  1.0613
16375TIP3   OH270615   2.957   1.273   2.860 -0.4663 -0.1711 -0.3533
16375TIP3    H170616   2.997   1.359   2.862 -0.1039 -0.3418  0.4507
16375TIP3    H270617   2.870   1.287   2.822 -1.4941  1.0471  2.1722
16376TIP3   OH270618   3.241   3.920   2.468 -0.0231  0.1413 -0.2685
16376TIP3    H170619   3.245   3.948   2.376 -1.7929  3.0706  0.4104
16376TIP3    H270620   3.314   3.965   2.510  1.0664 -1.5576 -0.2442
16377TIP3   OH270621   3.781   5.167   0.768  0.1393  0.6947 -0.2799
16377TIP3    H170622   3.707   5.110   0.787 -0.4160  1.0232 -1.3688
16377TIP3    H270623   3.790   5.222   0.846  1.6968 -1.8629  1.5083
16378TIP3   OH270624   0.325   5.640   2.208 -0.6755  0.0969  0.0451
16378TIP3    H170625   0.418   5.622   2.202 -0.4381  1.4558 -0.6508
16378TIP3    H270626   0.284   5.574   2.152 -0.2724 -1.3397  1.3761
16379TIP3   OH270627   6.895   6.362   1.156 -0.1716  0.3250 -0.4149
16379TIP3    H170628   6.808   6.402   1.161 -1.0587 -1.3074 -1.6562
16379TIP3    H270629   6.937   6.384   1.239 -2.1018  0.4128  0.5866
16380TIP3   OH270630   0.108   0.378   1.448  0.4061  0.3366 -0.6073
16380TIP3    H170631   0.032   0.361   1.393 -0.8840  0.7078  1.0147
16380TIP3    H270632   0.094   0.327   1.527  1.1884  1.4176  0.2755
16381TIP3   OH270633   5.919   0.941  10.581 -0.0076  0.9054 -0.7233
16381TIP3    H170634   5.951   0.865  10.532  0.6336 -0.2874  1.4370
16381TIP3    H270635   5.832   0.916  10.611  0.3510  0.8583  0.3042
16382TIP3   OH270636   3.062   0.677   0.556 -0.1047 -0.1239  0.6308
16382TIP3    H170637   3.029   0.587   0.547  0.7091 -0.3571 -0.2057
16382TIP3    H270638   3.138   0.680   0.498 -2.1394  2.1383 -2.2409
16383TIP3   OH270639   5.316   5.853   0.588  0.0317 -0.1077 -0.2275
16383TIP3    H170640   5.312   5.892   0.500 -0.9833  1.2200  0.3697
16383TIP3    H270641   5.242   5.892   0.634  0.7078 -0.5870  1.3068
16384TIP3   OH270642   1.991   0.932   0.015 -0.3315 -0.2795  0.0633
16384TIP3    H170643   1.914   0.987  -0.001 -0.4288 -0.2578  0.5906
16384TIP3    H270644   2.057   0.963  -0.048 -0.9804 -0.7710 -0.8938
16385TIP3   OH270645   2.423   4.245   5.096  0.0358 -0.4677  0.1601
16385TIP3    H170646   2.383   4.293   5.168  1.6640 -1.3156  1.6980
16385TIP3    H270647   2.406   4.153   5.116 -1.1357 -0.6796 -1.5906
16386TIP3   OH270648   3.870   3.395   5.931 -0.5725  0.2702 -0.0207
16386TIP3    H170649   3.810   3.363   5.864  0.1238  0.9117 -0.9726
16386TIP3    H270650   3.880   3.489   5.913 -1.0376  0.6463  1.5091
16387TIP3   OH270651   3.548   5.774   4.703  0.2934 -0.4381  0.8087
16387TIP3    H170652   3.567   5.744   4.614 -1.7024 -1.4445  0.6695
16387TIP3    H270653   3.544   5.695   4.756 -0.2155 -0.0068  1.4417
16388TIP3   OH270654   2.492   6.247   3.372 -0.6059  0.0101 -0.2388
16388TIP3    H170655   2.408   6.287   3.393 -1.1975 -1.9591  1.4830
16388TIP3    H270656   2.511   6.191   3.447  0.9982 -1.5803 -1.7459
16389TIP3   OH270657   3.661   6.790   2.264  0.5275 -0.2826  0.0593
16389TIP3    H170658   3.574   6.815   2.293 -0.6896 -0.9106 -2.7247
16389TIP3    H270659   3.712   6.781   2.344 -1.5464  1.5477  1.6705
16390TIP3   OH270660   4.518   2.615   2.344 -0.5725  0.2952 -0.1474
16390TIP3    H170661   4.477   2.541   2.389 -1.2737  0.7624 -0.0116
16390TIP3    H270662   4.607   2.617   2.379 -0.4068 -0.7380 -0.4612
16391TIP3   OH270663   1.266   6.323  12.300 -0.6073  0.3409  0.1505
16391TIP3    H170664   1.286   6.384  12.372  1.4764  1.1712 -1.0358
16391TIP3    H270665   1.198   6.368  12.250 -0.1799  1.0159  0.1491
16392TIP3   OH270666   1.140   3.159   3.954 -0.0468 -0.0133 -0.2331
16392TIP3    H170667   1.231   3.134   3.965 -0.1430 -0.4443 -0.4259
16392TIP3    H270668   1.115   3.125   3.868 -0.2296  0.5773 -0.4197
16393TIP3   OH270669   3.376   2.105   2.558  0.0555  0.2074  0.0297
16393TIP3    H170670   3.437   2.111   2.485 -0.3093  1.6394 -0.1805
16393TIP3    H270671   3.290   2.118   2.519 -0.3288 -0.9055  0.4523
16394TIP3   OH270672   1.551   1.244   1.416 -0.1116  0.3170  0.0827
16394TIP3    H170673   1.522   1.266   1.505 -1.5855  0.6547 -0.4429
16394TIP3    H270674   1.487   1.288   1.360 -0.1358 -1.1956 -1.1167
16395TIP3   OH270675   0.609   5.263   1.538 -0.2127  0.1603 -0.3727
16395TIP3    H170676   0.526   5.272   1.587 -1.2294  0.1793 -2.0256
16395TIP3    H270677   0.642   5.352   1.530  0.1836  0.1130  0.6274
16396TIP3   OH270678   1.262   1.575   1.094  0.1176 -0.1596 -0.4106
16396TIP3    H170679   1.197   1.544   1.030 -0.1739 -0.8401  0.1965
16396TIP3    H270680   1.330   1.615   1.041 -0.4270 -0.1343 -1.1116
16397TIP3   OH270681   5.073   0.963   5.746  0.1830  0.0531 -0.2937
16397TIP3    H170682   5.136   0.920   5.688  0.6440  1.2891 -0.7408
16397TIP3    H270683   5.125   1.021   5.800 -0.4726  0.3808  0.0039
16398TIP3   OH270684   3.240   4.288   2.179 -0.7175 -0.2800  0.0216
16398TIP3    H170685   3.256   4.339   2.258  0.8564 -1.7866  0.7472
16398TIP3    H270686   3.151   4.255   2.190 -0.7574  0.0665  0.8570
16399TIP3   OH270687   2.568   4.824   4.254 -0.0732  0.2074  0.5196
16399TIP3    H170688   2.527   4.819   4.168  0.5198  0.6144  0.2119
16399TIP3    H270689   2.496   4.807   4.315 -0.7479  1.0389 -0.0074
16400TIP3   OH270690   6.851   2.030   1.567  0.1685 -0.6050 -0.1439
16400TIP3    H170691   6.787   1.975   1.611 -0.3278  1.5664  2.0977
16400TIP3    H270692   6.930   2.023   1.621 -0.2608  1.6403  0.9124
16401TIP3   OH270693   3.898   2.412   2.665 -0.1723  0.0265  0.5513
16401TIP3    H170694   3.807   2.416   2.635  0.1738  0.6619 -0.4949
16401TIP3    H270695   3.948   2.449   2.592  0.7258  1.6714  1.9239
16402TIP3   OH270696   1.933   0.446   0.290 -0.1698 -0.6660  0.6204
16402TIP3    H170697   1.870   0.497   0.239  1.9643  1.0865 -0.4167
16402TIP3    H270698   1.946   0.366   0.238  1.1822  0.6254 -1.1909
16403TIP3   OH270699   3.491   5.039  15.662 -0.2898  0.5401 -0.2763
16403TIP3    H170700   3.568   5.016  15.714 -1.1195 -1.4104  0.2137
16403TIP3    H270701   3.420   4.990  15.703 -1.2615  0.0927 -2.3678
16404TIP3   OH270702   6.495   4.469   0.146  0.5024  0.3017 -0.1367
16404TIP3    H170703   6.519   4.380   0.121 -1.1750 -0.0782 -0.5654
16404TIP3    H270704   6.533   4.481   0.233  2.3386 -0.1291 -0.8433
16405TIP3   OH270705   2.582   4.231   4.843  0.3742  0.3408  0.2583
16405TIP3    H170706   2.555   4.226   4.934 -0.3612 -0.2425  0.0195
16405TIP3    H270707   2.612   4.322   4.831 -1.3518  0.9893  0.5933
16406TIP3   OH270708   2.642   7.123   1.802  0.1183 -0.5427 -0.4516
16406TIP3    H170709   2.566   7.139   1.859 -1.1658 -1.2128 -1.8882
16406TIP3    H270710   2.705   7.077   1.858 -0.8653 -0.7050  0.5682
16407TIP3   OH270711   3.554   0.959  13.595 -0.2517 -0.2250  0.4237
16407TIP3    H170712   3.476   0.904  13.599 -2.0874  2.0605 -0.8681
16407TIP3    H270713   3.552   1.010  13.676 -1.1020  0.9692 -0.3042
16408TIP3   OH270714   5.458   2.279   2.202 -0.1246  0.1972 -0.3107
16408TIP3    H170715   5.420   2.242   2.123  1.3789 -0.9023 -0.5672
16408TIP3    H270716   5.486   2.367   2.177 -2.2954  0.9855 -0.1420
16409TIP3   OH270717   2.419   6.371   4.750  0.1169 -0.0849  0.6946
16409TIP3    H170718   2.391   6.314   4.679  1.7712 -0.2134  0.1135
16409TIP3    H270719   2.406   6.460   4.717  1.0386 -0.1436  0.1495
16410TIP3   OH270720   5.513   2.025  11.646 -1.0579 -0.6398 -0.5378
16410TIP3    H170721   5.520   2.018  11.550 -0.3333 -0.7516 -0.4783
16410TIP3    H270722   5.598   2.058  11.674 -1.9369  1.3432 -0.0992
16411TIP3   OH270723   3.200   0.808   3.344  0.1908  0.4305 -0.2679
16411TIP3    H170724   3.139   0.760   3.288  0.0147 -0.8492  0.9707
16411TIP3    H270725   3.165   0.799   3.432  1.2469  1.1506  0.2589
16412TIP3   OH270726   2.415   6.422  13.078 -0.2439 -0.1424 -0.0141
16412TIP3    H170727   2.425   6.427  12.983  3.0091  1.2860  0.2716
16412TIP3    H270728   2.439   6.331  13.100  0.7622  0.0040 -0.4517
16413TIP3   OH270729   2.176   2.348   5.996 -0.1158  0.0361 -0.2151
16413TIP3    H170730   2.169   2.342   6.092 -0.1993  0.4034 -0.1982
16413TIP3    H270731   2.228   2.271   5.972  1.7410  1.0434  0.3290
16414TIP3   OH270732   4.226   4.579   0.877 -0.1051 -0.1543  0.0019
16414TIP3    H170733   4.273   4.646   0.827  3.0725 -0.6952  2.0172
16414TIP3    H270734   4.204   4.621   0.960  0.0419 -0.9684  0.4646
16415TIP3   OH270735   4.188   5.830   4.335  0.2852  0.5623 -0.3881
16415TIP3    H170736   4.154   5.752   4.292 -0.7128  0.6512  0.2047
16415TIP3    H270737   4.272   5.847   4.293  1.2485 -1.7186  0.4926
16416TIP3   OH270738   0.476   6.317   3.477 -0.3735  0.2988  0.0697
16416TIP3    H170739   0.458   6.276   3.392  0.5157  0.9441 -0.4465
16416TIP3    H270740   0.521   6.399   3.455 -0.9646  0.9279  1.1370
16417TIP3   OH270741   4.592   2.909  14.412  0.2201 -0.2400  0.4386
16417TIP3    H170742   4.563   2.997  14.435  0.4709 -0.5001  1.8515
16417TIP3    H270743   4.685   2.908  14.434  0.1407 -0.9570  0.7855
16418TIP3   OH270744   2.256   4.121   0.431 -0.1097 -0.0706  0.2153
16418TIP3    H170745   2.315   4.064   0.382  1.4447 -2.9892  4.8064
16418TIP3    H270746   2.306   4.200   0.448  1.8937 -1.6473  2.2349
16419TIP3   OH270747   0.198   2.973  11.093 -0.1050  0.2615  0.0447
16419TIP3    H170748   0.277   2.939  11.134  0.7309  2.2303  0.1540
16419TIP3    H270749   0.200   2.938  11.004  0.9284  0.3437  0.0260
16420TIP3   OH270750   6.038   2.026   0.625 -0.1973  0.2639 -0.5544
16420TIP3    H170751   6.027   1.990   0.713 -2.4249  0.7180 -0.6024
16420TIP3    H270752   6.132   2.048   0.620  0.3505 -1.5062  0.9886
16421TIP3   OH270753   2.448   4.622   4.590 -0.2908  0.2998  0.0721
16421TIP3    H170754   2.520   4.562   4.566 -1.1228 -0.7053  0.0131
16421TIP3    H270755   2.439   4.611   4.685 -0.8316 -0.1253 -0.0233
16422TIP3   OH270756   2.637   3.677   2.412 -0.2527 -0.3062  0.0205
16422TIP3    H170757   2.680   3.592   2.398 -1.1583 -0.4191 -2.5172
16422TIP3    H270758   2.709   3.738   2.424  0.4236 -1.3943  2.1000
16423TIP3   OH270759   0.692   0.770   1.749 -0.0269  0.6732 -0.1044
16423TIP3    H170760   0.620   0.833   1.738  0.4911  1.0756 -1.4149
16423TIP3    H270761   0.770   0.824   1.755  0.4764  0.1712 -1.6990
16424TIP3   OH270762   4.440   1.997   4.814 -0.3639 -0.1481 -0.2027
16424TIP3    H170763   4.375   1.994   4.744  0.0386 -1.2176 -0.5551
16424TIP3    H270764   4.391   1.973   4.893 -1.3458  3.2660  0.3904
16425TIP3   OH270765   6.184   5.012  14.162  0.3720  0.0399  0.4985
16425TIP3    H170766   6.262   4.958  14.176 -1.6995 -2.3784  4.6306
16425TIP3    H270767   6.188   5.078  14.231 -0.8728  0.3114  0.3227
16426TIP3   OH270768   4.821   5.531   0.843 -0.0828 -0.6877  0.4451
16426TIP3    H170769   4.815   5.547   0.749 -0.3423  0.7703  0.6935
16426TIP3    H270770   4.883   5.459   0.851  0.2758 -0.5396 -0.8207
16427TIP3   OH270771   3.787   5.009   0.521 -0.5148  0.1357  0.2767
16427TIP3    H170772   3.761   4.931   0.568  1.6847 -1.4714 -0.9789
16427TIP3    H270773   3.791   5.077   0.588  1.7103 -1.8638  2.3769
16428TIP3   OH270774   4.456   4.891   2.352  0.0029 -0.2360  0.4916
16428TIP3    H170775   4.416   4.929   2.273  0.6623  0.9268  0.6985
16428TIP3    H270776   4.446   4.959   2.419  1.3822 -0.3390  0.8249
16429TIP3   OH270777   1.064   1.668   4.193 -0.5633  0.2530 -0.5254
16429TIP3    H170778   1.089   1.755   4.225  0.6675  0.2427 -1.3624
16429TIP3    H270779   1.132   1.610   4.228 -0.4890 -0.1101 -1.2559
16430TIP3   OH270780   5.651   4.035   0.209  0.1497  0.4601  0.1291
16430TIP3    H170781   5.604   4.059   0.129 -1.0563 -0.2545  0.5894
16430TIP3    H270782   5.717   4.103   0.220  0.3007  0.5990 -1.4377
16431TIP3   OH270783   4.842   3.587   0.877 -0.2045 -0.6457  0.6525
16431TIP3    H170784   4.827   3.511   0.821 -0.6143  0.1568 -0.3668
16431TIP3    H270785   4.915   3.634   0.836 -0.1152 -0.3584  1.1263
16432TIP3   OH270786   3.014   4.364   4.817  0.2000  0.2989 -0.7300
16432TIP3    H170787   2.992   4.401   4.732  0.0810  0.3021 -0.6990
16432TIP3    H270788   3.099   4.323   4.805  0.3911  0.6950 -0.7316
16433TIP3   OH270789   2.193   2.334  14.553 -0.0964  0.3021 -0.1555
16433TIP3    H170790   2.194   2.276  14.629  0.5945  1.0517  0.4272
16433TIP3    H270791   2.100   2.346  14.533 -0.2756 -0.0818  0.4371
16434TIP3   OH270792   2.063   5.558   4.173  0.3491  0.2456 -0.3324
16434TIP3    H170793   2.153   5.584   4.156 -0.0084  0.9858 -1.1551
16434TIP3    H270794   2.042   5.496   4.104  0.3242 -0.1750  0.0468
16435TIP3   OH270795   1.383   3.276   3.817  0.2412  0.2064 -0.6243
16435TIP3    H170796   1.310   3.229   3.775  0.4698  0.3036 -1.1421
16435TIP3    H270797   1.433   3.312   3.744 -0.1240  1.5614 -0.2313
16436TIP3   OH270798   3.991   1.820   2.685 -0.2576 -0.4275 -0.2043
16436TIP3    H170799   4.086   1.813   2.687 -0.2986 -0.7638  1.3733
16436TIP3    H270800   3.963   1.751   2.624  0.5318  0.3737 -1.5267
16437TIP3   OH270801   0.261   0.171   5.310 -0.0377  0.1019 -0.2087
16437TIP3    H170802   0.298   0.229   5.244 -1.8720  1.2261 -0.3117
16437TIP3    H270803   0.220   0.100   5.260 -0.4290  0.3456 -0.2396
16438TIP3   OH270804   0.019   4.603  13.938  0.1705  0.4683 -0.3786
16438TIP3    H170805   0.075   4.619  13.862 -0.3170  1.9820 -0.4585
16438TIP3    H270806   0.080   4.573  14.006  0.4921 -1.7868 -1.5631
16439TIP3   OH270807   1.900   2.818   5.015 -0.2772  0.3396 -0.0378
16439TIP3    H170808   1.921   2.804   4.922  1.4050  0.5580  0.2759
16439TIP3    H270809   1.866   2.908   5.018  1.6513  1.1100 -0.1847
16440TIP3   OH270810   1.164   3.929   0.293  0.2094 -0.2955 -0.1195
16440TIP3    H170811   1.209   3.854   0.331  0.3661  0.1882  0.6597
16440TIP3    H270812   1.152   3.905   0.201  3.6604  0.2954 -0.8595
16441TIP3   OH270813   0.811   3.384   0.317 -0.2784 -0.3785 -0.5345
16441TIP3    H170814   0.801   3.328   0.394  0.2225 -1.0180 -0.9292
16441TIP3    H270815   0.889   3.352   0.273 -0.7430 -0.2424 -1.4934
16442TIP3   OH270816   5.584   6.336   4.937  0.0794  0.1266 -0.1217
16442TIP3    H170817   5.679   6.340   4.951 -0.0501  0.6730  0.6573
16442TIP3    H270818   5.573   6.269   4.870  0.9687 -0.4264  0.2656
16443TIP3   OH270819   1.614   5.693   1.789  0.0258  0.2113 -0.1894
16443TIP3    H170820   1.608   5.700   1.884 -0.3563 -2.9077  0.1128
16443TIP3    H270821   1.532   5.730   1.757 -0.0184  0.9205  0.7084
16444TIP3   OH270822   2.887   6.522   2.675  0.8100 -0.4184  0.2149
16444TIP3    H170823   2.904   6.550   2.766  0.9888 -0.0725  0.0786
16444TIP3    H270824   2.874   6.428   2.681 -0.9482 -0.1607  0.8495
16445TIP3   OH270825   2.853   2.910   0.757 -0.1868 -0.4930 -0.2567
16445TIP3    H170826   2.782   2.948   0.809 -0.2142  0.6359 -1.0836
16445TIP3    H270827   2.915   2.877   0.823 -1.5259 -1.6517  0.4696
16446TIP3   OH270828   2.613   1.818   3.457  0.2185  0.5345  0.1362
16446TIP3    H170829   2.672   1.846   3.527 -0.3270  0.6056  0.5682
16446TIP3    H270830   2.589   1.899   3.411  1.0130  0.4334 -0.4977
16447TIP3   OH270831   4.022   4.350   6.148 -0.5812  0.3411 -0.2403
16447TIP3    H170832   3.996   4.258   6.143 -0.4534  0.1431  1.7293
16447TIP3    H270833   4.104   4.349   6.196  1.0373  1.3094 -2.7856
16448TIP3   OH270834   3.089   0.190   3.979  0.7411  0.6572 -0.2246
16448TIP3    H170835   3.099   0.219   3.888  0.8188  0.8908 -0.1410
16448TIP3    H270836   3.135   0.106   3.982  1.5921  1.1232 -0.1550
16449TIP3   OH270837   6.115   4.981  12.474 -0.0206  0.1664 -0.1706
16449TIP3    H170838   6.158   5.034  12.407 -1.3298  0.9816 -0.3883
16449TIP3    H270839   6.102   5.041  12.547  0.2683 -0.3878  0.3389
16450TIP3   OH270840   6.188   2.279  12.373  0.0654 -0.3130 -0.1290
16450TIP3    H170841   6.158   2.317  12.456  0.2711  0.5545 -0.4363
16450TIP3    H270842   6.253   2.341  12.341  0.0138 -0.6579 -0.9216
16451TIP3   OH270843   6.319   1.823   1.730 -0.3160  0.2232  0.3120
16451TIP3    H170844   6.386   1.890   1.715 -1.2388  1.1489  0.1413
16451TIP3    H270845   6.297   1.831   1.823 -0.6488  0.3981  0.2233
16452TIP3   OH270846   2.446   4.945  10.155  0.3993  0.4689 -0.0330
16452TIP3    H170847   2.389   5.003  10.106  0.7760  0.5407 -0.3910
16452TIP3    H270848   2.530   4.949  10.109  0.2930 -0.7631 -0.3724
16453TIP3   OH270849   5.932   1.245   3.675  0.4213  0.3884  0.3580
16453TIP3    H170850   5.858   1.301   3.697  0.3449  0.5950 -0.3834
16453TIP3    H270851   5.985   1.298   3.616  0.3521 -0.3047 -0.3495
16454TIP3   OH270852   0.587   0.988   4.825 -0.7724  0.1608  0.0021
16454TIP3    H170853   0.609   0.898   4.800 -2.6532 -0.7780  1.4209
16454TIP3    H270854   0.662   1.017   4.878 -0.3255 -0.7167 -0.1256
16455TIP3   OH270855   3.719   4.134  13.265  0.2983  0.2223 -0.0941
16455TIP3    H170856   3.790   4.087  13.220 -0.2309  0.8016 -1.5883
16455TIP3    H270857   3.721   4.100  13.355  1.3778 -0.9968 -0.5474
16456TIP3   OH270858   3.633   4.405   2.221  0.5020  0.2718 -0.7800
16456TIP3    H170859   3.691   4.377   2.291  0.6878  0.3670 -0.8944
16456TIP3    H270860   3.692   4.438   2.153  0.2748  1.0820 -0.5827
16457TIP3   OH270861   6.070   3.541  12.080  0.0573 -0.7359  0.1455
16457TIP3    H170862   6.074   3.464  12.136  2.5599 -1.5975 -1.0743
16457TIP3    H270863   6.129   3.604  12.122  1.1072 -0.9941 -0.8930
16458TIP3   OH270864   6.260   2.371  15.455  0.6544  0.1997  0.0311
16458TIP3    H170865   6.187   2.342  15.509 -0.5941 -1.5795 -2.3819
16458TIP3    H270866   6.315   2.293  15.447  0.4040  0.1573 -1.7581
16459TIP3   OH270867   6.089   3.309   1.061  0.2098  0.0338  0.0921
16459TIP3    H170868   6.163   3.259   1.096  0.5579  0.3512 -0.1830
16459TIP3    H270869   6.113   3.328   0.971 -0.7740 -0.9480 -0.4017
16460TIP3   OH270870   6.676   3.522   4.985  0.2850  0.3032 -0.0227
16460TIP3    H170871   6.586   3.491   4.976  0.3874  0.5203 -2.3986
16460TIP3    H270872   6.729   3.456   4.941  0.7934  2.1648 -2.4625
16461TIP3   OH270873   5.539   0.408   3.775 -1.0758  0.4760 -0.0271
16461TIP3    H170874   5.514   0.353   3.849  0.9743 -1.6742 -0.7936
16461TIP3    H270875   5.488   0.374   3.702  0.2394 -0.5130 -0.5161
16462TIP3   OH270876   4.023   3.175   2.046 -0.1931 -0.6196  0.1036
16462TIP3    H170877   4.106   3.195   2.090 -0.8178 -0.1935  1.1150
16462TIP3    H270878   3.963   3.154   2.118 -1.3359  0.4496 -0.5225
16463TIP3   OH270879   2.964   4.506  14.882  0.3023  0.5142  0.1181
16463TIP3    H170880   2.936   4.496  14.974 -1.2657  0.3564 -0.3455
16463TIP3    H270881   2.883   4.526  14.835  0.6768 -1.6497 -1.6091
16464TIP3   OH270882   4.398   5.452  12.665 -1.1208  0.1015 -0.4195
16464TIP3    H170883   4.419   5.368  12.706  0.9306  0.3910 -0.7841
16464TIP3    H270884   4.385   5.430  12.573 -2.2352 -0.0271 -0.2486
16465TIP3   OH270885   3.912   3.193  14.497 -0.2202  0.6188 -0.2126
16465TIP3    H170886   3.963   3.228  14.570  2.8321  0.6562 -2.1806
16465TIP3    H270887   3.906   3.265  14.435 -1.1859  0.0594 -0.7901
16466TIP3   OH270888   0.568   3.641   1.810 -0.2601 -0.1229  0.0043
16466TIP3    H170889   0.609   3.679   1.732 -0.8225 -0.1569 -0.3106
16466TIP3    H270890   0.477   3.671   1.806 -0.4498 -0.6576  0.3098
16467TIP3   OH270891   0.821   2.474   1.464  0.0188  0.3799 -0.5440
16467TIP3    H170892   0.765   2.479   1.541  0.7429  1.4593 -0.0549
16467TIP3    H270893   0.827   2.565   1.433  0.0461  0.0187 -1.6595
16468TIP3   OH270894   0.675   7.001  13.330 -0.5547  0.5381  0.5312
16468TIP3    H170895   0.633   7.086  13.319  1.5730  1.3416 -3.0336
16468TIP3    H270896   0.767   7.022  13.346  0.1443 -1.0136 -1.1266
16469TIP3   OH270897   2.399   1.037  14.149  0.4106  0.0692  0.6547
16469TIP3    H170898   2.457   0.990  14.089 -0.9438 -1.8085  0.7459
16469TIP3    H270899   2.457   1.100  14.194  1.9650 -0.3818 -0.6234
16470TIP3   OH270900   5.932   6.323  11.463  0.2683  0.2711 -0.1746
16470TIP3    H170901   5.844   6.345  11.493  0.3536  1.3677 -0.6957
16470TIP3    H270902   5.973   6.407  11.444  0.4496 -0.3173 -2.7373
16471TIP3   OH270903   3.724   0.714   2.996  0.3508 -0.0051  0.3771
16471TIP3    H170904   3.786   0.733   2.926 -0.1033 -1.2596 -0.4067
16471TIP3    H270905   3.741   0.623   3.018 -0.2862  0.0467  1.1082
16472TIP3   OH270906   4.581   2.940   2.815  0.0379  0.3039  0.0188
16472TIP3    H170907   4.569   3.035   2.814 -0.0068  0.3008  0.2686
16472TIP3    H270908   4.662   2.926   2.864 -0.1165  0.1963  0.2434
16473TIP3   OH270909   1.491   4.642  10.585 -0.3191 -0.0285 -0.1498
16473TIP3    H170910   1.439   4.631  10.665 -0.2383  0.9147  0.0439
16473TIP3    H270911   1.527   4.731  10.592  0.6880 -0.3860 -0.6538
16474TIP3   OH270912   5.525   5.804   4.750 -0.5599 -0.3879 -0.0443
16474TIP3    H170913   5.532   5.736   4.817  0.7856  0.5599  0.8126
16474TIP3    H270914   5.435   5.836   4.758 -0.7164 -0.9738  0.6183
16475TIP3   OH270915   0.191   0.068   5.574 -0.6205  0.1221  0.5872
16475TIP3    H170916   0.257   0.008   5.540 -1.2499  0.4083 -1.1957
16475TIP3    H270917   0.166   0.122   5.499 -2.5855  0.2986  1.3196
16476TIP3   OH270918   0.956   6.087  14.228 -0.0103 -0.2861  0.2548
16476TIP3    H170919   0.885   6.048  14.278 -0.7092 -0.1552 -0.6166
16476TIP3    H270920   0.996   6.014  14.181  0.5231 -0.3784  0.8299
16477TIP3   OH270921   1.591   0.091   0.057  0.1645 -0.0357  0.5854
16477TIP3    H170922   1.650   0.022   0.088  2.4964  1.5285 -0.0195
16477TIP3    H270923   1.571   0.066  -0.033  1.0629  0.0942  0.3406
16478TIP3   OH270924   3.353   4.877   0.599  0.7206  0.0200  0.6594
16478TIP3    H170925   3.412   4.814   0.557  1.8766  0.7488  1.1355
16478TIP3    H270926   3.310   4.921   0.526 -0.9605 -2.0337  0.3085
16479TIP3   OH270927   3.278   1.553   1.883 -0.3148  0.6756 -0.1944
16479TIP3    H170928   3.228   1.483   1.925  1.6957  0.3688  1.9001
16479TIP3    H270929   3.235   1.634   1.911 -0.8420  0.3684 -0.1099
16480TIP3   OH270930   2.756   0.580  14.942  0.3363 -0.0452  0.1188
16480TIP3    H170931   2.795   0.599  15.028 -0.9121 -1.6917  1.1222
16480TIP3    H270932   2.816   0.517  14.902  1.1737  1.0895 -0.4658
16481TIP3   OH270933   6.899   6.852   3.972 -0.1134 -0.1622 -0.0794
16481TIP3    H170934   6.987   6.822   3.948 -0.0486 -0.5501  0.5880
16481TIP3    H270935   6.841   6.803   3.914  0.1008 -0.1069 -0.3431
16482TIP3   OH270936   1.525   0.269   3.828 -0.5572 -0.5126  0.3402
16482TIP3    H170937   1.507   0.180   3.860  0.0035 -0.5669  0.5189
16482TIP3    H270938   1.520   0.324   3.906 -2.5508 -0.1191 -0.0241
16483TIP3   OH270939   5.135   5.592   0.127 -0.4060 -0.3323  0.0801
16483TIP3    H170940   5.176   5.509   0.151  0.5867 -0.0601 -0.6104
16483TIP3    H270941   5.187   5.659   0.172  0.5905  0.0888 -1.6101
16484TIP3   OH270942   3.718   6.795   3.280 -0.3090  0.0786 -0.1617
16484TIP3    H170943   3.636   6.753   3.304  0.6062 -1.3365  0.6530
16484TIP3    H270944   3.759   6.735   3.217  1.1093 -0.4140  1.1610
16485TIP3   OH270945   3.126   0.888  14.379 -0.0105  0.2065 -0.7007
16485TIP3    H170946   3.035   0.870  14.352 -0.2389  1.6177 -0.9416
16485TIP3    H270947   3.179   0.845  14.312 -0.5520  1.3475 -1.9111
16486TIP3   OH270948   3.566   6.573   3.057  0.1098  0.7633 -0.0125
16486TIP3    H170949   3.639   6.582   2.996 -0.9054  0.9075 -1.2563
16486TIP3    H270950   3.591   6.502   3.116  0.3524 -0.6838 -1.7849
16487TIP3   OH270951   1.608   5.074   4.520  0.2612 -0.2202 -0.4041
16487TIP3    H170952   1.671   5.005   4.536 -0.7911 -1.1901 -0.3038
16487TIP3    H270953   1.649   5.153   4.557  1.5847 -0.7199 -0.7560
16488TIP3   OH270954   0.661   1.205   6.110  0.2168  0.4363  0.0982
16488TIP3    H170955   0.638   1.224   6.020  0.9643  0.4960 -0.0930
16488TIP3    H270956   0.604   1.133   6.135  0.5497 -0.1218 -0.6988
16489TIP3   OH270957   5.231   1.612  11.840  0.5059 -0.2022 -0.0133
16489TIP3    H170958   5.253   1.694  11.798 -2.5128  1.2244  0.9143
16489TIP3    H270959   5.171   1.569  11.779 -0.1115 -0.3922  0.7177
16490TIP3   OH270960   2.191   3.914   5.086  0.4376  0.2302  0.5482
16490TIP3    H170961   2.114   3.860   5.105  1.8239 -1.9211  0.3777
16490TIP3    H270962   2.230   3.930   5.172 -0.0669  1.1821  0.6173
16491TIP3   OH270963   5.869   5.752   4.095 -0.3277 -0.3818  0.5354
16491TIP3    H170964   5.814   5.763   4.173  0.0095  0.6076  0.6344
16491TIP3    H270965   5.958   5.762   4.126 -0.1689 -0.3482  0.0774
16492TIP3   OH270966   1.793   3.746   0.193 -0.0300 -0.6083  0.4745
16492TIP3    H170967   1.754   3.716   0.110  1.1359 -2.9506  0.6897
16492TIP3    H270968   1.786   3.841   0.190 -0.4240 -0.6523 -2.1224
16493TIP3   OH270969   0.481   3.058  14.879 -0.2150  0.4132 -0.2816
16493TIP3    H170970   0.547   2.995  14.908 -0.0511  0.6900 -0.0457
16493TIP3    H270971   0.486   3.129  14.943 -0.6338  0.5097 -0.3501
16494TIP3   OH270972   1.662   2.944  13.150  0.2707  0.6169 -0.4218
16494TIP3    H170973   1.720   2.887  13.100 -0.5360  0.8564 -1.6605
16494TIP3    H270974   1.588   2.962  13.092 -0.4500  1.3358  0.6592
16495TIP3   OH270975   0.443   0.256   0.115 -0.2007  0.3806  0.4233
16495TIP3    H170976   0.516   0.311   0.144 -0.8689  0.8240  1.3199
16495TIP3    H270977   0.480   0.202   0.045  0.5787  1.6980 -0.2246
16496TIP3   OH270978   2.925   5.890   0.697  0.1131  0.3791 -0.1622
16496TIP3    H170979   2.960   5.805   0.670 -2.0715 -0.6591  0.0450
16496TIP3    H270980   2.982   5.919   0.768  0.9967 -0.8245 -0.3550
16497TIP3   OH270981   4.427   6.255   2.954  0.4363 -0.0284 -0.1327
16497TIP3    H170982   4.461   6.198   2.885  0.3190 -0.7862  0.4301
16497TIP3    H270983   4.335   6.270   2.929 -0.0496 -1.5577  0.6545
16498TIP3   OH270984   4.735   0.656  13.335  0.0808 -0.3905 -0.1528
16498TIP3    H170985   4.804   0.719  13.314 -0.7867  1.0920  1.1975
16498TIP3    H270986   4.653   0.703  13.322 -0.6447 -1.5843 -0.1248
16499TIP3   OH270987   3.167   2.084   1.365  0.4351  0.0888  0.0025
16499TIP3    H170988   3.171   2.173   1.402  0.8566  0.0807 -0.0136
16499TIP3    H270989   3.151   2.099   1.271 -1.3002  0.0919  0.2632
16500TIP3   OH270990   4.923   2.988   1.569 -0.3163  0.2137  0.7860
16500TIP3    H170991   4.974   2.916   1.608  0.1079  0.3078  0.4205
16500TIP3    H270992   4.982   3.064   1.574  0.1415  0.0147 -0.8971
16501TIP3   OH270993   2.569   5.466  14.696 -0.6363  0.0858 -0.3845
16501TIP3    H170994   2.649   5.444  14.744 -0.5293 -0.9092 -0.9909
16501TIP3    H270995   2.501   5.472  14.763 -0.3344 -0.5064 -0.0212
16502TIP3   OH270996   6.485   7.072   1.224  0.4080 -0.1567 -0.2042
16502TIP3    H170997   6.539   7.028   1.158  1.2692  0.1902  0.2604
16502TIP3    H270998   6.458   7.001   1.283  1.4179 -0.1465  0.2847
16503TIP3   OH270999   5.024   6.683   4.632 -0.6340  0.1299  0.1765
16503TIP3    H171000   4.987   6.714   4.715 -1.6407  0.6866 -0.4538
16503TIP3    H271001   4.949   6.681   4.572  0.0747 -0.2655 -0.7224
16504TIP3   OH271002   4.201   1.411  10.784 -0.2808  0.2193 -0.1868
16504TIP3    H171003   4.274   1.392  10.725  0.6098  2.2222  0.1662
16504TIP3    H271004   4.228   1.491  10.830 -3.2386  1.8277 -1.0119
16505TIP3   OH271005   4.107   2.728  12.998 -0.1855  0.0649  0.3398
16505TIP3    H171006   4.180   2.790  13.008 -1.0507  0.9220  1.7495
16505TIP3    H271007   4.054   2.764  12.927 -0.1368  0.3974  0.4694
16506TIP3   OH271008   3.452   2.238   1.562 -0.1393 -0.5051  0.9188
16506TIP3    H171009   3.361   2.224   1.538  0.0857 -0.8081  0.2212
16506TIP3    H271010   3.463   2.191   1.644 -0.2471 -1.6791  0.2794
16507TIP3   OH271011   4.128   2.701  11.949 -0.2103 -0.0968  0.8149
16507TIP3    H171012   4.158   2.777  11.999  2.0687 -0.2934 -0.1849
16507TIP3    H271013   4.074   2.738  11.879  0.4568  0.5454  0.6380
16508TIP3   OH271014   5.216   4.958  14.604  0.6451  0.8086  0.3544
16508TIP3    H171015   5.172   4.993  14.526  1.8417  0.2202 -0.6266
16508TIP3    H271016   5.267   4.884  14.572  0.0035 -0.3880  1.9882
16509TIP3   OH271017   3.938   2.903   4.643  0.3721  0.0853  0.6549
16509TIP3    H171018   3.879   2.827   4.642 -0.4098  0.5885 -2.9596
16509TIP3    H271019   4.016   2.873   4.596 -0.2585  1.6096 -1.5337
16510TIP3   OH271020   4.200   2.369   3.126 -0.3538  0.3056 -0.5709
16510TIP3    H171021   4.281   2.412   3.098 -0.0694 -0.3078 -0.7004
16510TIP3    H271022   4.130   2.429   3.097  0.0285  0.6307 -0.8410
16511TIP3   OH271023   1.344   3.397  12.380 -0.3076  0.0187 -0.2778
16511TIP3    H171024   1.376   3.315  12.418  1.0249  1.2218  1.3340
16511TIP3    H271025   1.278   3.428  12.441 -0.2889  0.4940 -0.4952
16512TIP3   OH271026   6.642   5.239   2.378  0.2029  0.1993 -0.3716
16512TIP3    H171027   6.615   5.270   2.291  0.7577 -1.2807 -1.1132
16512TIP3    H271028   6.718   5.183   2.361 -2.0042 -3.4448  0.4953
16513TIP3   OH271029   0.045   3.838   4.137 -0.4250 -0.0624 -0.2263
16513TIP3    H171030  -0.024   3.903   4.151 -0.4599  0.2710 -1.8343
16513TIP3    H271031   0.126   3.885   4.159 -0.6360 -0.3606  1.3523
16514TIP3   OH271032   4.959   6.531  13.385  0.2541 -1.3101 -0.0445
16514TIP3    H171033   5.022   6.589  13.341 -0.5719 -0.4637 -0.1292
16514TIP3    H271034   4.941   6.463  13.320  0.8761 -1.4164 -0.1169
16515TIP3   OH271035   1.711   4.695  12.043  0.0806 -0.0852  0.3633
16515TIP3    H171036   1.717   4.669  12.135  0.8142  1.2070  0.7159
16515TIP3    H271037   1.624   4.669  12.016  0.1638 -1.2792  1.1642
16516TIP3   OH271038   0.744   3.008  12.266 -0.0490  0.1399  0.1253
16516TIP3    H171039   0.762   3.084  12.209  1.6555 -1.0302 -1.0190
16516TIP3    H271040   0.650   2.995  12.259 -0.0738  0.8400 -1.4080
16517TIP3   OH271041   2.618   2.059  10.915  0.0511 -0.2713 -0.4105
16517TIP3    H171042   2.692   2.092  10.965 -0.5501  1.1224 -0.4180
16517TIP3    H271043   2.646   1.971  10.887  1.9823  0.4694 -0.9984
16518TIP3   OH271044   1.806   3.390   1.837 -0.1012 -0.2132  0.4561
16518TIP3    H171045   1.869   3.345   1.892  2.9995  1.2857 -1.5665
16518TIP3    H271046   1.799   3.336   1.758  0.7537  0.8501 -0.3983
16519TIP3   OH271047   4.948   5.531   4.251 -0.0386 -0.3595  0.1658
16519TIP3    H171048   4.862   5.553   4.287 -1.1011 -1.4769 -1.5742
16519TIP3    H271049   4.933   5.520   4.157  2.8371  3.6440 -0.9947
16520TIP3   OH271050   5.114   7.039   2.842 -0.2853 -0.0816 -0.5555
16520TIP3    H171051   5.103   6.967   2.779  0.2120  0.1397 -0.9126
16520TIP3    H271052   5.137   6.996   2.924  1.2619 -0.3056 -1.0658
16521TIP3   OH271053   3.763   5.795  13.006 -0.0370  0.3583  0.2043
16521TIP3    H171054   3.856   5.815  13.018  0.3409  0.2981 -2.1603
16521TIP3    H271055   3.725   5.878  12.976 -0.8570  0.4828  1.5105
16522TIP3   OH271056   1.770   6.586  13.371 -0.1815  0.0552 -0.0317
16522TIP3    H171057   1.810   6.511  13.414  0.0989 -0.1064 -0.5715
16522TIP3    H271058   1.700   6.548  13.318 -0.1307  0.1921 -0.1953
16523TIP3   OH271059   2.681   0.272  15.703  0.0755  0.1393  0.2057
16523TIP3    H171060   2.603   0.245  15.655 -0.1518  0.3882  0.4274
16523TIP3    H271061   2.655   0.268  15.795  0.1018  0.8726  0.2555
16524TIP3   OH271062   2.083   0.560   5.137 -0.0528  0.7871 -0.2483
16524TIP3    H171063   1.991   0.582   5.144 -0.7326 -1.0510 -2.1762
16524TIP3    H271064   2.093   0.480   5.188 -0.2614 -0.6109 -2.2467
16525TIP3   OH271065   2.896   2.890  14.417 -0.4259  0.1793 -0.6374
16525TIP3    H171066   2.925   2.809  14.458 -0.4785  1.1551  1.4523
16525TIP3    H271067   2.814   2.911  14.461 -0.5967  1.1873 -1.4007
16526TIP3   OH271068   6.995   1.603   2.858 -0.2387  0.4795  0.2477
16526TIP3    H171069   7.041   1.535   2.908 -1.3589 -0.1669  0.4392
16526TIP3    H271070   7.044   1.683   2.876  1.6233 -0.3896 -0.6357
16527TIP3   OH271071   2.332   3.589  15.650 -0.4124 -0.4536 -0.0411
16527TIP3    H171072   2.241   3.588  15.621 -0.8840  0.2784  1.3469
16527TIP3    H271073   2.371   3.511  15.610 -1.5528 -0.5862 -0.9245
16528TIP3   OH271074   5.995   1.995   5.872  0.5560 -0.5300  0.9502
16528TIP3    H171075   5.934   1.953   5.812  0.2546 -0.5426  1.2651
16528TIP3    H271076   6.042   2.058   5.818 -0.0702 -0.1783  0.8118
16529TIP3   OH271077   4.100   2.750   3.930 -0.2170 -0.3235  0.1474
16529TIP3    H171078   4.027   2.776   3.986  1.0628  0.8654  1.3591
16529TIP3    H271079   4.106   2.819   3.864  1.5871  1.2492  1.8323
16530TIP3   OH271080   2.892   3.884   0.783  0.2459  0.1777  0.3554
16530TIP3    H171081   2.814   3.838   0.750 -0.9665  1.5430  1.1964
16530TIP3    H271082   2.927   3.825   0.850 -0.5158 -0.1146  0.5084
16531TIP3   OH271083   3.926   0.948   4.891 -0.2779  1.1499 -0.4159
16531TIP3    H171084   3.931   0.852   4.892  0.5932  1.1852  0.7802
16531TIP3    H271085   3.910   0.970   4.800 -1.0238 -0.1599 -0.6301
16532TIP3   OH271086   6.757   2.166   3.146 -0.2330 -0.4884 -0.5786
16532TIP3    H171087   6.839   2.117   3.133  0.1137  0.2127 -1.1016
16532TIP3    H271088   6.782   2.257   3.133 -0.6030 -0.0112  1.6106
16533TIP3   OH271089   6.602   3.993   1.787 -0.4308 -0.2943 -0.2087
16533TIP3    H171090   6.650   4.071   1.759 -1.2175  0.1831 -0.2523
16533TIP3    H271091   6.662   3.949   1.847 -0.9877  1.8134  2.0731
16534TIP3   OH271092   6.660   2.819   1.635 -0.0431 -0.4373 -0.1013
16534TIP3    H171093   6.749   2.783   1.640  0.5387  0.9341 -0.1237
16534TIP3    H271094   6.627   2.813   1.724  0.2521 -0.5022  0.0060
16535TIP3   OH271095   3.107   5.757   3.749 -0.4584  0.4197  0.0824
16535TIP3    H171096   3.020   5.751   3.788  1.0992  0.9578  4.0913
16535TIP3    H271097   3.119   5.849   3.730 -0.2814  0.5702  0.8847
16536TIP3   OH271098   6.776   1.789   5.502 -0.1847 -0.2167 -0.4619
16536TIP3    H171099   6.710   1.721   5.486  1.4442 -1.6008 -1.6843
16536TIP3    H271100   6.788   1.831   5.417 -2.6193  3.1541  0.6285
16537TIP3   OH271101   2.455   0.340   4.391 -0.2317 -0.3452  0.1703
16537TIP3    H171102   2.485   0.405   4.454  1.1285  0.1205 -0.9132
16537TIP3    H271103   2.504   0.261   4.412 -0.7473 -0.5842  0.5066
16538TIP3   OH271104   3.894   2.381  14.062  0.4815  0.6578 -0.2728
16538TIP3    H171105   3.843   2.364  14.142  1.3902  0.3476  0.2550
16538TIP3    H271106   3.830   2.414  13.999 -0.4059  0.0741  0.3086
16539TIP3   OH271107   6.683   4.420   2.495  0.9033  0.0003  0.2145
16539TIP3    H171108   6.691   4.325   2.504  1.2642  0.0228  0.1644
16539TIP3    H271109   6.641   4.448   2.576 -0.4203 -0.3394 -0.3163
16540TIP3   OH271110   0.808   3.087  12.533 -0.1235 -0.3552 -0.4656
16540TIP3    H171111   0.821   3.182  12.534  0.3112 -0.4070  0.8186
16540TIP3    H271112   0.789   3.066  12.442  0.2868  0.8982 -0.8571
16541TIP3   OH271113   6.963   3.036   5.285  0.1714  0.4039 -0.4688
16541TIP3    H171114   6.954   3.098   5.358  0.5638 -0.7598  0.6021
16541TIP3    H271115   6.915   2.958   5.314  0.8456 -0.2983 -1.2056
16542TIP3   OH271116   1.750   1.229  15.270 -0.5930 -0.4318 -0.2999
16542TIP3    H171117   1.777   1.229  15.178  0.2841 -0.8016 -0.0517
16542TIP3    H271118   1.825   1.193  15.317 -1.1760 -0.6004  0.5241
16543TIP3   OH271119   1.081   4.194   4.677 -0.0352 -0.0765 -0.2764
16543TIP3    H171120   1.037   4.257   4.734 -1.3709  0.2195 -1.5799
16543TIP3    H271121   1.106   4.244   4.600  0.2342 -0.8287 -0.6889
16544TIP3   OH271122   7.115   5.542   1.812  0.5915 -0.5213  0.3091
16544TIP3    H171123   7.195   5.552   1.864  0.4577 -1.4989  0.7167
16544TIP3    H271124   7.045   5.576   1.869  0.6063 -0.4299  0.2733
16545TIP3   OH271125   6.740   6.961   4.962 -0.2351 -0.6172  0.1871
16545TIP3    H171126   6.826   6.965   4.920 -0.5318  0.1141 -0.3759
16545TIP3    H271127   6.755   6.998   5.049 -0.0010 -0.3693  0.0449
16546TIP3   OH271128   4.726   4.640   2.078  0.5694 -0.2335 -0.4706
16546TIP3    H171129   4.648   4.584   2.078  1.0996 -0.9913 -0.7720
16546TIP3    H271130   4.694   4.725   2.108  0.0535 -1.1432  1.8418
16547TIP3   OH271131   0.528   0.951   1.671 -0.0867  0.9013  1.0905
16547TIP3    H171132   0.509   0.963   1.578  0.6848  0.2734  0.8382
16547TIP3    H271133   0.569   1.033   1.698  0.0600  0.9341  0.7696
16548TIP3   OH271134   3.528   6.650  14.717  0.1226 -0.1937  0.2385
16548TIP3    H171135   3.566   6.664  14.630  0.2247  0.0942  0.3287
16548TIP3    H271136   3.590   6.592  14.761  1.0410  1.1443  0.7735
16549TIP3   OH271137   4.219   2.848   4.653 -0.5466  0.6007 -0.3090
16549TIP3    H171138   4.176   2.861   4.737  1.7869  0.4327  1.0198
16549TIP3    H271139   4.191   2.921   4.598 -0.3468  2.0364  1.4286
16550TIP3   OH271140   3.266   4.550  15.208  0.2732 -0.5988 -0.8156
16550TIP3    H171141   3.262   4.551  15.112  0.9601 -1.7897 -0.8725
16550TIP3    H271142   3.175   4.538  15.235  0.0486 -0.0657 -1.3073
16551TIP3   OH271143   6.553   1.672   9.613 -0.1481  0.1200  0.3306
16551TIP3    H171144   6.548   1.625   9.697  1.7422  0.1042  0.4738
16551TIP3    H271145   6.555   1.603   9.547  2.1138 -0.0450  0.5134
16552TIP3   OH271146   4.308   5.145   4.848  0.4821  0.1934  0.3497
16552TIP3    H171147   4.284   5.107   4.932  0.0763  0.0171  0.1584
16552TIP3    H271148   4.386   5.197   4.866  1.3934 -1.1669  0.5165
16553TIP3   OH271149   2.804   0.942   3.733  0.0413  0.1702 -0.5454
16553TIP3    H171150   2.739   0.873   3.717  0.7461 -1.0155  1.3149
16553TIP3    H271151   2.757   1.008   3.784 -0.1038  0.0767 -0.5569
16554TIP3   OH271152   2.128   7.044   5.705  0.4294 -0.2577  0.1612
16554TIP3    H171153   2.146   7.128   5.747 -2.1004 -0.0888  1.0862
16554TIP3    H271154   2.109   7.066   5.614  0.9126  0.0278  0.1273
16555TIP3   OH271155   3.211   1.109  11.507 -0.0908 -0.6094 -0.1380
16555TIP3    H171156   3.236   1.066  11.589  0.3249 -1.2483 -0.5851
16555TIP3    H271157   3.281   1.173  11.491 -1.4233  1.2938  1.2540
16556TIP3   OH271158   5.126   4.384   1.679 -0.7855  0.1462  0.2494
16556TIP3    H171159   5.202   4.326   1.693 -1.9730 -1.7123 -0.6620
16556TIP3    H271160   5.125   4.400   1.585 -0.6527  1.4572  0.4557
16557TIP3   OH271161   5.032   6.463   1.227  0.3984  0.1438  0.5671
16557TIP3    H171162   5.090   6.528   1.267 -0.3850  1.9497 -1.0880
16557TIP3    H271163   5.091   6.405   1.179  0.9588  1.2232 -0.0840
16558TIP3   OH271164   6.544   7.103   0.606  0.5985  0.3785 -0.1954
16558TIP3    H171165   6.555   7.069   0.694  0.2922 -0.9992 -0.6584
16558TIP3    H271166   6.471   7.165   0.613 -0.7047 -1.1212  0.2068
16559TIP3   OH271167   0.515   4.860   5.301 -0.2092 -0.7033 -0.1782
16559TIP3    H171168   0.562   4.858   5.384  2.4673 -0.1512 -1.5947
16559TIP3    H271169   0.576   4.898   5.239 -2.8521  0.8406 -2.0229
16560TIP3   OH271170   0.280   2.411   5.075 -0.6352  0.1206 -0.5875
16560TIP3    H171171   0.366   2.404   5.035 -0.9718 -0.6549 -1.1878
16560TIP3    H271172   0.251   2.321   5.088 -0.9796  0.3542  0.4573
16561TIP3   OH271173   6.176   4.657  11.485  0.4766 -0.4033 -0.1857
16561TIP3    H171174   6.200   4.658  11.578 -1.8087  0.5541  0.4754
16561TIP3    H271175   6.253   4.622  11.441  0.8981 -3.0072  2.2873
16562TIP3   OH271176   2.875   6.754   5.151  0.0291 -0.3149  0.5476
16562TIP3    H171177   2.780   6.750   5.142  0.2265 -1.4898 -1.3424
16562TIP3    H271178   2.904   6.664   5.141  1.3336 -0.0408  1.5881
16563TIP3   OH271179   3.535   4.578   0.149  0.0796  0.3169 -0.2822
16563TIP3    H171180   3.447   4.543   0.134 -0.7791  2.1848  0.0030
16563TIP3    H271181   3.549   4.638   0.075  0.4734  1.1597  0.4498
16564TIP3   OH271182   4.027   0.225   1.415 -0.3875  0.0474 -0.0420
16564TIP3    H171183   4.111   0.254   1.452 -0.7292 -0.0178  0.8189
16564TIP3    H271184   4.036   0.130   1.410 -0.1595  0.0933 -0.6063
16565TIP3   OH271185   6.433   0.269  15.231  0.4667  0.1180 -0.4821
16565TIP3    H171186   6.435   0.333  15.159 -0.2563 -0.5886 -1.1553
16565TIP3    H271187   6.387   0.314  15.302  1.7704  1.0657 -0.1831
16566TIP3   OH271188   2.012   0.864   4.924 -0.0237 -0.2488  0.1799
16566TIP3    H171189   1.929   0.912   4.918 -0.5010 -1.1838 -1.0439
16566TIP3    H271190   2.068   0.921   4.977 -0.0277  2.4880 -2.4248
16567TIP3   OH271191   5.972   5.713  10.477  0.3405  0.1121 -0.0548
16567TIP3    H171192   6.026   5.688  10.403 -0.5616 -1.9817 -0.0651
16567TIP3    H271193   6.021   5.783  10.520  1.8085  0.0126 -1.4891
16568TIP3   OH271194   1.821   2.593   0.875  0.1636 -0.0265 -0.2949
16568TIP3    H171195   1.788   2.673   0.914 -0.4253 -0.3293 -0.1569
16568TIP3    H271196   1.909   2.582   0.911 -0.4107 -0.3708  1.0654
16569TIP3   OH271197   5.399   1.581   5.317 -0.0805  0.3269 -0.0871
16569TIP3    H171198   5.450   1.566   5.396  0.2103  0.6108 -0.2196
16569TIP3    H271199   5.354   1.664   5.332 -0.3340  0.1866 -0.0595
16570TIP3   OH271200   6.555   5.423  11.626  0.6261  0.1017  0.5292
16570TIP3    H171201   6.464   5.426  11.656  0.7854  1.2379  0.9658
16570TIP3    H271202   6.596   5.353  11.677 -0.0457 -0.5745  0.1613
16571TIP3   OH271203   4.493   3.004   3.829 -0.1447  0.1197  0.2759
16571TIP3    H171204   4.555   3.075   3.847 -0.9257  0.5436  1.3706
16571TIP3    H271205   4.440   2.997   3.909  0.3124 -2.1128  0.4668
16572TIP3   OH271206   2.283   5.499   1.320  0.7690  0.3160  0.0900
16572TIP3    H171207   2.234   5.420   1.299  1.6328  0.1185 -1.3240
16572TIP3    H271208   2.235   5.539   1.393  0.5982 -1.7635  1.1908
16573TIP3   OH271209   0.837   6.861   3.415  0.0307 -0.1126 -0.4823
16573TIP3    H171210   0.742   6.872   3.411  0.0424 -0.2185 -1.1275
16573TIP3    H271211   0.856   6.853   3.509 -0.6830 -0.8456 -0.3877
16574TIP3   OH271212   4.893   2.288   1.459  0.5734  0.2560  0.0317
16574TIP3    H171213   4.894   2.285   1.364 -0.0492 -0.1509  0.0313
16574TIP3    H271214   4.803   2.313   1.481  1.0208  1.5562  0.4888
16575TIP3   OH271215   6.996   1.093   4.837 -0.0267 -0.0969 -0.0840
16575TIP3    H171216   6.990   1.000   4.814  0.4911 -0.1107 -0.1671
16575TIP3    H271217   7.063   1.097   4.905 -0.0848  0.2139 -0.0433
16576TIP3   OH271218   5.621   1.059   2.288 -0.4053  0.1972 -0.1773
16576TIP3    H171219   5.547   1.016   2.332  0.0931 -0.9799 -0.4364
16576TIP3    H271220   5.604   1.045   2.195  0.4549 -0.6640 -0.2209
16577TIP3   OH271221   5.629   3.678  13.523 -0.7672  0.0045  0.3151
16577TIP3    H171222   5.581   3.621  13.463 -1.7549  0.2670  0.8268
16577TIP3    H271223   5.710   3.699  13.477 -0.5754 -1.4466 -0.0613
16578TIP3   OH271224   1.126   5.056  15.216  0.1715  0.3763  0.5375
16578TIP3    H171225   1.154   5.114  15.145  2.0761  0.2136  1.1140
16578TIP3    H271226   1.106   4.973  15.172  0.8961  0.4122  0.1162
16579TIP3   OH271227   0.854   1.552   1.994  0.3315 -0.2109  0.3595
16579TIP3    H171228   0.860   1.613   1.921 -0.2527  0.6261  0.9931
16579TIP3    H271229   0.902   1.474   1.965 -2.4382 -1.1427 -2.1275
16580TIP3   OH271230   5.200   3.078  11.635  0.1227  0.0373  0.3589
16580TIP3    H171231   5.110   3.076  11.602  0.3659  0.5015 -0.3453
16580TIP3    H271232   5.190   3.073  11.731 -0.5156 -3.3144  0.2502
16581TIP3   OH271233   2.956   2.595   1.628  0.0962 -0.5809 -0.4074
16581TIP3    H171234   2.998   2.539   1.563 -0.4687  0.7455 -1.9882
16581TIP3    H271235   2.915   2.664   1.577 -0.7489  0.2852  1.3549
16582TIP3   OH271236   2.289   2.774   4.943 -0.0314  0.6663 -0.4883
16582TIP3    H171237   2.372   2.822   4.945  0.1554  0.4636 -1.9699
16582TIP3    H271238   2.314   2.682   4.931 -0.4539  0.5145 -0.2454
16583TIP3   OH271239   5.694   4.214   4.088 -0.1540 -0.1074  0.1768
16583TIP3    H171240   5.641   4.286   4.053 -1.0415 -0.2454  1.1815
16583TIP3    H271241   5.697   4.231   4.182  1.7802  0.0039  0.1205
16584TIP3   OH271242   2.003   1.817  13.440 -0.1856  0.2005 -0.3136
16584TIP3    H171243   2.086   1.835  13.397  1.1046  0.2040  1.9845
16584TIP3    H271244   1.954   1.899  13.434  1.5921  1.4835  1.5549
16585TIP3   OH271245   4.604   4.128   0.694 -0.2951 -0.2654  0.0978
16585TIP3    H171246   4.638   4.076   0.767 -0.9741 -0.7486  0.0784
16585TIP3    H271247   4.641   4.215   0.708  0.7743 -0.7173  0.1933
16586TIP3   OH271248   1.211   2.341  15.735  0.1311  0.4985 -0.3207
16586TIP3    H171249   1.274   2.339  15.807 -0.4144  0.0498  0.1571
16586TIP3    H271250   1.260   2.308  15.660  0.4016 -0.0825  0.1030
16587TIP3   OH271251   6.000   0.142   0.987 -0.3226  0.6244  0.3094
16587TIP3    H171252   5.953   0.121   0.906  0.4146  0.2468 -0.0249
16587TIP3    H271253   6.093   0.130   0.965 -0.0438  1.6293  0.8790
16588TIP3   OH271254   0.362   4.995   1.574 -0.1311  0.0678  0.0486
16588TIP3    H171255   0.318   5.079   1.589 -0.0784 -0.1287  1.3524
16588TIP3    H271256   0.305   4.930   1.614  0.8034 -0.3055  0.8114
16589TIP3   OH271257   5.343   1.276  15.280  0.4492  0.2841  0.4736
16589TIP3    H171258   5.367   1.297  15.370  1.3280  1.4148  0.0079
16589TIP3    H271259   5.427   1.264  15.235  0.0614  0.7912 -0.4219
16590TIP3   OH271260   4.982   1.125   4.242 -0.3520  0.2421 -0.1291
16590TIP3    H171261   4.894   1.091   4.226  0.0062 -1.1647  0.7333
16590TIP3    H271262   5.019   1.139   4.155 -1.4141  0.8541 -0.5024
16591TIP3   OH271263   0.886   1.648  13.851 -0.2398 -0.1422  0.1891
16591TIP3    H171264   0.841   1.615  13.929 -0.9505  0.7131  0.1488
16591TIP3    H271265   0.975   1.666  13.881 -0.5945  0.4812  0.8919
16592TIP3   OH271266   4.415   1.458   5.659 -0.3684 -0.2231  0.1547
16592TIP3    H171267   4.338   1.515   5.654 -0.6661 -0.6341  0.0090
16592TIP3    H271268   4.456   1.482   5.743  0.5614  1.5068 -0.7298
16593TIP3   OH271269   0.478   3.738  13.555  0.7180 -0.7523 -0.0390
16593TIP3    H171270   0.401   3.784  13.588  0.3166 -0.8976 -0.7598
16593TIP3    H271271   0.448   3.648  13.539  2.3511 -2.4742  4.8663
16594TIP3   OH271272   2.815   2.229   0.755  0.2053 -0.2183 -0.7502
16594TIP3    H171273   2.751   2.170   0.796 -0.0880  2.7087  3.7273
16594TIP3    H271274   2.764   2.277   0.689 -1.4427 -0.1272  0.5248
16595TIP3   OH271275   6.876   5.868  14.795  0.4817 -0.1664  0.0618
16595TIP3    H171276   6.902   5.799  14.734  0.9258 -2.4907  2.6603
16595TIP3    H271277   6.955   5.889  14.843 -0.3788 -0.4163  1.6569
16596TIP3   OH271278   2.892   4.292   1.052  0.0909 -0.4426 -0.4125
16596TIP3    H171279   2.897   4.225   1.119  4.3024  0.3630  0.3967
16596TIP3    H271280   2.875   4.244   0.971  1.6459 -2.3942  0.3247
16597TIP3   OH271281   6.397   5.349   2.939  0.6063  0.2061 -0.3158
16597TIP3    H171282   6.443   5.432   2.939  1.1447 -0.0778  0.2425
16597TIP3    H271283   6.431   5.303   3.017 -0.9879  0.1913  0.3982
16598TIP3   OH271284   3.311   3.615   1.439  0.3912  0.8726  0.5301
16598TIP3    H171285   3.280   3.668   1.365 -0.5204 -1.0919 -0.5843
16598TIP3    H271286   3.406   3.619   1.433  0.3484 -0.0587 -1.4096
16599TIP3   OH271287   2.966   1.105  15.342 -0.2883  0.5784  0.1526
16599TIP3    H171288   2.919   1.089  15.260  0.0293 -0.7393  0.2037
16599TIP3    H271289   2.995   1.018  15.370  2.2663  1.3318  0.0769
16600TIP3   OH271290   4.987   5.149   5.396  0.3297 -0.1119  0.0266
16600TIP3    H171291   4.894   5.148   5.372  0.1243 -0.7754  0.7785
16600TIP3    H271292   4.997   5.073   5.454  1.4670 -0.3717 -0.4860
16601TIP3   OH271293   3.885   1.042   4.643  0.1621 -0.5602 -0.1417
16601TIP3    H171294   3.829   1.110   4.606 -1.9774 -1.7128  0.8414
16601TIP3    H271295   3.965   1.046   4.591 -0.6623  1.4042 -1.3473
16602TIP3   OH271296   3.744   6.037   3.338 -0.7509 -0.0966 -0.5476
16602TIP3    H171297   3.769   6.019   3.247  2.3536  0.1492  0.1486
16602TIP3    H271298   3.682   5.968   3.360  0.6346 -1.9186 -1.9963
16603TIP3   OH271299   3.728   2.287  14.274  0.0686  0.3060 -0.0788
16603TIP3    H171300   3.755   2.300  14.365 -0.0401 -0.0823  0.0115
16603TIP3    H271301   3.635   2.310  14.273 -0.2384 -0.8522  0.1800
16604TIP3   OH271302   3.628   4.414  14.515  0.1324  0.0648 -0.0119
16604TIP3    H171303   3.559   4.353  14.488 -1.2093  2.2263 -1.8933
16604TIP3    H271304   3.632   4.405  14.610 -0.6251 -2.2349 -0.1198
16605TIP3   OH271305   1.761   1.196  13.332 -1.2963 -0.4529 -0.0445
16605TIP3    H171306   1.808   1.243  13.402  0.8362 -0.7672 -1.1711
16605TIP3    H271307   1.743   1.110  13.370  0.7179 -0.9629 -0.1285
16606TIP3   OH271308   6.932   5.606   5.178 -0.2929 -0.3190 -0.3907
16606TIP3    H171309   6.973   5.555   5.247 -3.2137  1.6564  3.1493
16606TIP3    H271310   6.851   5.559   5.158 -1.3431  1.0507  0.4447
16607TIP3   OH271311   0.661   3.533   5.488 -0.1482 -0.2596  0.0961
16607TIP3    H171312   0.714   3.471   5.537  0.1724  0.3867  0.5848
16607TIP3    H271313   0.685   3.619   5.523 -0.0860  0.2058 -1.0256
16608TIP3   OH271314   5.988   5.268   6.155 -0.3839 -0.6493 -0.3075
16608TIP3    H171315   6.074   5.302   6.181 -0.9128  2.0710 -1.7713
16608TIP3    H271316   5.939   5.264   6.237  0.9902 -1.9409  0.5025
16609TIP3   OH271317   5.912   6.837   4.359 -0.8181 -0.2091 -0.0673
16609TIP3    H171318   5.902   6.816   4.452 -0.0328 -1.9778 -0.3454
16609TIP3    H271319   5.972   6.912   4.358 -2.3457  1.0867  0.8963
16610TIP3   OH271320   1.715   0.617   2.106  0.0720  0.0798 -0.4460
16610TIP3    H171321   1.670   0.612   2.190 -0.8755  0.6236 -0.9074
16610TIP3    H271322   1.757   0.532   2.096  2.3419  0.8401  1.7230
16611TIP3   OH271323   0.837   0.922   0.581 -0.2114 -0.2920  0.5265
16611TIP3    H171324   0.882   1.007   0.573 -1.2939  0.4279  1.7071
16611TIP3    H271325   0.782   0.918   0.504  0.0376 -0.0380  0.3301
16612TIP3   OH271326   0.727   3.227   5.339  0.2374 -0.2044 -0.1004
16612TIP3    H171327   0.754   3.281   5.265  0.4377 -1.0021 -0.6283
16612TIP3    H271328   0.635   3.248   5.353  0.0460 -0.4307 -0.9342
16613TIP3   OH271329   6.610   4.816   3.929  0.3674 -0.5099  0.1296
16613TIP3    H171330   6.654   4.867   3.997 -0.9215 -0.2548  0.8023
16613TIP3    H271331   6.656   4.839   3.849  1.7935 -0.6610  0.8642
16614TIP3   OH271332   5.723   0.707   3.029  0.1187  0.5667 -0.1207
16614TIP3    H171333   5.700   0.654   2.953  0.0870 -0.2915  0.4719
16614TIP3    H271334   5.817   0.693   3.041 -0.0116  0.1059  0.4294
16615TIP3   OH271335   5.093   3.875   4.127 -0.1708  0.3603 -0.0275
16615TIP3    H171336   5.141   3.803   4.088  0.3225  0.1013  1.0186
16615TIP3    H271337   5.049   3.918   4.053 -1.9348 -2.0502 -0.5026
16616TIP3   OH271338   3.856   6.879   2.850 -0.5021  0.2870 -0.1503
16616TIP3    H171339   3.894   6.851   2.933  0.8412 -0.3306 -0.9351
16616TIP3    H271340   3.762   6.878   2.865 -0.3112 -0.4451  1.1671
16617TIP3   OH271341   6.776   4.713   1.799 -0.3186  0.3887  0.1420
16617TIP3    H171342   6.731   4.740   1.879  1.3758 -1.7304  1.9323
16617TIP3    H271343   6.707   4.702   1.734 -2.2675 -1.4010  2.3689
16618TIP3   OH271344   0.276   2.952   2.450  0.4202 -0.0290 -0.1503
16618TIP3    H171345   0.204   2.947   2.386  0.4143 -2.4049 -0.0342
16618TIP3    H271346   0.343   2.893   2.415  2.2539  1.8988 -0.0968
16619TIP3   OH271347   5.253   0.298   5.304 -1.2488  0.3207 -0.1459
16619TIP3    H171348   5.208   0.382   5.317 -0.8242  0.1898  2.8436
16619TIP3    H271349   5.317   0.294   5.375  0.7260 -1.3157 -1.8776
16620TIP3   OH271350   6.948   0.695   4.439 -0.0485 -0.2409  0.0317
16620TIP3    H171351   6.878   0.737   4.389  1.1515  1.5212 -0.2484
16620TIP3    H271352   7.018   0.759   4.441  1.8618 -2.2019 -0.2931
16621TIP3   OH271353   1.169   5.122   1.448  0.1390  0.1803 -0.5201
16621TIP3    H171354   1.216   5.155   1.524  0.0573  1.4499 -0.9881
16621TIP3    H271355   1.083   5.163   1.454  0.0837  0.1765 -1.2188
16622TIP3   OH271356   7.024   2.065  10.249 -0.3908  0.2117 -0.5208
16622TIP3    H171357   6.999   2.155  10.268 -1.3428 -0.0407 -0.5668
16622TIP3    H271358   7.015   2.057  10.154  1.2484  0.5197 -0.7420
16623TIP3   OH271359   5.067   2.608   3.523 -0.3437  0.1809 -0.3771
16623TIP3    H171360   4.983   2.561   3.522  0.7312 -1.8151 -0.8114
16623TIP3    H271361   5.096   2.606   3.432  1.9435 -2.5667  0.2849
16624TIP3   OH271362   0.998   0.749  11.996  0.4172 -0.3149  0.3419
16624TIP3    H171363   1.043   0.665  11.994 -0.1437 -0.6116 -1.3809
16624TIP3    H271364   1.025   0.789  12.079  2.1449 -1.3898  0.3495
16625TIP3   OH271365   2.044   1.983   3.231  0.3628 -0.1950  0.2247
16625TIP3    H171366   2.070   2.071   3.259  1.3183 -0.3929  0.0260
16625TIP3    H271367   2.065   1.927   3.306 -1.1518 -0.1312  0.7140
16626TIP3   OH271368   1.567   1.802   4.169  0.0802  0.6957  0.4629
16626TIP3    H171369   1.479   1.823   4.199 -1.0586  0.6854 -2.4691
16626TIP3    H271370   1.600   1.885   4.132  0.3296  0.1584 -0.5611
16627TIP3   OH271371   3.782   3.489  14.299 -0.0571  0.2299  0.0231
16627TIP3    H171372   3.845   3.422  14.271 -0.9889 -1.1466  1.0641
16627TIP3    H271373   3.728   3.505  14.221  0.6326  0.3303 -0.4452
16628TIP3   OH271374   4.764   4.229   3.979 -0.4790  0.0933  0.0476
16628TIP3    H171375   4.809   4.204   4.060 -0.7808 -1.6328 -0.2910
16628TIP3    H271376   4.821   4.198   3.909 -0.7329  0.6316 -0.4035
16629TIP3   OH271377   6.087   3.263  12.115 -0.0310 -0.5873 -0.0325
16629TIP3    H171378   6.105   3.194  12.051  1.9547 -0.0077 -0.1715
16629TIP3    H271379   6.166   3.266  12.170  0.0669  1.6992 -0.1869
16630TIP3   OH271380   2.472   5.978  13.411 -0.9951 -0.0116  0.1877
16630TIP3    H171381   2.435   5.889  13.411  1.6656 -1.2446 -0.5629
16630TIP3    H271382   2.514   5.985  13.325  0.1320  1.3927  0.8239
16631TIP3   OH271383   4.442   0.723   0.780  0.0418 -0.0475  0.2034
16631TIP3    H171384   4.392   0.803   0.794  0.2568  0.2978 -0.9038
16631TIP3    H271385   4.495   0.741   0.703  0.5030 -1.0672  0.2655
16632TIP3   OH271386   6.013   5.256   4.768 -0.1523  0.1902 -0.2627
16632TIP3    H171387   5.930   5.293   4.797  0.4972  0.0528  1.9442
16632TIP3    H271388   6.007   5.255   4.672 -2.7683 -0.0345 -0.1687
16633TIP3   OH271389   6.847   3.002   3.399 -0.2992  0.5176 -0.0717
16633TIP3    H171390   6.821   2.910   3.400  0.7442  0.2169  1.2490
16633TIP3    H271391   6.827   3.033   3.487 -1.2190  1.7462 -0.6790
16634TIP3   OH271392   5.481   0.781   4.541 -0.8547  0.6183  0.0218
16634TIP3    H171393   5.566   0.749   4.570  0.1988  3.0078 -0.2254
16634TIP3    H271394   5.427   0.781   4.620  0.1146  1.2903  0.6982
16635TIP3   OH271395   5.116   6.723   2.516 -0.0543  0.0936 -0.0082
16635TIP3    H171396   5.154   6.752   2.434  0.0277 -0.1073 -0.0421
16635TIP3    H271397   5.029   6.691   2.492  0.1966 -0.5156 -0.1093
16636TIP3   OH271398   5.927   2.384  12.650  0.5668  0.3343 -0.1646
16636TIP3    H171399   5.847   2.407  12.697  1.2405  0.6239  0.8713
16636TIP3    H271400   5.925   2.289  12.644 -0.0895  0.3695 -0.5816
16637TIP3   OH271401   3.363   6.200   2.380 -0.3158  0.1462 -0.6812
16637TIP3    H171402   3.410   6.193   2.463  0.0457 -0.4653 -0.9251
16637TIP3    H271403   3.354   6.109   2.350 -1.9908  0.2165 -0.4690
16638TIP3   OH271404   2.062   5.082   4.639  0.1940 -0.2932 -0.1635
16638TIP3    H171405   1.999   5.140   4.596 -1.1539 -0.6685  1.1948
16638TIP3    H271406   2.147   5.109   4.605 -0.6334  0.6235 -1.6339
16639TIP3   OH271407   5.841   5.256   2.243 -0.6308  0.1390  0.2920
16639TIP3    H171408   5.876   5.224   2.159 -0.3804  0.4859  0.2621
16639TIP3    H271409   5.919   5.269   2.297 -0.8850 -1.8108  1.2100
16640TIP3   OH271410   6.179   5.944   3.511 -0.6910 -0.6306  0.3061
16640TIP3    H171411   6.236   5.868   3.493  0.0061  0.1389 -0.8836
16640TIP3    H271412   6.132   5.958   3.428 -1.5902 -0.3887  0.8455
16641TIP3   OH271413   0.486   3.214   2.239 -0.0704  0.3689 -0.1673
16641TIP3    H171414   0.534   3.154   2.182  1.2255  0.6984  0.5281
16641TIP3    H271415   0.427   3.260   2.181  0.1373 -0.3696 -0.9914
16642TIP3   OH271416   0.935   1.113  13.217 -0.2280 -0.1328  0.2157
16642TIP3    H171417   0.911   1.086  13.305 -0.4829  1.5471  0.6871
16642TIP3    H271418   0.904   1.203  13.209 -1.0231 -0.5099 -1.9051
16643TIP3   OH271419   3.335   5.065   4.699 -0.2031 -0.2566  0.4013
16643TIP3    H171420   3.419   5.020   4.693 -0.3490 -0.4135 -0.7179
16643TIP3    H271421   3.275   5.010   4.648 -1.2069 -0.6200  1.9072
16644TIP3   OH271422   4.666   0.368   0.232  0.0480 -0.8367 -0.3352
16644TIP3    H171423   4.640   0.292   0.284  0.1245 -0.7314 -0.1393
16644TIP3    H271424   4.665   0.337   0.142 -0.2531 -0.9765 -0.2871
16645TIP3   OH271425   1.503   2.190  13.286 -0.3053  0.9072 -0.0157
16645TIP3    H171426   1.509   2.156  13.375  1.8726  0.3296 -0.3148
16645TIP3    H271427   1.415   2.228  13.280 -0.1046  2.0133  2.7214
16646TIP3   OH271428   1.109   6.530  12.525 -0.3380  0.4806 -0.8222
16646TIP3    H171429   1.192   6.482  12.527 -1.4802 -1.7336 -2.4567
16646TIP3    H271430   1.089   6.539  12.432 -1.9944  0.8602 -0.4525
16647TIP3   OH271431   1.277   5.165   0.725 -0.6992 -0.1348  0.3281
16647TIP3    H171432   1.290   5.260   0.716  0.7841 -0.0883  2.1228
16647TIP3    H271433   1.350   5.127   0.676 -0.5894 -0.2811  0.5997
16648TIP3   OH271434   6.081   1.341   3.109 -0.3358 -0.0988  0.3174
16648TIP3    H171435   6.120   1.292   3.181  1.1776 -0.4429 -0.6877
16648TIP3    H271436   6.132   1.316   3.032 -0.8434  1.4844 -0.5956
16649TIP3   OH271437   3.402   3.871   4.622 -0.1434 -0.9325  0.4031
16649TIP3    H171438   3.365   3.913   4.699 -0.6484  0.7069 -0.6679
16649TIP3    H271439   3.398   3.939   4.554  1.1726 -1.9981 -0.8052
16650TIP3   OH271440   0.845   4.246   5.322 -0.0670  0.4301 -0.3973
16650TIP3    H171441   0.920   4.188   5.336 -1.3830 -1.3738 -0.4570
16650TIP3    H271442   0.838   4.297   5.403 -0.2675 -1.1889  0.6451
16651TIP3   OH271443   6.338   6.724  15.624  0.3952  0.1273  0.1939
16651TIP3    H171444   6.433   6.709  15.624  0.3119 -0.4804 -0.6343
16651TIP3    H271445   6.326   6.804  15.574  0.5025  0.5444  0.8143
16652TIP3   OH271446   0.476   6.874   6.001  0.2625 -0.2885  0.3163
16652TIP3    H171447   0.565   6.884   5.967  0.7525 -0.4374  1.4950
16652TIP3    H271448   0.453   6.962   6.032  1.0843 -0.7495  2.4681
16653TIP3   OH271449   4.327   5.645   5.056  0.5249  0.1920  0.1866
16653TIP3    H171450   4.327   5.691   5.140 -0.5463  0.3418  0.1160
16653TIP3    H271451   4.277   5.565   5.071  0.4835  0.1283 -0.2577
16654TIP3   OH271452   4.591   2.508   5.129 -0.0876  0.1504 -0.0689
16654TIP3    H171453   4.664   2.570   5.130 -1.8950  2.4629 -0.2850
16654TIP3    H271454   4.589   2.474   5.040  1.7265 -1.3331  0.3968
16655TIP3   OH271455   6.614   4.929   9.803 -0.5199  0.1907 -0.0201
16655TIP3    H171456   6.577   4.844   9.829 -2.0684  0.3215 -1.6436
16655TIP3    H271457   6.671   4.953   9.876 -1.9481 -1.0853  1.6014
16656TIP3   OH271458   5.665   2.868   4.053 -0.3223 -0.2242  0.2122
16656TIP3    H171459   5.733   2.890   3.990  0.6073  0.3685  1.3969
16656TIP3    H271460   5.660   2.944   4.111  0.7760 -1.8027  2.5139
16657TIP3   OH271461   2.707   1.709   1.461  0.3591  0.0245  0.0800
16657TIP3    H171462   2.693   1.743   1.372 -1.3509 -0.7963  0.0105
16657TIP3    H271463   2.749   1.781   1.507  0.4714  0.7848 -1.1526
16658TIP3   OH271464   6.472   0.227   4.138 -0.3174  0.3601  0.1139
16658TIP3    H171465   6.478   0.275   4.056  0.3882 -0.0867 -0.1070
16658TIP3    H271466   6.417   0.281   4.194  1.9813  2.4025  0.5588
16659TIP3   OH271467   6.781   1.231  14.471 -0.3852 -0.0569 -0.1411
16659TIP3    H171468   6.738   1.153  14.436 -0.8643 -1.2863  2.8544
16659TIP3    H271469   6.874   1.214  14.461 -0.5068 -0.3496 -0.8011
16660TIP3   OH271470   3.657   2.506   2.592  0.2559 -0.1104  0.2678
16660TIP3    H171471   3.700   2.591   2.588 -0.5655  0.2979 -0.3226
16660TIP3    H271472   3.571   2.525   2.631  1.0956 -1.1300  2.7807
16661TIP3   OH271473   6.258   3.803   4.978  0.4276 -0.5148  0.0200
16661TIP3    H171474   6.308   3.880   5.006  0.3227 -0.4743  0.0942
16661TIP3    H271475   6.197   3.837   4.912  0.3460 -0.5262  0.0904
16662TIP3   OH271476   0.401   0.879   5.209 -0.2050 -0.0896 -0.1547
16662TIP3    H171477   0.400   0.805   5.270  1.0192 -1.2673 -1.4862
16662TIP3    H271478   0.492   0.885   5.181 -0.6946  0.5807 -1.6803
16663TIP3   OH271479   1.818   3.607   2.588 -0.3461 -0.2137  0.1874
16663TIP3    H171480   1.744   3.554   2.559 -0.3250 -1.4702  2.2111
16663TIP3    H271481   1.893   3.548   2.583  0.3662  0.7489 -0.9116
16664TIP3   OH271482   2.673   5.875   2.830 -0.1563  0.1093 -0.5395
16664TIP3    H171483   2.720   5.832   2.759 -0.9559 -0.6854 -0.6085
16664TIP3    H271484   2.651   5.962   2.795  1.5126  0.6233 -0.3765
16665TIP3   OH271485   5.837   5.933  13.117 -0.2787  0.2056  0.1122
16665TIP3    H171486   5.788   5.945  13.036  2.3984  1.8275 -1.3745
16665TIP3    H271487   5.907   5.998  13.114  1.4439 -1.3355  2.5557
16666TIP3   OH271488   4.862   4.846  13.062 -0.4365 -0.1599 -0.0973
16666TIP3    H171489   4.834   4.925  13.015 -0.1239 -0.8615 -1.5403
16666TIP3    H271490   4.859   4.870  13.154 -2.0294  0.9980 -0.4041
16667TIP3   OH271491   3.597   5.230   0.196  0.2505 -0.5029  0.6733
16667TIP3    H171492   3.683   5.206   0.163 -0.1162 -1.8508  0.6312
16667TIP3    H271493   3.559   5.285   0.128  0.4660 -1.2173 -0.0381
16668TIP3   OH271494   1.850   3.639   3.530 -0.2162  0.0661 -0.4255
16668TIP3    H171495   1.881   3.681   3.450 -3.1451  2.2719 -0.5880
16668TIP3    H271496   1.797   3.565   3.500  0.7390 -0.6485 -0.3776
16669TIP3   OH271497   4.995   3.931   2.279  0.2290  0.2537 -0.1662
16669TIP3    H171498   4.970   3.851   2.324  1.2977  0.5945  1.1011
16669TIP3    H271499   5.017   3.904   2.190  0.1052 -0.7782  0.1111
16670TIP3   OH271500   5.517   2.755   4.384  0.2019  0.1701 -0.0367
16670TIP3    H171501   5.540   2.662   4.389  0.4261  0.2593  0.7236
16670TIP3    H271502   5.444   2.758   4.323  1.1799 -0.3118 -1.2778
16671TIP3   OH271503   2.838   1.356  12.793 -0.0010 -0.1297 -0.2899
16671TIP3    H171504   2.825   1.307  12.875  2.8532  0.6124  0.7333
16671TIP3    H271505   2.855   1.288  12.728 -3.2004 -0.7905 -0.6101
16672TIP3   OH271506   6.632   4.157   2.746 -0.0813 -0.0827  0.2468
16672TIP3    H171507   6.665   4.130   2.660  0.2874 -1.5517  0.8199
16672TIP3    H271508   6.711   4.172   2.798 -0.3026  0.8291  0.3422
16673TIP3   OH271509   0.890   3.267   3.686 -0.0669  0.6955 -0.4859
16673TIP3    H171510   0.842   3.190   3.657 -1.0322  1.3816 -0.7743
16673TIP3    H271511   0.904   3.318   3.607  1.2582  0.4678 -0.4251
16674TIP3   OH271512   1.606   0.081   2.924  0.2748  0.2170  0.0123
16674TIP3    H171513   1.521   0.100   2.884  0.1315  1.8552  1.0220
16674TIP3    H271514   1.595  -0.004   2.966  0.3379 -1.4801 -3.0438
16675TIP3   OH271515   2.070   5.523   4.849  0.5536 -0.4131  0.2282
16675TIP3    H171516   2.087   5.510   4.755 -0.8843  2.1576 -0.4896
16675TIP3    H271517   2.151   5.561   4.883  0.7595 -0.4746 -0.1879
16676TIP3   OH271518   1.879   2.403  12.485  0.4643  0.0346 -0.8118
16676TIP3    H171519   1.927   2.485  12.493 -0.5632  0.6095 -0.4029
16676TIP3    H271520   1.947   2.335  12.483  1.3017  0.8605 -0.7102
16677TIP3   OH271521   4.939   1.087   3.573  0.3706  0.1985 -0.2987
16677TIP3    H171522   4.930   0.991   3.576  0.7647  0.1888  1.4998
16677TIP3    H271523   4.862   1.117   3.525  0.1628 -0.9962 -0.7536
16678TIP3   OH271524   5.966   2.573   0.381 -0.5764 -0.0532  0.6458
16678TIP3    H171525   5.997   2.566   0.471  2.1602 -1.7578 -0.3068
16678TIP3    H271526   6.029   2.630   0.337 -0.4169 -1.1863 -0.6989
16679TIP3   OH271527   5.637   1.553   2.502 -0.1249 -0.6053 -0.6440
16679TIP3    H171528   5.612   1.461   2.500 -0.2392 -0.6590  1.2708
16679TIP3    H271529   5.732   1.553   2.488 -0.3178 -0.8644 -2.1212
16680TIP3   OH271530   3.913   5.627   3.568  0.2640  0.0712  0.2885
16680TIP3    H171531   3.867   5.560   3.620  0.2261 -0.4544 -0.4098
16680TIP3    H271532   3.891   5.606   3.478  1.2386  0.2985 -0.0076
16681TIP3   OH271533   2.898   2.311   2.922  0.1738  0.1293 -0.6084
16681TIP3    H171534   2.973   2.361   2.955 -0.9895  1.6320 -0.1274
16681TIP3    H271535   2.933   2.224   2.906  1.0461 -0.5308  3.7706
16682TIP3   OH271536   3.754   3.773   0.639  0.7311 -0.3736 -0.1864
16682TIP3    H171537   3.793   3.761   0.552  2.2821 -1.1916  0.5671
16682TIP3    H271538   3.773   3.691   0.685 -2.1964 -0.9613  0.1970
16683TIP3   OH271539   5.666   4.694  13.287 -0.1912 -0.5661 -0.2428
16683TIP3    H171540   5.748   4.659  13.320 -0.9899  0.1725  2.8679
16683TIP3    H271541   5.633   4.749  13.358 -2.4887  0.6508 -2.1024
16684TIP3   OH271542   1.504   0.387   3.134 -0.2492 -0.3339 -0.6930
16684TIP3    H171543   1.587   0.419   3.098 -0.3040 -0.8224 -1.2628
16684TIP3    H271544   1.523   0.296   3.160 -0.2590 -0.0566  0.3510
16685TIP3   OH271545   2.160   6.735   1.243  0.6934  0.2772 -0.8087
16685TIP3    H171546   2.100   6.796   1.286 -1.3714 -0.7864 -2.0230
16685TIP3    H271547   2.125   6.726   1.154  1.5705 -1.8022 -0.9956
16686TIP3   OH271548   4.801   2.614  12.021  0.0459 -0.0172  0.4510
16686TIP3    H171549   4.817   2.588  11.931  0.4941 -1.4956  0.9257
16686TIP3    H271550   4.719   2.663  12.018  0.5904  0.8733 -0.8906
16687TIP3   OH271551   2.896   2.257   0.312 -0.3408  0.0705 -0.2061
16687TIP3    H171552   2.806   2.287   0.296 -0.0090  1.3965  0.2977
16687TIP3    H271553   2.951   2.317   0.261  0.2854 -0.3794 -0.0679
16688TIP3   OH271554   0.100   0.362   2.487  0.4286  0.2871 -0.2937
16688TIP3    H171555   0.163   0.400   2.426  0.4235 -0.1073 -0.5479
16688TIP3    H271556   0.025   0.337   2.432  0.4771 -0.1879 -0.1498
16689TIP3   OH271557   5.574   4.798   5.749  0.6659 -0.1279 -0.1616
16689TIP3    H171558   5.594   4.712   5.711 -1.5414 -0.1810 -1.3472
16689TIP3    H271559   5.658   4.830   5.781  2.0647 -1.5364 -2.1699
16690TIP3   OH271560   5.342   0.171  14.206  0.0085 -0.3941 -0.1087
16690TIP3    H171561   5.254   0.207  14.192  0.1367  0.2315  0.6469
16690TIP3    H271562   5.359   0.119  14.127 -1.1181 -0.6960 -0.1654
16691TIP3   OH271563   1.528   5.908  15.674  0.2995 -0.0988 -0.2295
16691TIP3    H171564   1.432   5.899  15.681  0.1290  1.3024 -0.4416
16691TIP3    H271565   1.543   5.936  15.584  0.7568  1.2177  0.2361
16692TIP3   OH271566   0.598   3.207   2.893 -0.3072 -0.3015  0.0655
16692TIP3    H171567   0.610   3.205   2.988 -3.0516  0.6199  0.5479
16692TIP3    H271568   0.518   3.157   2.878 -1.2317  1.4847 -1.4367
16693TIP3   OH271569   4.520   2.487   0.533 -0.4105 -0.2211  0.1323
16693TIP3    H171570   4.446   2.468   0.592 -0.8853  0.7809 -0.1188
16693TIP3    H271571   4.597   2.461   0.583 -0.8681 -0.2762  0.8293
16694TIP3   OH271572   5.848   4.855   1.471 -0.1657  0.1803  0.0750
16694TIP3    H171573   5.873   4.945   1.495  0.2029  0.2540 -0.5793
16694TIP3    H271574   5.901   4.835   1.394 -1.6282  0.1018 -0.9524
16695TIP3   OH271575   4.991   2.352   0.863  0.1010 -0.2469 -0.0272
16695TIP3    H171576   4.929   2.388   0.800 -2.1033 -0.4723  1.8997
16695TIP3    H271577   4.988   2.258   0.850 -0.2919 -0.2878  0.3464
16696TIP3   OH271578   4.313   0.358   4.847 -0.5160 -0.1969 -0.4581
16696TIP3    H171579   4.285   0.268   4.865 -1.6508 -0.0344 -1.3292
16696TIP3    H271580   4.326   0.397   4.934  0.7133 -1.3968 -0.0748
16697TIP3   OH271581   2.599   1.375   4.450  0.5779 -0.2705 -0.0392
16697TIP3    H171582   2.518   1.406   4.411 -0.0332  0.5450  1.8014
16697TIP3    H271583   2.630   1.447   4.505  1.1150 -1.5213  1.3817
16698TIP3   OH271584   1.877   4.024  12.805  0.5246  0.5042 -0.5902
16698TIP3    H171585   1.894   4.112  12.839  0.1587  0.6038 -0.6677
16698TIP3    H271586   1.891   3.966  12.880  0.8828  0.6134 -0.5681
16699TIP3   OH271587   0.500   4.261   5.880  0.1964 -0.0366 -0.0815
16699TIP3    H171588   0.472   4.267   5.788 -1.2522  0.1580  0.3434
16699TIP3    H271589   0.468   4.175   5.909 -0.0847  0.2468  0.4622
16700TIP3   OH271590   4.372   1.514  15.301  0.4959 -0.2170  0.4587
16700TIP3    H171591   4.402   1.466  15.378  0.0359 -1.2025  0.0536
16700TIP3    H271592   4.276   1.513  15.308  0.4794  1.8206  1.1160
16701TIP3   OH271593   0.806   4.616   3.371 -0.1931  0.1227  0.3373
16701TIP3    H171594   0.867   4.543   3.379 -2.0775 -1.8348 -1.8231
16701TIP3    H271595   0.724   4.584   3.408 -1.7528  0.1222 -2.7972
16702TIP3   OH271596   3.436   6.102  15.614 -0.3106  0.0069  0.5966
16702TIP3    H171597   3.437   6.153  15.533 -2.9120 -1.9781 -0.8533
16702TIP3    H271598   3.525   6.070  15.623  0.2136  0.8365 -1.1144
16703TIP3   OH271599   1.963   6.062   6.019 -0.1090 -0.6976  0.8103
16703TIP3    H171600   1.955   6.045   5.925  1.9573 -0.5395  0.5516
16703TIP3    H271601   1.949   6.156   6.028 -2.1150 -0.9657  0.9517
16704TIP3   OH271602   1.321   4.009   3.982  0.0272 -0.4957  0.3383
16704TIP3    H171603   1.353   3.926   3.946  0.9435 -0.4933  1.1080
16704TIP3    H271604   1.392   4.040   4.037 -1.1481 -0.2889  1.8215
16705TIP3   OH271605   1.623   6.968   4.989 -0.5288 -0.2654  0.6426
16705TIP3    H171606   1.596   6.970   4.897 -0.6123 -0.3851  0.6647
16705TIP3    H271607   1.718   6.968   4.986 -0.4518  2.4534  0.5865
16706TIP3   OH271608   2.988   3.506   1.050  0.2088 -0.0314  0.6184
16706TIP3    H171609   2.918   3.571   1.047 -0.7535 -1.0567 -1.2101
16706TIP3    H271610   2.947   3.427   1.085  0.7637 -0.2971  0.6925
16707TIP3   OH271611   4.008   2.659   4.339 -0.6695  0.2236  0.6789
16707TIP3    H171612   4.026   2.663   4.245  1.0266 -1.4961  0.8561
16707TIP3    H271613   3.913   2.669   4.346 -0.9043 -0.1677 -1.2728
16708TIP3   OH271614   3.011   0.511  10.313 -0.0761  0.0224  0.2204
16708TIP3    H171615   3.058   0.457  10.376 -1.0582 -0.9550  0.1407
16708TIP3    H271616   3.030   0.471  10.228 -0.6412 -0.0762  0.1382
16709TIP3   OH271617   1.725   0.966   2.571  0.0843  0.2158 -0.0257
16709TIP3    H171618   1.755   0.903   2.506 -1.5994 -0.6654  0.0046
16709TIP3    H271619   1.802   0.982   2.626  1.2912  0.3012 -1.6644
16710TIP3   OH271620   0.458   4.794  12.243  0.0474 -0.1991 -0.2904
16710TIP3    H171621   0.466   4.865  12.180 -0.9102  0.2393  0.0642
16710TIP3    H271622   0.414   4.724  12.195 -0.3916  0.0159 -0.2028
16711TIP3   OH271623   1.716   3.429   3.366 -0.4957 -0.2163  0.7054
16711TIP3    H171624   1.664   3.455   3.290 -0.3245 -2.0378 -0.0840
16711TIP3    H271625   1.766   3.353   3.336 -1.3142 -1.7688  2.9645
16712TIP3   OH271626   3.161   5.039   2.768 -0.2670  0.0992 -0.3685
16712TIP3    H171627   3.078   5.061   2.810 -1.1001 -0.9053 -1.4069
16712TIP3    H271628   3.154   4.945   2.751  1.2440 -0.0696 -0.1614
16713TIP3   OH271629   2.529   0.513   2.956  0.1738 -0.1907  0.5006
16713TIP3    H171630   2.554   0.576   2.889 -0.1044  0.5857  1.1120
16713TIP3    H271631   2.462   0.557   3.007  0.4368 -0.7345  1.3423
16714TIP3   OH271632   4.085   3.383   4.705  0.4907  0.2350  0.0437
16714TIP3    H171633   4.069   3.369   4.798  2.2871 -1.0883  0.2141
16714TIP3    H271634   4.159   3.445   4.702  0.6938 -0.0212 -0.4820
16715TIP3   OH271635   2.953   1.558   2.144  0.4684  0.2598  0.1460
16715TIP3    H171636   2.863   1.557   2.114  0.2796 -0.3011  0.6883
16715TIP3    H271637   2.947   1.563   2.239  0.9118 -2.2635  0.3859
16716TIP3   OH271638   6.479   2.284   3.876 -0.2798  0.0712  0.3250
16716TIP3    H171639   6.469   2.196   3.839 -0.4944  0.0140  0.5137
16716TIP3    H271640   6.441   2.342   3.811 -0.7273 -0.0354  0.4878
16717TIP3   OH271641   3.779   6.228   0.939  0.6562 -0.2199  0.0393
16717TIP3    H171642   3.840   6.162   0.971  0.2547 -0.2954  0.6478
16717TIP3    H271643   3.697   6.210   0.984 -0.3277 -1.1717 -1.9830
16718TIP3   OH271644   5.598   4.634  10.583  0.0854 -0.3778 -0.8430
16718TIP3    H171645   5.597   4.557  10.526 -0.4606 -0.9080 -0.1317
16718TIP3    H271646   5.604   4.708  10.522 -0.0226 -0.9491 -1.5692
16719TIP3   OH271647   1.363   3.150   4.182  0.0204 -0.0462 -0.1917
16719TIP3    H171648   1.308   3.080   4.217  0.1183 -0.3617 -0.6604
16719TIP3    H271649   1.424   3.170   4.252  0.0414 -0.4853 -0.0820
16720TIP3   OH271650   5.963   5.958   3.712 -0.2731 -0.2698  0.2027
16720TIP3    H171651   5.955   6.044   3.669  1.5096  0.5737  1.4240
16720TIP3    H271652   6.035   5.915   3.665  1.6526  0.6383  2.1290
16721TIP3   OH271653   3.017   1.607   1.442 -0.5329 -0.1649 -0.6116
16721TIP3    H171654   2.984   1.697   1.444 -0.4991 -0.1537 -0.5656
16721TIP3    H271655   3.112   1.616   1.441 -0.4918 -0.2213  0.8554
16722TIP3   OH271656   3.579   1.027   3.850  0.6035  0.2403  0.4256
16722TIP3    H171657   3.563   0.933   3.865 -0.1203  0.6549  2.7158
16722TIP3    H271658   3.602   1.061   3.937 -0.3982  2.4168 -0.0937
16723TIP3   OH271659   2.649   1.010  15.269 -0.0594 -0.9682  0.9416
16723TIP3    H171660   2.603   1.094  15.279  1.6603  0.0735  0.6308
16723TIP3    H271661   2.683   1.012  15.180  0.2220 -1.8898  1.0191
16724TIP3   OH271662   0.282   6.223  14.277  0.4123 -0.3664  0.2198
16724TIP3    H171663   0.316   6.253  14.361 -0.1906  1.6393 -0.2152
16724TIP3    H271664   0.203   6.275  14.263  0.0440 -1.2553 -1.2123
16725TIP3   OH271665   0.239   2.229   1.740 -0.0586 -0.3305 -0.2967
16725TIP3    H171666   0.260   2.277   1.820  0.9455 -0.4469 -0.4841
16725TIP3    H271667   0.190   2.292   1.686 -0.2677 -0.0826  0.1777
16726TIP3   OH271668   6.441   5.714  15.301 -0.2131  0.5821  0.8728
16726TIP3    H171669   6.389   5.715  15.381 -0.4690 -3.2345  0.9052
16726TIP3    H271670   6.380   5.689  15.232  0.7191  0.2550  0.1409
16727TIP3   OH271671   5.152   2.741   5.018  0.2706 -0.0071  0.5558
16727TIP3    H171672   5.135   2.699   5.102 -0.9888  0.5246  0.5942
16727TIP3    H271673   5.231   2.793   5.032  2.4305 -2.9524  0.2600
16728TIP3   OH271674   5.850   5.200  11.501 -0.0967  0.2163 -0.2008
16728TIP3    H171675   5.760   5.193  11.533 -0.4240  2.4019 -0.4507
16728TIP3    H271676   5.851   5.148  11.421 -1.4108  0.8631 -0.6678
16729TIP3   OH271677   3.192   1.501  14.002 -0.2683 -0.6702  0.6907
16729TIP3    H171678   3.281   1.514  13.969 -0.4967 -0.0273  0.2956
16729TIP3    H271679   3.196   1.420  14.052 -0.0962 -2.1355 -1.6020
16730TIP3   OH271680   4.137   0.233   4.597 -0.0454 -0.0466  0.2831
16730TIP3    H171681   4.216   0.261   4.552  1.0271 -0.7016  1.6782
16730TIP3    H271682   4.114   0.306   4.655 -1.9596  1.1893 -1.8536
16731TIP3   OH271683   2.350   5.335  14.310 -0.7854  0.1201  0.2098
16731TIP3    H171684   2.357   5.413  14.255  0.2799 -0.4166 -0.4425
16731TIP3    H271685   2.342   5.370  14.399  2.0086  1.0338  0.1984
16732TIP3   OH271686   0.896   6.222   3.689 -0.2028 -0.3016 -0.1621
16732TIP3    H171687   0.891   6.190   3.778 -2.3364 -1.6508 -0.6957
16732TIP3    H271688   0.827   6.176   3.642  0.3634  0.8964 -2.3608
16733TIP3   OH271689   5.978   4.215   0.578 -0.0091  0.4517  0.1063
16733TIP3    H171690   5.886   4.225   0.553 -0.1324  0.0542  0.3889
16733TIP3    H271691   5.987   4.266   0.658 -0.3156 -0.5665  0.8136
16734TIP3   OH271692   2.046   2.127   1.639 -0.2792  0.4689  0.1853
16734TIP3    H171693   2.126   2.075   1.647 -0.6817 -0.1719  0.1379
16734TIP3    H271694   2.076   2.218   1.643  0.8219  0.3519 -2.9710
16735TIP3   OH271695   0.077   4.149   1.745  0.5201 -0.0722 -0.3535
16735TIP3    H171696   0.130   4.210   1.796  1.1219 -1.3542  0.6235
16735TIP3    H271697  -0.005   4.143   1.792  0.9013 -0.8938  0.2385
16736TIP3   OH271698   1.659   4.834   3.806  0.2378 -0.4371 -0.7691
16736TIP3    H171699   1.566   4.853   3.793 -0.0595 -1.5844 -0.3665
16736TIP3    H271700   1.672   4.837   3.900  0.2213 -1.9719 -0.6991
16737TIP3   OH271701   6.579   5.744   3.241  0.4369  0.2673 -0.0813
16737TIP3    H171702   6.509   5.809   3.236 -1.7755 -1.9848 -0.4050
16737TIP3    H271703   6.587   5.723   3.334 -0.5550 -0.6783 -0.1926
16738TIP3   OH271704   6.214   0.782   4.113 -0.2852  0.1876  0.1924
16738TIP3    H171705   6.201   0.805   4.021 -0.1932 -0.4739  0.0098
16738TIP3    H271706   6.272   0.849   4.146 -2.2599  1.8811  0.4182
16739TIP3   OH271707   4.722   6.169   0.755 -0.0625  0.0034  0.2529
16739TIP3    H171708   4.724   6.243   0.693  0.7868 -2.0374 -2.3369
16739TIP3    H271709   4.629   6.160   0.778 -0.4843  0.5629 -1.1140
16740TIP3   OH271710   6.434   6.745   2.544 -0.4577  0.4449 -0.4673
16740TIP3    H171711   6.471   6.671   2.497 -0.4382 -0.4835  0.9505
16740TIP3    H271712   6.501   6.769   2.609 -2.0555 -1.0100  1.8786
16741TIP3   OH271713   2.663   4.323  12.324  0.4034 -0.3742  0.3204
16741TIP3    H171714   2.642   4.295  12.235 -0.2444 -0.8410  0.6170
16741TIP3    H271715   2.611   4.266  12.380  0.2548  0.4042  0.9810
16742TIP3   OH271716   4.448   7.116  15.087  0.5511 -0.1924 -0.5934
16742TIP3    H171717   4.376   7.168  15.124 -1.1160 -2.6729 -0.0268
16742TIP3    H271718   4.479   7.167  15.013  0.7582  2.7207  1.3499
16743TIP3   OH271719   6.607   5.482   5.246 -0.3015  0.0994 -0.3327
16743TIP3    H171720   6.555   5.436   5.311 -0.6165 -0.0592 -0.6986
16743TIP3    H271721   6.558   5.474   5.164  0.6013 -0.6127 -0.8306
16744TIP3   OH271722   4.563   5.263   4.864  0.0579 -0.0444 -0.7185
16744TIP3    H171723   4.523   5.346   4.838  0.9297  0.3595 -0.8002
16744TIP3    H271724   4.621   5.240   4.792  2.4911  1.0725  0.7376
16745TIP3   OH271725   1.315   6.476   4.431  0.6115  0.1256  0.6286
16745TIP3    H171726   1.309   6.393   4.478 -0.5732  0.2216  0.6929
16745TIP3    H271727   1.258   6.536   4.480  0.0009  0.4587 -0.4257
16746TIP3   OH271728   4.843   4.981   3.285 -0.3321 -0.1008  0.4295
16746TIP3    H171729   4.910   5.018   3.227 -0.1594  0.3504  0.9058
16746TIP3    H271730   4.761   5.022   3.255 -0.7990 -2.3043 -1.6001
16747TIP3   OH271731   0.406   0.556   4.166 -0.1802 -0.3157  0.1208
16747TIP3    H171732   0.502   0.564   4.157 -0.2775  1.2890  0.1298
16747TIP3    H271733   0.393   0.484   4.227  1.1176  0.7957  1.7981
16748TIP3   OH271734   7.158   5.709   2.191 -0.3967 -0.3504 -0.2053
16748TIP3    H171735   7.089   5.659   2.146 -0.6585  0.1188 -0.3244
16748TIP3    H271736   7.194   5.766   2.123 -0.7897  0.3541  0.1665
16749TIP3   OH271737   3.098   4.115  13.138  0.7492  0.1492 -0.4458
16749TIP3    H171738   3.171   4.064  13.104  0.4508 -0.7190  0.1957
16749TIP3    H271739   3.138   4.198  13.165  1.3958 -0.0890 -0.6502
16750TIP3   OH271740   3.945   3.175  12.411  0.2691 -0.4965  0.0507
16750TIP3    H171741   3.950   3.266  12.441  0.7826 -0.5774  0.2235
16750TIP3    H271742   3.852   3.155  12.409  0.1400  0.0966 -0.1682
16751TIP3   OH271743   2.357   3.041   1.970 -0.2147  0.3202  0.6106
16751TIP3    H171744   2.447   3.060   1.945 -0.2593  2.1731  1.6334
16751TIP3    H271745   2.324   2.984   1.900  1.7981 -0.6227  0.3650
16752TIP3   OH271746   3.943   5.373   5.319  0.0022  0.1789 -0.0135
16752TIP3    H171747   3.965   5.429   5.394 -2.4570 -0.7189  1.4715
16752TIP3    H271748   3.930   5.286   5.357  0.3231 -0.6670 -1.7638
16753TIP3   OH271749   6.137   2.949   1.783  0.1218  0.3102 -0.6582
16753TIP3    H171750   6.058   2.999   1.762 -0.0456  1.6297  2.5423
16753TIP3    H271751   6.209   3.004   1.751 -0.1651  0.1327 -1.6438
16754TIP3   OH271752   5.437   6.105  14.819 -0.2137 -0.3113  0.4772
16754TIP3    H171753   5.433   6.029  14.877  0.5358  1.1131  2.4933
16754TIP3    H271754   5.500   6.164  14.860 -1.5494  1.8725 -0.4181
16755TIP3   OH271755   0.566   2.186   3.517  0.4088  0.0328  0.1843
16755TIP3    H171756   0.578   2.148   3.604 -2.8550 -0.9253  0.3246
16755TIP3    H271757   0.574   2.280   3.531 -0.4010 -0.0805  1.6195
16756TIP3   OH271758   5.928   1.232  11.668 -0.1178 -0.4254  0.1510
16756TIP3    H171759   5.985   1.269  11.600  0.0876 -0.8157  0.1087
16756TIP3    H271760   5.986   1.220  11.744 -0.4589  0.4871  0.5669
16757TIP3   OH271761   2.190   0.149   5.757 -0.3057  0.1443  0.2222
16757TIP3    H171762   2.156   0.216   5.816  0.8677 -0.4216  1.6062
16757TIP3    H271763   2.283   0.144   5.778  0.1773 -0.0721 -1.7138
16758TIP3   OH271764   5.684   6.112   2.459  0.0861 -0.0577  0.1351
16758TIP3    H171765   5.632   6.032   2.458 -0.0939  0.0553  0.4948
16758TIP3    H271766   5.682   6.143   2.369 -0.6710  0.0779  0.1957
16759TIP3   OH271767   2.356   0.730  15.560 -0.3753  0.1041 -0.2199
16759TIP3    H171768   2.376   0.767  15.474 -1.9770 -1.8460 -1.5389
16759TIP3    H271769   2.440   0.728  15.605  0.5063  1.2455 -1.7180
16760TIP3   OH271770   2.910   6.912  13.166  0.5267 -0.3676 -0.2678
16760TIP3    H171771   2.852   6.836  13.175 -1.2095  0.8820 -0.4471
16760TIP3    H271772   2.892   6.946  13.078  1.6060  0.0115 -0.3607
16761TIP3   OH271773   1.768   1.655   4.873  0.2299  0.5329  0.0519
16761TIP3    H171774   1.828   1.633   4.944  0.4536  1.2954  0.1108
16761TIP3    H271775   1.683   1.625   4.904  0.5601 -0.5091 -0.0087
16762TIP3   OH271776   2.697   1.921   0.692 -0.1114 -0.2835  0.6576
16762TIP3    H171777   2.774   1.895   0.743  0.3287 -0.9314 -0.3123
16762TIP3    H271778   2.730   1.931   0.602 -0.9847  0.2927  0.3895
16763TIP3   OH271779   6.185   1.079  13.192  0.2811 -0.2401  0.1045
16763TIP3    H171780   6.165   1.054  13.102 -0.7591 -0.2508  0.3197
16763TIP3    H271781   6.273   1.117  13.188 -0.1593  0.7021 -1.0872
16764TIP3   OH271782   5.333   3.302  10.763 -0.2591 -0.4179  0.6418
16764TIP3    H171783   5.295   3.298  10.675 -1.5557 -0.6650  1.1933
16764TIP3    H271784   5.282   3.370  10.807  1.6579  1.1210  0.6425
16765TIP3   OH271785   6.773   6.013   0.990  0.3401  0.0597  0.9135
16765TIP3    H171786   6.714   6.043   1.059  0.9537  1.7510  0.7390
16765TIP3    H271787   6.859   6.042   1.018  0.7570 -0.2306 -0.0290
16766TIP3   OH271788   2.858   2.765  15.643  0.1089  0.5019  0.0641
16766TIP3    H171789   2.947   2.801  15.647  1.1589 -0.8763 -4.4584
16766TIP3    H271790   2.871   2.670  15.641 -1.4934  0.2597 -0.1386
16767TIP3   OH271791   5.816   1.779   3.356  0.1355  0.3507 -0.0290
16767TIP3    H171792   5.858   1.751   3.438  0.5712  0.4298 -0.2220
16767TIP3    H271793   5.866   1.856   3.329 -0.1708  0.4760 -0.2329
16768TIP3   OH271794   1.082   2.370   1.322  0.1546 -0.4859 -0.2256
16768TIP3    H171795   0.995   2.398   1.349  0.2206 -0.7471  0.2804
16768TIP3    H271796   1.131   2.451   1.307  0.1618 -0.3253  0.6162
16769TIP3   OH271797   5.402   0.571  11.220 -0.0327 -0.4199  0.0605
16769TIP3    H171798   5.402   0.667  11.221  0.2581 -0.3989  1.8824
16769TIP3    H271799   5.491   0.546  11.196 -0.3364 -0.2820 -1.3270
16770TIP3   OH271800   3.219   3.662   4.640  0.3916  0.7729 -0.1648
16770TIP3    H171801   3.254   3.591   4.586  0.9617  0.7646  0.2043
16770TIP3    H271802   3.286   3.731   4.634  0.1393  1.0322 -0.0113
16771TIP3   OH271803   5.204   1.770   5.543  0.1269 -0.0456 -0.9256
16771TIP3    H171804   5.182   1.811   5.460 -0.9723  2.1079  0.3293
16771TIP3    H271805   5.241   1.841   5.596 -1.8877 -0.5738  1.3766
16772TIP3   OH271806   2.678   6.806  15.562  0.7691 -0.4048 -0.3465
16772TIP3    H171807   2.690   6.825  15.469 -0.8183 -0.2634 -0.5502
16772TIP3    H271808   2.659   6.892  15.601  2.9977 -0.1978  0.4230
16773TIP3   OH271809   3.754   2.313   0.310 -0.0334  0.6931  0.5073
16773TIP3    H171810   3.706   2.387   0.348  1.0289  1.2147  0.8699
16773TIP3    H271811   3.836   2.351   0.281  0.4348 -0.3165  0.4864
16774TIP3   OH271812   6.301   5.324  10.797 -0.1064 -0.3325  0.6826
16774TIP3    H171813   6.296   5.402  10.852 -1.2218  0.1631 -0.0814
16774TIP3    H271814   6.253   5.347  10.718  0.3026 -1.4967  0.0605
16775TIP3   OH271815   3.295   0.278   1.481  0.2801 -0.3386  0.0139
16775TIP3    H171816   3.257   0.309   1.399 -0.5259 -1.4886 -0.0857
16775TIP3    H271817   3.310   0.357   1.533  0.2570  0.3496 -1.0124
16776TIP3   OH271818   3.993   1.767   1.472  0.2375 -0.4822  0.0503
16776TIP3    H171819   3.936   1.704   1.516  1.2491 -1.0324  0.6326
16776TIP3    H271820   4.015   1.727   1.388  0.2650 -0.5554  0.0928
16777TIP3   OH271821   2.430   0.249  15.624 -0.3913 -0.2107  0.1494
16777TIP3    H171822   2.375   0.326  15.631  0.1406  0.1192  0.8764
16777TIP3    H271823   2.372   0.175  15.642 -0.6089  0.1282  0.8530
16778TIP3   OH271824   3.385   1.060   2.510 -0.5905  0.1712  0.4660
16778TIP3    H171825   3.362   1.113   2.434  3.0397  0.8538 -0.3491
16778TIP3    H271826   3.436   0.987   2.474  1.2379  0.5269  2.1480
16779TIP3   OH271827   1.877   5.544   1.977 -0.0493  0.3362 -0.5373
16779TIP3    H171828   1.920   5.584   1.902 -0.5360  1.2498 -0.3342
16779TIP3    H271829   1.807   5.604   2.000  0.8259  0.6777  1.4055
16780TIP3   OH271830   4.356   2.932  12.981 -0.0462  0.2289 -0.2222
16780TIP3    H171831   4.301   3.008  12.999 -0.7271 -0.6545  1.6629
16780TIP3    H271832   4.445   2.964  12.992 -0.3072  0.8909  0.0203
16781TIP3   OH271833   5.350   6.032  13.304  0.1565 -0.1901 -0.3044
16781TIP3    H171834   5.380   6.019  13.394  1.6996 -3.0547 -1.1160
16781TIP3    H271835   5.430   6.023  13.251 -0.6021  2.0739 -1.9715
16782TIP3   OH271836   5.496   5.480  12.512 -0.2493 -0.0313 -0.1956
16782TIP3    H171837   5.499   5.470  12.607 -0.0115  0.7248 -0.1159
16782TIP3    H271838   5.416   5.529  12.495 -0.5778 -0.6462 -0.4349
16783TIP3   OH271839   3.234   4.096   3.310  0.8564  0.5030 -0.1613
16783TIP3    H171840   3.171   4.167   3.323 -0.0936 -0.3185 -0.1540
16783TIP3    H271841   3.217   4.035   3.382  0.2847 -0.7001 -1.2643
16784TIP3   OH271842   5.575   1.908  13.891 -0.1080 -0.2012  0.0173
16784TIP3    H171843   5.541   1.897  13.802 -2.2122 -1.0290  0.8444
16784TIP3    H271844   5.632   1.832  13.904 -0.0346 -0.2433 -0.5073
16785TIP3   OH271845   1.228   4.648   2.113  0.1938 -0.3577  0.1121
16785TIP3    H171846   1.257   4.737   2.091 -0.4709 -0.0436  0.4830
16785TIP3    H271847   1.138   4.643   2.081  0.5918 -1.2962 -0.9449
16786TIP3   OH271848   5.253   2.012   2.964  0.7290  0.5732  0.0292
16786TIP3    H171849   5.269   2.056   2.881 -0.0759  0.4492 -0.2017
16786TIP3    H271850   5.304   1.930   2.959 -0.5118 -0.1662 -0.9879
16787TIP3   OH271851   3.349   5.639   2.073  0.4429 -0.2865 -0.1820
16787TIP3    H171852   3.338   5.558   2.024 -0.1972  0.5019 -1.4017
16787TIP3    H271853   3.284   5.635   2.143 -1.2437  0.1832 -1.6587
16788TIP3   OH271854   3.744   3.319  12.841  0.5081  0.0863 -1.1834
16788TIP3    H171855   3.828   3.275  12.857  0.6659 -0.0655 -2.3525
16788TIP3    H271856   3.681   3.248  12.832  0.2877  0.1945 -0.5647
16789TIP3   OH271857   1.318   1.778  14.090 -0.0474 -0.5822  0.2673
16789TIP3    H171858   1.285   1.821  14.169  1.4138 -0.2520  0.7280
16789TIP3    H271859   1.341   1.850  14.031 -1.5125 -0.8311 -0.6540
16790TIP3   OH271860   5.929   4.295   1.179  0.2678 -0.6746 -0.4511
16790TIP3    H171861   5.983   4.271   1.254  0.7055 -0.7403 -0.7806
16790TIP3    H271862   5.875   4.218   1.162 -0.2295 -0.4651  0.1309
16791TIP3   OH271863   4.446   3.888  11.181 -0.0990  0.6517  0.5294
16791TIP3    H171864   4.373   3.827  11.172  2.3603 -2.2807 -1.9999
16791TIP3    H271865   4.410   3.974  11.159 -3.0197 -0.3885  0.8636
16792TIP3   OH271866   5.783   0.945   1.865  0.1120 -0.0758 -0.0237
16792TIP3    H171867   5.690   0.967   1.872  0.0694 -0.2370 -0.0899
16792TIP3    H271868   5.825   1.029   1.845 -0.4698 -0.5226 -4.0859
16793TIP3   OH271869   3.022   5.941   2.690 -0.6044  0.1492 -0.0331
16793TIP3    H171870   2.991   5.850   2.686 -1.6854  0.4789  0.3419
16793TIP3    H271871   3.010   5.966   2.782  1.7697 -0.0053  0.3634
16794TIP3   OH271872   5.870   4.198   2.135  0.1328  0.1663  0.1319
16794TIP3    H171873   5.880   4.148   2.054  0.8258  2.8475 -1.5393
16794TIP3    H271874   5.949   4.177   2.185  0.3252 -0.5278 -0.4360
16795TIP3   OH271875   6.177   3.048   3.689 -0.0631  0.2078 -0.1124
16795TIP3    H171876   6.113   2.999   3.637  0.6631 -1.4820  0.4950
16795TIP3    H271877   6.185   2.999   3.770  1.2882  0.9031  0.2180
16796TIP3   OH271878   3.449   4.055   5.097  0.2483  0.2548 -0.1921
16796TIP3    H171879   3.534   4.051   5.141  1.9824 -0.1292 -3.3343
16796TIP3    H271880   3.422   4.146   5.104  2.8890  1.3249 -2.4411
16797TIP3   OH271881   3.190   3.374   5.717 -0.0081 -0.5161 -0.1808
16797TIP3    H171882   3.269   3.322   5.730  0.3247 -0.7441 -2.6210
16797TIP3    H271883   3.125   3.336   5.776  1.6658 -0.3196  1.8650
16798TIP3   OH271884   0.494   4.232   1.915 -0.0695  0.1970  0.1700
16798TIP3    H171885   0.483   4.184   1.833 -0.1162  0.2924  0.1210
16798TIP3    H271886   0.515   4.164   1.979  3.5590  0.3702 -0.5753
16799TIP3   OH271887   1.431   3.748   3.317 -0.7222 -0.0622 -0.0684
16799TIP3    H171888   1.504   3.794   3.360 -0.7464 -0.8202  0.8219
16799TIP3    H271889   1.474   3.690   3.254 -0.7178  1.5446 -1.6131
16800TIP3   OH271890   2.143   0.160   4.997  0.1091 -0.0606 -0.0198
16800TIP3    H171891   2.227   0.115   5.002 -0.3977 -0.9803  0.4682
16800TIP3    H271892   2.137   0.209   5.079  0.7720  1.1301 -0.6592
16801TIP3   OH271893   1.455   5.747   5.185  0.5138  0.0679 -0.2191
16801TIP3    H171894   1.527   5.805   5.211  0.0416 -0.5319  2.6906
16801TIP3    H271895   1.498   5.667   5.156  1.0608  0.2028  0.2071
16802TIP3   OH271896   1.138   3.201   3.370  0.1078  0.2826 -0.0126
16802TIP3    H171897   1.044   3.182   3.369  0.0774  0.3950  0.4952
16802TIP3    H271898   1.170   3.169   3.286  0.1956 -2.6603  1.0107
16803TIP3   OH271899   5.742   4.791   2.746  0.1233 -0.4302 -0.0752
16803TIP3    H171900   5.784   4.767   2.828  0.7284 -2.9270 -1.0498
16803TIP3    H271901   5.783   4.736   2.680 -0.0699  1.7527 -2.1784
16804TIP3   OH271902   2.608   5.036   5.306  0.5250  0.1697  0.6703
16804TIP3    H171903   2.557   5.082   5.240 -0.4053 -1.5535  0.1487
16804TIP3    H271904   2.560   5.049   5.388  1.0303  1.2894  0.8004
16805TIP3   OH271905   4.765   3.521  15.454  0.3661 -0.2353  0.4346
16805TIP3    H171906   4.726   3.455  15.396 -0.0612 -0.9963  1.5489
16805TIP3    H271907   4.720   3.602  15.430 -0.6067 -0.7508  0.4400
16806TIP3   OH271908   4.833   2.893   2.902  0.4914 -0.4801  0.2570
16806TIP3    H171909   4.858   2.849   2.984 -1.0923  0.6343  1.4023
16806TIP3    H271910   4.875   2.978   2.907  0.8393 -0.6084 -0.3759
16807TIP3   OH271911   1.629   4.909   5.308 -0.2152  0.2069  0.3992
16807TIP3    H171912   1.556   4.854   5.338  0.2587  0.3317  1.8486
16807TIP3    H271913   1.697   4.846   5.284 -1.4012 -0.0272 -2.9269
16808TIP3   OH271914   0.011   1.041   3.750  0.0742 -0.2251  0.7725
16808TIP3    H171915   0.005   0.961   3.698  1.6916  1.1163 -1.6977
16808TIP3    H271916  -0.075   1.081   3.744 -0.5271 -1.4034  1.3936
16809TIP3   OH271917   1.999   0.096   4.745 -0.7032 -0.0350  0.0233
16809TIP3    H171918   2.045   0.096   4.829 -0.3643 -1.4920 -0.1471
16809TIP3    H271919   2.024   0.014   4.703  0.0472  1.1712 -2.0398
16810TIP3   OH271920   3.390   2.536   1.588 -0.1404 -0.0503 -0.6120
16810TIP3    H171921   3.316   2.498   1.540  0.8911 -1.7682 -0.9234
16810TIP3    H271922   3.458   2.469   1.585  2.3287  2.2972 -2.3562
16811TIP3   OH271923   3.468   4.696   1.877  0.6490  0.5664  0.4754
16811TIP3    H171924   3.544   4.749   1.901  0.5069  0.4877  1.1316
16811TIP3    H271925   3.426   4.744   1.806  0.9928  0.9053  0.4984
16812TIP3   OH271926   1.194   0.275   4.308 -0.5419 -0.1327  0.4238
16812TIP3    H171927   1.198   0.338   4.236 -0.3050  1.3365  1.6586
16812TIP3    H271928   1.284   0.247   4.322 -0.7778 -1.6669 -0.8484
16813TIP3   OH271929   1.423   5.341   4.304  0.1048 -0.2058 -0.4310
16813TIP3    H171930   1.336   5.333   4.265  0.6319  2.4581 -2.4261
16813TIP3    H271931   1.463   5.255   4.291 -1.1944 -0.5943 -2.2271
16814TIP3   OH271932   1.062   6.308   5.008  0.1336 -0.5279 -0.0040
16814TIP3    H171933   1.074   6.335   5.099 -0.1537  2.3434 -0.7391
16814TIP3    H271934   0.977   6.264   5.008 -0.2725  0.2117  0.9709
16815TIP3   OH271935   4.606   0.874   5.577  0.6747 -0.3255 -0.0014
16815TIP3    H171936   4.522   0.916   5.595 -0.7056 -2.2123 -1.6722
16815TIP3    H271937   4.645   0.928   5.509 -0.5109 -0.9835 -1.2441
16816TIP3   OH271938   6.799   3.861   1.926  0.0736 -0.9034 -0.3794
16816TIP3    H171939   6.870   3.803   1.899  0.7344 -0.1844 -0.2333
16816TIP3    H271940   6.799   3.858   2.021 -1.2623 -2.2545 -0.3796
16817TIP3   OH271941   4.986   2.372   1.962 -0.0654  0.2554  0.1869
16817TIP3    H171942   4.899   2.412   1.967  0.4744  1.3798  0.8589
16817TIP3    H271943   4.989   2.332   1.875 -1.1181  0.5143  0.0200
16818TIP3   OH271944   6.244   4.899   0.183  0.5386 -0.3886  0.0065
16818TIP3    H171945   6.241   4.944   0.099  1.4803  1.4172  0.8804
16818TIP3    H271946   6.156   4.863   0.194 -1.0026  3.0227  0.1099
16819TIP3   OH271947   0.098   4.984   1.633 -0.2183  0.6255  0.2383
16819TIP3    H171948   0.021   4.929   1.641 -0.1727  0.6671  0.9881
16819TIP3    H271949   0.077   5.045   1.562 -1.6264  1.8451  1.6300
16820TIP3   OH271950   3.876   2.004   1.673 -0.4022  0.2708  0.2404
16820TIP3    H171951   3.945   2.022   1.610 -0.1503  1.4662  0.8427
16820TIP3    H271952   3.802   1.975   1.620  0.0617  0.4931 -0.5330
16821TIP3   OH271953   5.570   2.971   3.425  0.3863  0.0837 -0.0878
16821TIP3    H171954   5.479   2.995   3.443  0.8491  2.6871 -0.8923
16821TIP3    H271955   5.599   2.927   3.505 -1.2393  0.2284  0.6207
16822TIP3   OH271956   3.387   1.433  14.241 -0.0672 -0.2301  0.2479
16822TIP3    H171957   3.339   1.437  14.324  2.4729  0.4820  1.8057
16822TIP3    H271958   3.417   1.522  14.226 -2.4554  0.2225 -2.8343
16823TIP3   OH271959   4.133   3.521   0.706 -0.1916  0.3082 -0.2583
16823TIP3    H171960   4.079   3.459   0.756  3.2887 -1.5378  1.6331
16823TIP3    H271961   4.117   3.497   0.614 -2.1052 -0.4638  0.2148
16824TIP3   OH271962   0.690   4.722   3.150  0.5661 -0.0971 -0.0612
16824TIP3    H171963   0.705   4.689   3.238  0.6875 -1.7919 -0.6822
16824TIP3    H271964   0.774   4.711   3.105  0.5307  0.8128 -0.3859
16825TIP3   OH271965   4.820   1.764   5.828  0.1450 -0.2919  0.3871
16825TIP3    H171966   4.750   1.794   5.769  0.7743  0.7881  0.1737
16825TIP3    H271967   4.802   1.808   5.911  0.2397 -0.4802  0.5085
16826TIP3   OH271968   6.522   0.701   1.093 -0.1820  0.5577  0.1957
16826TIP3    H171969   6.555   0.725   1.180 -0.9127  2.5089 -0.0336
16826TIP3    H271970   6.469   0.623   1.109  0.9761 -0.0663  1.2207
16827TIP3   OH271971   1.163   5.713   5.371 -0.2961  0.4107 -0.7736
16827TIP3    H171972   1.143   5.780   5.305 -0.0329  0.8195 -0.4430
16827TIP3    H271973   1.239   5.666   5.335  0.2631  1.0621 -0.4617
16828TIP3   OH271974   4.665   3.889   4.210 -0.1613  0.2369 -0.2822
16828TIP3    H171975   4.659   3.943   4.289 -0.8431 -1.0725  0.5978
16828TIP3    H271976   4.577   3.889   4.173 -0.3347 -0.7830  0.0944
16829TIP3   OH271977   2.361   6.050  15.659 -0.0891  0.2996  0.6529
16829TIP3    H171978   2.382   6.086  15.745 -0.4670  0.4094  0.7014
16829TIP3    H271979   2.399   5.962  15.660 -0.2021  0.2536  0.9801
16830TIP3   OH271980   2.882   4.911   0.336 -0.5135 -0.4653  0.2978
16830TIP3    H171981   2.929   4.984   0.376 -2.3982  0.5295  0.8222
16830TIP3    H271982   2.937   4.885   0.262  2.5698 -1.6854  2.8076
16831TIP3   OH271983   2.066   1.378   5.193  0.8008  0.1746  0.7194
16831TIP3    H171984   2.083   1.357   5.284 -0.1475 -0.2571  0.8105
16831TIP3    H271985   1.975   1.350   5.178  0.9133  0.3081 -0.3266
16832TIP3   OH271986   6.295   2.234   5.158 -0.2236  0.0591 -0.4903
16832TIP3    H171987   6.200   2.223   5.149 -0.1159  0.2413 -2.3921
16832TIP3    H271988   6.308   2.329   5.162 -0.1421  0.0240  0.0930
16833TIP3   OH271989   5.631   6.808  13.924  0.4949  0.2000 -0.4890
16833TIP3    H171990   5.724   6.791  13.909  1.3995  2.5975  1.7830
16833TIP3    H271991   5.618   6.789  14.016 -0.8209  1.5937 -0.3528
16834TIP3   OH271992   0.681   4.232   1.395  0.4606 -0.7014  0.0873
16834TIP3    H171993   0.635   4.279   1.325  1.3041 -1.3233 -0.9077
16834TIP3    H271994   0.666   4.285   1.473  1.5798  1.3582 -1.0282
16835TIP3   OH271995   0.891   6.749   1.710  0.3257  0.4831 -0.1499
16835TIP3    H171996   0.867   6.713   1.624  1.0858 -0.2903 -0.0497
16835TIP3    H271997   0.976   6.790   1.696  0.4859  0.2915  0.2497
16836TIP3   OH271998   5.397   1.246  14.159  0.1709  0.4313  0.4949
16836TIP3    H171999   5.366   1.278  14.244 -0.8414 -0.0282  0.3171
16836TIP3    H272000   5.327   1.271  14.098  0.9699  0.9191 -0.2400
16837TIP3   OH272001   4.364   6.496   3.441  0.0545  0.5916 -0.6818
16837TIP3    H172002   4.404   6.431   3.498 -0.6196  1.2945  0.6392
16837TIP3    H272003   4.413   6.577   3.457 -0.1599  0.8034 -1.0676
16838TIP3   OH272004   4.270   1.526   0.446  0.0134  0.3447 -0.2687
16838TIP3    H172005   4.338   1.460   0.461 -0.6757 -0.0395  1.3873
16838TIP3    H272006   4.317   1.610   0.449  0.9298 -0.0160 -2.5765
16839TIP3   OH272007   4.079   1.938   5.208  0.4975  0.1789 -1.3974
16839TIP3    H172008   4.061   1.879   5.282  2.3692  1.8782  0.5257
16839TIP3    H272009   3.996   1.983   5.193 -0.4574 -1.5757 -1.7210
16840TIP3   OH272010   0.756   2.989   4.170 -0.4424 -0.0342  0.1234
16840TIP3    H172011   0.730   3.061   4.113 -0.9966 -0.5149 -0.2501
16840TIP3    H272012   0.817   2.938   4.116  0.9713  0.8332  0.8308
16841TIP3   OH272013   2.908   6.078   1.552  0.0020  0.2767  0.3627
16841TIP3    H172014   2.823   6.118   1.535  0.7714  1.1992 -1.7645
16841TIP3    H272015   2.890   6.008   1.614 -2.5256 -0.3521 -0.9343
16842TIP3   OH272016   3.086   2.875   0.558  0.3999  0.4280  0.0651
16842TIP3    H172017   3.077   2.790   0.516  1.3400  0.9202 -1.1912
16842TIP3    H272018   3.005   2.887   0.608 -1.2835  0.3092 -2.5062
16843TIP3   OH272019   4.632   1.971  11.652  0.4162 -0.0683 -0.3464
16843TIP3    H172020   4.687   1.896  11.672 -1.3941 -1.4511 -0.3050
16843TIP3    H272021   4.671   2.010  11.573  0.4681 -2.0494 -1.3541
16844TIP3   OH272022   3.330   1.238  12.997 -0.1573  0.1710  0.7117
16844TIP3    H172023   3.260   1.302  13.007 -2.3703 -2.1959  1.4676
16844TIP3    H272024   3.327   1.214  12.904  0.9792  1.3919  0.3240
16845TIP3   OH272025   1.830   5.832   4.855  0.6070  0.2830  0.1224
16845TIP3    H172026   1.874   5.909   4.891 -0.4820  0.8560  0.2641
16845TIP3    H272027   1.813   5.855   4.763 -1.8026  1.2176  0.7203
16846TIP3   OH272028   6.267   5.509   3.570 -0.8154  0.8147  0.1009
16846TIP3    H172029   6.314   5.580   3.613  1.9995 -0.5440 -0.4764
16846TIP3    H272030   6.285   5.521   3.477  1.3387 -1.5646  0.0952
16847TIP3   OH272031   0.652   3.479   2.308 -0.5440 -0.5088 -0.8492
16847TIP3    H172032   0.619   3.463   2.396  2.1335 -0.9933  0.1639
16847TIP3    H272033   0.727   3.421   2.300  1.0873  1.6482 -2.3212
16848TIP3   OH272034   5.853   2.326  13.604 -0.6824  0.1691 -0.4065
16848TIP3    H172035   5.901   2.341  13.685 -0.4705  2.6103 -0.9054
16848TIP3    H272036   5.821   2.236  13.611  0.5764 -0.1754  1.6982
16849TIP3   OH272037   4.801   1.450   3.672  0.2499 -0.2337 -0.6415
16849TIP3    H172038   4.777   1.401   3.594  0.9710 -2.6099  0.5128
16849TIP3    H272039   4.804   1.384   3.741  0.1817  1.6754  1.3000
16850TIP3   OH272040   1.892   1.167   4.135 -0.7619  0.3665 -0.3216
16850TIP3    H172041   1.925   1.251   4.104 -1.3992  0.6655 -0.2093
16850TIP3    H272042   1.849   1.187   4.218  2.1115 -0.6400  1.5448
16851TIP3   OH272043   0.974   7.098  14.058 -0.3669 -0.1009  0.0317
16851TIP3    H172044   0.917   7.032  14.019 -0.4197 -0.0208 -0.0278
16851TIP3    H272045   0.915   7.152  14.111 -0.3627  0.0383 -0.1036
16852TIP3   OH272046   6.707   4.424   6.077  0.1306  0.0730  0.8069
16852TIP3    H172047   6.637   4.377   6.123 -0.6514  1.4182  1.0580
16852TIP3    H272048   6.729   4.496   6.136 -0.5828  1.5861 -0.7023
16853TIP3   OH272049   3.143   3.512   0.341 -0.3876  0.4594 -0.2972
16853TIP3    H172050   3.133   3.593   0.291 -0.3228  1.3727  1.0954
16853TIP3    H272051   3.189   3.539   0.421 -1.4072 -0.7391  0.7404
16854TIP3   OH272052   6.154   1.154   3.284  0.0188 -0.0754 -0.0191
16854TIP3    H172053   6.172   1.096   3.210  0.2380  0.7321 -0.6220
16854TIP3    H272054   6.238   1.163   3.328 -0.0037 -0.1790  0.0450
16855TIP3   OH272055   6.123   6.896   5.544  0.2872  0.1076  0.4974
16855TIP3    H172056   6.057   6.959   5.574  0.3295 -0.0291  0.8729
16855TIP3    H272057   6.099   6.814   5.586  1.2431  0.2643  1.3845
16856TIP3   OH272058   5.854   4.306   2.386 -0.2002  0.4748 -0.1504
16856TIP3    H172059   5.786   4.246   2.418  0.8062  0.0600  1.3242
16856TIP3    H272060   5.855   4.294   2.292 -0.7110 -1.0896  0.0243
16857TIP3   OH272061   2.451   2.284   4.162  0.0701  0.0453  0.0463
16857TIP3    H172062   2.537   2.326   4.171  0.7396 -1.2852  0.0284
16857TIP3    H272063   2.469   2.203   4.114 -0.9465 -0.9980  1.3611
16858TIP3   OH272064   2.285   3.437  12.831 -0.0708  0.1276 -0.2673
16858TIP3    H172065   2.197   3.475  12.827  0.4223  1.3505  0.0124
16858TIP3    H272066   2.271   3.351  12.870 -1.4512 -0.8157 -2.6343
16859TIP3   OH272067   4.696   4.413   3.436 -0.3526 -0.4029  0.2177
16859TIP3    H172068   4.691   4.508   3.444 -0.4654 -0.4930  1.4853
16859TIP3    H272069   4.789   4.393   3.440 -0.3134 -0.3363 -0.2916
16860TIP3   OH272070   0.918   1.024   2.707 -0.1557 -0.1281  0.4140
16860TIP3    H172071   0.885   1.043   2.795 -0.6126 -1.2597  0.5067
16860TIP3    H272072   0.842   1.033   2.650  0.0333  0.1249  0.1999
16861TIP3   OH272073   2.425   3.171   3.617  0.5619 -0.4439  0.0343
16861TIP3    H172074   2.382   3.163   3.531  0.8391 -0.7729 -0.0750
16861TIP3    H272075   2.406   3.261   3.645 -0.3411 -0.6300  0.0598
16862TIP3   OH272076   5.394   5.265   3.414 -0.3326 -0.3604  0.5366
16862TIP3    H172077   5.396   5.338   3.476  1.7667 -0.8702  1.1604
16862TIP3    H272078   5.338   5.200   3.456  1.7991 -1.0857  2.5090
16863TIP3   OH272079   5.550   1.344   3.165  0.3155  0.6329 -0.5383
16863TIP3    H172080   5.645   1.342   3.157  0.2982 -0.6301 -0.6592
16863TIP3    H272081   5.527   1.255   3.194 -0.9265  0.5046 -1.8053
16864TIP3   OH272082   2.886   3.866   2.794  0.1110 -0.0323  0.4539
16864TIP3    H172083   2.896   3.831   2.883 -0.5125 -0.7161  0.2701
16864TIP3    H272084   2.826   3.805   2.751 -0.8226  1.1320  0.0365
16865TIP3   OH272085   1.582   4.800  13.982  0.6242  0.4147 -0.2229
16865TIP3    H172086   1.489   4.818  13.970  0.7514  0.6831 -0.8493
16865TIP3    H272087   1.626   4.867  13.929  1.2141  1.2653  1.2797
16866TIP3   OH272088   3.256   6.914   2.919  0.2169  0.7408 -0.3449
16866TIP3    H172089   3.223   6.850   2.857  0.9203  0.3319 -0.3070
16866TIP3    H272090   3.295   6.862   2.990  0.8952  1.1948 -0.3645
16867TIP3   OH272091   3.681   6.867  13.599 -0.7870  0.1774 -0.2908
16867TIP3    H172092   3.627   6.945  13.604 -1.8175 -0.5885  1.3038
16867TIP3    H272093   3.622   6.798  13.568 -0.3384 -0.3367 -0.0205
16868TIP3   OH272094   2.946   1.383   5.026 -0.4200  0.3479  0.5848
16868TIP3    H172095   3.000   1.425   4.959  2.8527 -1.1213  2.0971
16868TIP3    H272096   2.986   1.408   5.109 -1.8741 -1.1215  1.8168
16869TIP3   OH272097   2.236   3.836   3.256  0.0455  0.0926 -0.1280
16869TIP3    H172098   2.230   3.929   3.236  0.3120  0.0041 -0.6289
16869TIP3    H272099   2.191   3.827   3.340 -1.8163  0.3463 -1.0371
16870TIP3   OH272100   3.647   0.914   4.369  0.3812  0.1515  0.3967
16870TIP3    H172101   3.705   0.989   4.384 -0.1600  0.2374  2.1501
16870TIP3    H272102   3.563   0.940   4.406  0.0582 -1.1439  0.6209
16871TIP3   OH272103   5.679   6.532   3.614  0.1888  0.0236 -0.2911
16871TIP3    H172104   5.586   6.530   3.590 -0.0478  1.9162  0.2839
16871TIP3    H272105   5.693   6.451   3.663 -1.0754 -0.4364 -0.6480
16872TIP3   OH272106   3.038   3.110   0.743 -0.0465 -0.0217 -0.0057
16872TIP3    H172107   2.975   3.182   0.743  1.3464  1.2792 -1.7865
16872TIP3    H272108   2.984   3.031   0.738 -1.5632  1.0567 -2.1188
16873TIP3   OH272109   2.764   6.946   2.813 -0.3907  0.2289 -0.0634
16873TIP3    H172110   2.833   7.012   2.823 -1.2497  1.0582  0.6013
16873TIP3    H272111   2.715   6.973   2.736 -1.9326  1.5587  1.2837
16874TIP3   OH272112   0.240   3.081   0.933 -0.5532  0.5632 -0.4466
16874TIP3    H172113   0.301   3.081   1.007 -3.0399 -0.6650  1.7830
16874TIP3    H272114   0.195   3.165   0.939 -1.0924  0.2629 -0.2564
16875TIP3   OH272115   4.775   5.415   0.549  0.4200  0.4476 -0.5880
16875TIP3    H172116   4.865   5.399   0.520  0.7982  0.3466  0.5910
16875TIP3    H272117   4.767   5.511   0.552  2.1727  0.6877  4.0063
16876TIP3   OH272118   6.872   0.330  11.226  0.5308 -0.5852 -0.3863
16876TIP3    H172119   6.877   0.312  11.320 -0.4490 -0.0522 -0.2193
16876TIP3    H272120   6.885   0.425  11.219  1.6802 -0.7612 -0.8994
16877TIP3   OH272121   5.086   6.272   5.338  0.4313 -0.1538  0.1793
16877TIP3    H172122   5.008   6.231   5.375  0.8324  0.0800  1.3101
16877TIP3    H272123   5.156   6.208   5.353  0.7482  0.2704  0.5411
16878TIP3   OH272124   2.028   3.764   5.956 -0.0080 -0.2896 -0.6819
16878TIP3    H172125   1.933   3.756   5.957 -0.0537  0.2117 -0.7156
16878TIP3    H272126   2.060   3.677   5.981 -0.4492 -1.0578 -2.5972
16879TIP3   OH272127   0.553   3.483   2.582 -0.0838  0.4569 -0.1350
16879TIP3    H172128   0.609   3.468   2.658  0.1793 -0.0053 -0.4092
16879TIP3    H272129   0.513   3.568   2.597 -0.7945 -0.0611  0.9918
16880TIP3   OH272130   4.977   1.065  11.321 -0.6890 -0.4296  0.4176
16880TIP3    H172131   4.912   1.131  11.297  1.6186  0.8583 -3.0329
16880TIP3    H272132   4.962   0.994  11.258 -0.9261 -1.7043  1.8692
16881TIP3   OH272133   0.412   0.620  11.865  0.3944 -0.1857  0.3084
16881TIP3    H172134   0.316   0.621  11.866  0.3279 -1.6673 -0.6835
16881TIP3    H272135   0.435   0.538  11.909  1.1414 -0.5950 -0.8143
16882TIP3   OH272136   0.359   2.170   3.818  0.5133  0.8924 -0.1392
16882TIP3    H172137   0.313   2.086   3.821  0.7989  0.6605 -1.7435
16882TIP3    H272138   0.288   2.236   3.820  0.2256  0.5917 -0.3996
16883TIP3   OH272139   6.730   4.181   3.794 -0.5802  0.2029  0.5423
16883TIP3    H172140   6.728   4.220   3.706 -0.7578  0.6976  0.7574
16883TIP3    H272141   6.817   4.143   3.802 -0.7485 -0.3194 -0.0474
16884TIP3   OH272142   5.805   0.555   0.337  0.5188 -0.5433  0.1927
16884TIP3    H172143   5.790   0.637   0.383 -1.8526 -0.3130 -0.8564
16884TIP3    H272144   5.838   0.495   0.405 -0.9125  0.3477  1.7414
16885TIP3   OH272145   5.464   5.794  11.437  0.5140 -0.1241 -0.2829
16885TIP3    H172146   5.418   5.725  11.391  0.0278  0.4054 -0.6030
16885TIP3    H272147   5.513   5.840  11.369 -0.6889  1.0423 -0.4036
16886TIP3   OH272148   6.483   4.148   3.878 -0.3383  0.2764 -0.3406
16886TIP3    H172149   6.466   4.240   3.898 -0.5490  0.5760 -1.7772
16886TIP3    H272150   6.572   4.147   3.843 -0.7184  0.1193 -1.3413
16887TIP3   OH272151   2.050   0.532  14.135 -0.0958  0.0014  0.3987
16887TIP3    H172152   2.126   0.511  14.081  1.0754 -0.1872  2.0339
16887TIP3    H272153   2.087   0.571  14.215 -1.7855  0.9679  0.7682
16888TIP3   OH272154   5.228   0.470  11.505 -0.0155 -0.5847  0.9836
16888TIP3    H172155   5.197   0.414  11.433  0.1998  0.3901  0.0976
16888TIP3    H272156   5.234   0.412  11.580  0.1416 -1.7326  0.1090
16889TIP3   OH272157   4.182   3.020   2.674  0.1979  0.2202  0.2917
16889TIP3    H172158   4.148   3.013   2.764  0.0983  0.3203  0.2628
16889TIP3    H272159   4.234   3.101   2.675 -1.0474  1.0629 -0.1335
16890TIP3   OH272160   4.410   2.375   5.623  0.2224 -0.1893  0.0702
16890TIP3    H172161   4.477   2.335   5.568 -0.6475 -1.3283 -0.2060
16890TIP3    H272162   4.406   2.319   5.701 -1.1216 -0.7917 -0.3915
16891TIP3   OH272163   5.950   3.754  14.045  0.0171  0.2386  0.0828
16891TIP3    H172164   5.983   3.664  14.052  1.5797  0.4501 -2.7239
16891TIP3    H272165   5.856   3.744  14.034  0.2083 -1.1534 -0.6663
16892TIP3   OH272166   3.412   5.223   2.688  0.3735  0.0189  0.5036
16892TIP3    H172167   3.337   5.168   2.665  0.7224  0.1483 -1.0086
16892TIP3    H272168   3.421   5.283   2.614  0.5598  1.5277  1.7009
16893TIP3   OH272169   4.078   2.170   2.728 -0.4285 -0.0307  0.4730
16893TIP3    H172170   4.041   2.119   2.656 -2.4483  0.1986  1.2717
16893TIP3    H272171   4.021   2.247   2.734  0.0604  0.2502  1.9172
16894TIP3   OH272172   1.223   6.569   2.288  0.1755  0.1251  0.5225
16894TIP3    H172173   1.182   6.499   2.237  0.0478  0.9639 -0.5780
16894TIP3    H272174   1.183   6.563   2.374 -0.3877 -0.6775  0.2194
16895TIP3   OH272175   1.104   6.261  14.774 -0.1577  0.3231  0.0759
16895TIP3    H172176   1.191   6.296  14.754 -0.0273  0.3140  0.6047
16895TIP3    H272177   1.077   6.217  14.694  0.4144  0.1521 -0.0282
16896TIP3   OH272178   1.820   5.051   4.320  0.1304 -0.4274 -0.0661
16896TIP3    H172179   1.837   4.958   4.304  1.8958 -0.1966  0.2261
16896TIP3    H272180   1.842   5.094   4.237 -0.4395 -0.2390 -0.1237
16897TIP3   OH272181   6.851   5.277   1.552 -0.6089  0.4186  0.3527
16897TIP3    H172182   6.811   5.358   1.584  0.2831  0.5081  1.2973
16897TIP3    H272183   6.943   5.285   1.577 -0.0357  0.1085 -1.5438
16898TIP3   OH272184   5.780   4.656  12.577  0.7691  0.1638  0.2399
16898TIP3    H172185   5.699   4.611  12.553  0.1920  0.8284  0.9104
16898TIP3    H272186   5.818   4.603  12.648  0.9223 -0.1359 -0.0607
16899TIP3   OH272187   0.734   2.284   3.967 -0.2640 -0.1468 -0.5299
16899TIP3    H172188   0.829   2.276   3.960  0.2002  2.0259  1.6737
16899TIP3    H272189   0.717   2.377   3.952 -2.2545 -0.7483 -2.3055
16900TIP3   OH272190   3.396   0.975  15.420  0.3285 -0.1789  0.1596
16900TIP3    H172191   3.469   0.932  15.375 -0.9501  0.2139 -2.4468
16900TIP3    H272192   3.397   1.064  15.385 -0.0366  0.5018  1.8233
16901TIP3   OH272193   4.890   4.218  13.292  0.3718 -0.4050 -0.1280
16901TIP3    H172194   4.890   4.162  13.215 -3.4910  1.3769 -1.6856
16901TIP3    H272195   4.823   4.180  13.350 -1.6582  1.8780 -0.8177
16902TIP3   OH272196   3.428   4.582   1.200  0.0455 -0.1421  0.5304
16902TIP3    H172197   3.356   4.645   1.209  0.5844  0.5767  0.0147
16902TIP3    H272198   3.459   4.595   1.110  0.4784 -0.8121  0.5777
16903TIP3   OH272199   4.436   7.038  14.326 -0.2034  0.2168 -0.2018
16903TIP3    H172200   4.473   7.071  14.244 -2.5234 -0.8792 -1.8183
16903TIP3    H272201   4.437   6.943  14.316 -1.6992  0.1116  0.4358
16904TIP3   OH272202   4.220   3.859   4.336 -0.4843 -0.0757  0.1328
16904TIP3    H172203   4.243   3.920   4.266  0.0264 -0.1719  0.2099
16904TIP3    H272204   4.135   3.824   4.311 -0.8747  0.8080  0.1803
16905TIP3   OH272205   3.380   5.158   3.014 -0.4316 -0.2035  0.2812
16905TIP3    H172206   3.366   5.066   2.989 -1.0914 -0.0837  0.1922
16905TIP3    H272207   3.362   5.207   2.934  1.7389 -0.0965 -0.2016
16906TIP3   OH272208   2.615   5.175  13.732  0.8207 -0.7604  0.2885
16906TIP3    H172209   2.607   5.140  13.821  1.8043  0.6911  0.9952
16906TIP3    H272210   2.543   5.236  13.724  1.0971 -0.4262  0.3279
16907TIP3   OH272211   4.748   2.538   0.339 -0.4862  0.0224  0.3053
16907TIP3    H172212   4.667   2.531   0.289  0.2555 -0.3841 -0.8871
16907TIP3    H272213   4.725   2.509   0.427 -1.6114 -0.1873 -0.0470
16908TIP3   OH272214   4.127   3.443  12.450  0.3937  0.5182  0.0393
16908TIP3    H172215   4.185   3.404  12.516 -1.8280 -1.4678  1.0100
16908TIP3    H272216   4.109   3.531  12.482  2.7919  1.1866 -0.3029
16909TIP3   OH272217   3.050   6.175  11.578  0.8685  0.3583  0.8076
16909TIP3    H172218   2.982   6.178  11.645  0.2609  0.8163  0.1869
16909TIP3    H272219   3.002   6.159  11.496  1.5297  0.4776  0.3911
16910TIP3   OH272220   4.843   0.960   3.894  0.8315  0.3711 -0.0104
16910TIP3    H172221   4.766   0.954   3.837 -0.4809 -1.4382  1.7940
16910TIP3    H272222   4.877   0.871   3.899 -1.0218 -0.3779  4.3298
16911TIP3   OH272223   7.063   1.037   5.254  0.3430  0.0918 -0.0811
16911TIP3    H172224   7.091   1.015   5.165  0.8994 -0.7260  0.2757
16911TIP3    H272225   7.143   1.033   5.306  0.1452  1.2642  0.3425
16912TIP3   OH272226   3.711   0.379   4.028  0.0115 -0.3221  0.5771
16912TIP3    H172227   3.637   0.327   3.997  0.1035  0.6081 -1.3131
16912TIP3    H272228   3.671   0.460   4.060  0.1027 -0.4390  0.9980
16913TIP3   OH272229   5.740   0.830   0.435 -0.5097  0.0142 -0.2368
16913TIP3    H172230   5.654   0.861   0.406 -0.9543 -0.4348  0.5992
16913TIP3    H272231   5.796   0.840   0.357 -1.4060 -0.0781 -0.9042
16914TIP3   OH272232   3.663   5.396  11.852 -0.2961  0.2158 -0.3524
16914TIP3    H172233   3.607   5.325  11.820  0.1120 -0.1147 -0.3439
16914TIP3    H272234   3.636   5.409  11.942  0.8289 -1.1744  0.2408
16915TIP3   OH272235   3.584   3.267  13.758  0.1909  0.1699 -0.1959
16915TIP3    H172236   3.500   3.237  13.794  0.5974 -0.8742 -0.0905
16915TIP3    H272237   3.570   3.360  13.740 -0.4364  0.4319  1.4720
16916TIP3   OH272238   0.054   2.756  12.757  0.3705 -0.1233 -0.2118
16916TIP3    H172239   0.067   2.790  12.846 -1.4057  0.4707 -0.1379
16916TIP3    H272240  -0.013   2.813  12.720  0.1646 -1.1691 -1.4902
16917TIP3   OH272241   5.621   3.694   0.056  0.6128 -1.4079 -0.3020
16917TIP3    H172242   5.651   3.629  -0.007  1.7935 -1.7287  0.5544
16917TIP3    H272243   5.561   3.647   0.114 -0.6895 -1.0471 -1.3135
16918TIP3   OH272244   2.634   5.648  15.115 -0.1969  0.0620 -0.2237
16918TIP3    H172245   2.571   5.688  15.174 -0.1627 -0.8795  0.4638
16918TIP3    H272246   2.674   5.577  15.166  1.4776  0.6656 -0.5997
16919TIP3   OH272247   5.659   4.021   4.541 -0.3089 -0.7821 -0.1292
16919TIP3    H172248   5.617   3.985   4.619 -1.8598  0.3815 -0.3705
16919TIP3    H272249   5.654   3.951   4.476 -0.5113 -1.1951  0.3271
16920TIP3   OH272250   6.124   5.153   0.204  0.7027 -0.3351  0.5567
16920TIP3    H172251   6.167   5.068   0.197  1.1390  0.0527 -2.4300
16920TIP3    H272252   6.031   5.133   0.207  0.8257 -0.9140  0.5174
16921TIP3   OH272253   3.565   2.433   5.397 -0.0041 -0.0197 -0.2415
16921TIP3    H172254   3.547   2.452   5.305  0.1561 -0.3000 -0.3336
16921TIP3    H272255   3.520   2.349   5.412 -1.1172  0.6582  0.2831
16922TIP3   OH272256   5.831   3.677   5.631 -0.0725  0.6458 -0.4081
16922TIP3    H172257   5.879   3.752   5.668  1.1389  0.5079 -1.6089
16922TIP3    H272258   5.832   3.692   5.536 -0.3732 -0.5497 -0.6216
16923TIP3   OH272259   1.004   3.603   2.527  0.0672  0.0820  0.1920
16923TIP3    H172260   0.959   3.623   2.610  0.9315  0.9233  0.4678
16923TIP3    H272261   1.030   3.688   2.493  3.8937 -0.4353  1.4233
16924TIP3   OH272262   4.474   3.579   2.526 -0.1944 -0.0865  0.4052
16924TIP3    H172263   4.453   3.672   2.536 -0.9415 -0.2665  0.5029
16924TIP3    H272264   4.542   3.562   2.592  0.2246  0.4733  0.1310
16925TIP3   OH272265   6.027   0.071   4.619  0.0549  0.0879  0.3330
16925TIP3    H172266   5.959   0.061   4.685  0.3745  2.3366  1.0508
16925TIP3    H272267   5.988   0.127   4.552  0.3351 -0.7676 -0.5923
16926TIP3   OH272268   2.444   3.475   1.012  0.3965  0.3720 -0.1041
16926TIP3    H172269   2.387   3.411   0.970  2.9093 -2.0834 -0.0776
16926TIP3    H272270   2.385   3.542   1.045 -2.4752 -2.0299  0.0441
16927TIP3   OH272271   4.860   1.425   1.726  0.2134 -0.2127  0.2575
16927TIP3    H172272   4.909   1.465   1.653 -0.3049  0.7671  0.4237
16927TIP3    H272273   4.909   1.346   1.747  0.4372 -0.4637 -1.0877
16928TIP3   OH272274   4.291   6.256   1.333  0.0174  0.5175 -0.0699
16928TIP3    H172275   4.198   6.254   1.311 -0.2445 -1.1568  1.0384
16928TIP3    H272276   4.300   6.333   1.390 -0.6360  0.7988 -0.3326
16929TIP3   OH272277   4.664   0.241   2.345 -0.2292  0.0385  0.3894
16929TIP3    H172278   4.750   0.249   2.385 -0.1895  2.8247 -0.0466
16929TIP3    H272279   4.605   0.227   2.419  0.1919  2.0968  1.1710
16930TIP3   OH272280   4.364   3.554   1.145  0.0553 -0.2123  0.5157
16930TIP3    H172281   4.287   3.524   1.193 -1.6241  1.6429 -0.8138
16930TIP3    H272282   4.349   3.525   1.055  3.2675 -3.8628  0.9296
16931TIP3   OH272283   3.607   3.220   2.542  0.1390  0.3111  0.1102
16931TIP3    H172284   3.619   3.125   2.540  0.6868  0.3841 -0.9257
16931TIP3    H272285   3.512   3.233   2.541  0.0632 -0.2279 -0.5488
16932TIP3   OH272286   6.874   3.642  15.370 -0.1249 -0.2160  0.2563
16932TIP3    H172287   6.807   3.574  15.363  0.1332 -0.4127 -0.3818
16932TIP3    H272288   6.826   3.720  15.398 -0.3694 -0.7352  1.3561
16933TIP3   OH272289   0.704   0.325   2.914  0.2982 -0.1458  0.2402
16933TIP3    H172290   0.754   0.291   2.840  1.0395  0.1501  0.5906
16933TIP3    H272291   0.771   0.353   2.977 -0.3096  0.3139  0.6953
16934TIP3   OH272292   7.037   3.650   1.262  0.0268 -0.4193  0.1133
16934TIP3    H172293   6.996   3.590   1.200 -1.8518 -0.1771  1.0541
16934TIP3    H272294   7.063   3.595   1.336  1.2023 -0.5204 -0.3424
16935TIP3   OH272295   1.846   5.590   5.002 -0.3363  0.0259  0.0068
16935TIP3    H172296   1.823   5.672   4.959 -0.3105  1.0354  1.8150
16935TIP3    H272297   1.926   5.560   4.958  0.8607  2.0878  0.6645
16936TIP3   OH272298   0.952   3.179   5.014  0.5635  0.5190 -0.1051
16936TIP3    H172299   0.988   3.139   5.093 -0.5257 -0.6670 -0.1753
16936TIP3    H272300   0.929   3.105   4.958  0.4795  1.3179 -1.1647
16937TIP3   OH272301   6.668   5.410   4.400 -0.1901  0.0949 -0.6235
16937TIP3    H172302   6.761   5.388   4.389 -0.7205 -2.7246 -0.3013
16937TIP3    H272303   6.638   5.431   4.312  0.8213  1.5001 -0.6636
16938TIP3   OH272304   2.598   3.080   1.856 -0.5507 -0.6537 -0.1256
16938TIP3    H172305   2.641   3.121   1.780 -1.6187  1.0465  0.1351
16938TIP3    H272306   2.639   2.994   1.862  2.9412  0.8484  0.1891
16939TIP3   OH272307   0.481   2.661   5.022 -0.1050  0.0264  0.0484
16939TIP3    H172308   0.476   2.704   5.108 -1.0709  0.6498 -0.2997
16939TIP3    H272309   0.501   2.570   5.043 -2.1998 -0.2748  1.1070
16940TIP3   OH272310   0.612   2.452   3.599 -0.9486 -0.3399 -0.0567
16940TIP3    H172311   0.676   2.414   3.658 -1.8718  0.5531  1.6112
16940TIP3    H272312   0.629   2.547   3.602 -2.3379 -0.0797  0.4759
16941TIP3   OH272313   4.920   2.051   2.398  0.0825  0.0441  0.9488
16941TIP3    H172314   4.986   1.983   2.409 -0.3084 -0.5522 -0.3003
16941TIP3    H272315   4.916   2.094   2.484 -1.5339 -3.1656  2.6775
16942TIP3   OH272316   3.220   6.887   1.495  0.3407  0.0856 -0.0662
16942TIP3    H172317   3.130   6.872   1.467  1.0121  0.6844 -2.8751
16942TIP3    H272318   3.224   6.981   1.515  0.1518 -0.1089  0.9139
16943TIP3   OH272319   0.628   5.581   2.514 -0.1503  0.2088 -0.2122
16943TIP3    H172320   0.664   5.557   2.429  1.5192 -0.6668  0.6909
16943TIP3    H272321   0.681   5.532   2.577 -0.9085  1.3375  1.3627
16944TIP3   OH272322   4.858   6.883  15.375 -0.5237  0.0662  0.0950
16944TIP3    H172323   4.904   6.800  15.386  1.4937  0.5686 -3.2793
16944TIP3    H272324   4.822   6.880  15.287 -0.5141  2.7129 -0.0999
16945TIP3   OH272325   6.172   4.731   4.954  0.4990  0.0646 -0.1478
16945TIP3    H172326   6.187   4.716   4.861 -0.6287 -2.5799  0.0221
16945TIP3    H272327   6.260   4.737   4.992  1.0544 -2.2255 -0.9418
16946TIP3   OH272328   4.874   3.194   2.923  0.5931  0.6316  0.0154
16946TIP3    H172329   4.956   3.237   2.947  1.1109 -0.3047 -0.0320
16946TIP3    H272330   4.876   3.190   2.827  0.7472  0.1364  0.0359
16947TIP3   OH272331   6.624   1.200   0.346  0.3340  0.0172 -0.7372
16947TIP3    H172332   6.673   1.192   0.264  1.8704 -4.1004  0.3795
16947TIP3    H272333   6.691   1.216   0.413 -0.7379  1.7637 -0.0105
16948TIP3   OH272334   4.830   5.545   5.425 -0.1326  0.4278  0.3753
16948TIP3    H172335   4.816   5.528   5.332  1.8775 -1.4492  0.3225
16948TIP3    H272336   4.770   5.486   5.470  1.8254 -1.8796  0.1752
16949TIP3   OH272337   3.349   0.331  12.931  0.0002 -0.3307 -0.3029
16949TIP3    H172338   3.296   0.374  12.865  0.2895  0.7434  0.1352
16949TIP3    H272339   3.413   0.280  12.882  0.4974  0.8119 -0.8685
16950TIP3   OH272340   2.265   3.660   4.674  0.1090 -0.4733 -0.3301
16950TIP3    H172341   2.242   3.568   4.665 -0.9871 -0.2246 -0.2208
16950TIP3    H272342   2.225   3.703   4.598 -2.0458  0.3575  1.1753
16951TIP3   OH272343   1.326   6.032   5.538  0.5111  0.2084 -0.1208
16951TIP3    H172344   1.310   5.985   5.619 -1.6379  0.7737 -0.1484
16951TIP3    H272345   1.407   5.994   5.503  1.3791 -0.1573  2.1601
16952TIP3   OH272346   3.784   1.016   1.274  0.1365 -0.0598  0.7261
16952TIP3    H172347   3.755   0.972   1.355  0.5948  0.2139  1.0390
16952TIP3    H272348   3.879   1.014   1.278  0.2072 -1.6007 -0.6542
16953TIP3   OH272349   4.703   6.671  13.117 -0.4781  0.1044  0.1163
16953TIP3    H172350   4.791   6.680  13.080 -2.2140  1.0630 -4.3095
16953TIP3    H272351   4.675   6.583  13.091 -0.9915 -0.1155  1.3282
16954TIP3   OH272352   1.253   7.056   4.864 -0.0790 -0.1970  0.0704
16954TIP3    H172353   1.325   7.115   4.886  0.4041 -0.3918 -0.9197
16954TIP3    H272354   1.198   7.107   4.805 -0.0284 -0.4971 -0.2395
16955TIP3   OH272355   5.672   0.065   5.098 -0.1306  0.3551  0.3821
16955TIP3    H172356   5.637   0.112   5.174  1.9031  1.9153  0.4625
16955TIP3    H272357   5.738   0.125   5.062  0.0911 -1.0290 -1.6623
16956TIP3   OH272358   5.656   4.745  14.850  0.0571  0.0244  0.4783
16956TIP3    H172359   5.742   4.757  14.810  0.6640 -1.8975  1.1163
16956TIP3    H272360   5.676   4.721  14.941 -1.0962 -1.6651  0.3131
16957TIP3   OH272361   0.190   5.672   5.173  0.3851 -0.0944  0.4051
16957TIP3    H172362   0.187   5.767   5.164 -0.3621 -0.2086 -0.7663
16957TIP3    H272363   0.161   5.639   5.088  0.7809 -1.3752  0.7444
16958TIP3   OH272364   5.917   1.548   1.131 -0.4131  0.3329 -0.2268
16958TIP3    H172365   6.010   1.525   1.124  0.2629  2.8793 -0.7269
16958TIP3    H272366   5.917   1.634   1.173 -2.1354  2.5951 -4.2827
16959TIP3   OH272367   5.513   6.969   5.574  0.4858 -0.1131  0.1702
16959TIP3    H172368   5.425   6.934   5.556  0.2622  0.0613  0.9056
16959TIP3    H272369   5.552   6.906   5.634 -0.0357  1.0031  1.7617
16960TIP3   OH272370   4.442   3.780   4.047 -0.0637 -0.5534  0.1232
16960TIP3    H172371   4.373   3.715   4.034 -0.4414  0.3132 -2.7492
16960TIP3    H272372   4.397   3.860   4.073 -0.0539 -0.2580 -0.7535
16961TIP3   OH272373   6.133   1.475   5.965 -0.2069  0.6466  0.3004
16961TIP3    H172374   6.110   1.568   5.963  1.5979  1.2264  2.5810
16961TIP3    H272375   6.057   1.433   6.005 -0.6996  1.2292  0.0040
16962TIP3   OH272376   4.760   1.732   1.573  0.0403  0.0976 -0.4720
16962TIP3    H172377   4.733   1.727   1.664 -2.9834 -0.3534 -1.3146
16962TIP3    H272378   4.830   1.667   1.565  1.2101  0.9819  1.7326
16963TIP3   OH272379   1.127   3.780   3.906 -0.5705 -0.0526 -0.5152
16963TIP3    H172380   1.221   3.767   3.919 -0.3574  1.0586 -0.8286
16963TIP3    H272381   1.104   3.720   3.834 -0.1903 -0.6238 -0.1652
16964TIP3   OH272382   1.504   3.569   2.904  0.2125 -0.0374 -0.2441
16964TIP3    H172383   1.421   3.533   2.872 -0.1631  0.3138  0.3280
16964TIP3    H272384   1.562   3.493   2.908  0.4405 -0.0156 -2.2537
16965TIP3   OH272385   1.736   0.557   2.380  0.5681  0.1303  0.2121
16965TIP3    H172386   1.734   0.479   2.436  1.2748 -1.6280 -2.0333
16965TIP3    H272387   1.826   0.589   2.387  0.6198 -0.0082  0.1820
16966TIP3   OH272388   4.802   3.936   2.927  0.4445 -0.1845 -0.0232
16966TIP3    H172389   4.797   3.879   2.851  0.4122 -0.5825  0.2753
16966TIP3    H272390   4.825   4.022   2.891 -2.0999  0.2663 -0.8079
16967TIP3   OH272391   5.620   6.969   0.696 -0.1752  0.0134  0.1809
16967TIP3    H172392   5.676   6.953   0.621  0.8176 -0.5489  1.0102
16967TIP3    H272393   5.657   7.047   0.738 -0.5983  0.2064  0.2026
16968TIP3   OH272394   5.537   1.424   0.336 -0.5357 -0.3520  0.4856
16968TIP3    H172395   5.602   1.448   0.270  0.5073  1.5136  2.1067
16968TIP3    H272396   5.467   1.489   0.324 -0.1052  0.3205  1.5090
16969TIP3   OH272397   3.650   1.094   0.381 -0.4020  0.0154  0.4294
16969TIP3    H172398   3.649   1.004   0.350  1.4195  0.0056  0.3250
16969TIP3    H272399   3.661   1.086   0.476 -0.9333  0.1380  0.5075
16970TIP3   OH272400   7.097   4.340   5.166 -0.4239 -0.2697 -0.1029
16970TIP3    H172401   7.160   4.326   5.237  0.8133 -2.3191 -1.5037
16970TIP3    H272402   7.039   4.409   5.199  2.5703  1.8136  1.2327
16971TIP3   OH272403   1.330   0.358  12.087 -0.0460 -0.3242 -0.1305
16971TIP3    H172404   1.305   0.268  12.062  1.6982 -0.7285 -0.5215
16971TIP3    H272405   1.415   0.372  12.045  0.4177  0.9696  1.1730
16972TIP3   OH272406   4.870   5.216  14.649 -0.6721  0.0653  0.3118
16972TIP3    H172407   4.837   5.291  14.600  1.3562 -0.1308 -1.5248
16972TIP3    H272408   4.934   5.253  14.710  1.0639 -0.1620 -1.2759
16973TIP3   OH272409   2.534   1.782   4.387  0.0629 -0.0178  0.3292
16973TIP3    H172410   2.556   1.873   4.404 -2.4425  0.7969 -0.3423
16973TIP3    H272411   2.581   1.760   4.306  0.4191  0.7870  0.3126
16974TIP3   OH272412   3.856   3.782   5.548  0.4439  0.2756  0.0467
16974TIP3    H172413   3.900   3.726   5.485  1.1833  2.3361 -1.3924
16974TIP3    H272414   3.920   3.795   5.618  0.8685  0.5390 -0.3815
16975TIP3   OH272415   5.773   4.744   4.123  0.2063  0.6626  0.0974
16975TIP3    H172416   5.814   4.697   4.050  1.9513  0.5499  1.1025
16975TIP3    H272417   5.696   4.691   4.145  0.4176 -0.0380 -0.7862
16976TIP3   OH272418   0.945   2.111   0.419 -0.1211  0.0012 -0.4548
16976TIP3    H172419   0.863   2.065   0.437 -1.3110  1.6721 -1.3260
16976TIP3    H272420   0.956   2.106   0.324  0.6976 -0.0408 -0.3689
16977TIP3   OH272421   6.693   3.978  15.706  0.4310 -0.4353  0.7896
16977TIP3    H172422   6.636   3.901  15.707  0.6468 -0.6550 -0.6552
16977TIP3    H272423   6.655   4.034  15.637  0.1699  0.8530  1.9368
16978TIP3   OH272424   5.187   1.046  10.154  0.6890 -0.0040  0.2211
16978TIP3    H172425   5.232   0.962  10.142  0.9726  0.0394  0.9401
16978TIP3    H272426   5.095   1.022  10.166  0.8320 -0.2448  0.8584
16979TIP3   OH272427   6.331   6.603   0.258 -0.6241  0.1304  0.3629
16979TIP3    H172428   6.277   6.581   0.182 -2.3703 -3.5908  2.4330
16979TIP3    H272429   6.279   6.667   0.306 -0.2578  1.2442 -0.6683
16980TIP3   OH272430   4.571   2.762  11.958  0.3718 -0.2032 -0.2008
16980TIP3    H172431   4.605   2.847  11.930 -0.1836 -0.7937 -3.0097
16980TIP3    H272432   4.502   2.784  12.021  2.5401  1.1956  1.8243
16981TIP3   OH272433   1.444   4.774   4.652  0.0937 -0.1329 -0.2475
16981TIP3    H172434   1.524   4.732   4.684  0.9957  0.2696 -1.8561
16981TIP3    H272435   1.378   4.753   4.717  1.9606  1.3312  2.2909
16982TIP3   OH272436   3.749   4.573   6.059  0.8119 -0.4122 -0.7397
16982TIP3    H172437   3.703   4.505   6.108 -0.6732  0.7940 -0.3809
16982TIP3    H272438   3.818   4.527   6.012  0.4078 -2.0238  0.1934
16983TIP3   OH272439   1.545   0.018   1.286  0.2712  0.8220  0.0126
16983TIP3    H172440   1.588  -0.047   1.341  2.5143  2.1152 -0.1217
16983TIP3    H272441   1.493   0.071   1.347  0.8254  0.7630  0.5369
16984TIP3   OH272442   1.428   5.813   4.740 -0.1759  0.4290 -0.1260
16984TIP3    H172443   1.338   5.802   4.709 -0.1487  0.0861 -0.0823
16984TIP3    H272444   1.426   5.896   4.788 -0.9204 -0.5100  1.5288
16985TIP3   OH272445   1.634   7.120   0.595 -0.0369  0.1335 -0.1893
16985TIP3    H172446   1.542   7.145   0.606  0.3471  0.7897  2.3754
16985TIP3    H272447   1.681   7.203   0.585  0.5757  0.1341  2.0360
16986TIP3   OH272448   4.987   1.747  15.144 -0.8016  0.1275  0.1256
16986TIP3    H172449   4.956   1.838  15.144 -2.3104 -0.3167  2.1635
16986TIP3    H272450   5.075   1.752  15.107 -0.8654  2.4167  0.1253
16987TIP3   OH272451   2.274   0.161   3.307 -0.2711  0.4187 -0.1512
16987TIP3    H172452   2.202   0.224   3.314 -0.5694  0.1677 -0.8357
16987TIP3    H272453   2.284   0.146   3.213  1.3380  1.1858 -0.1329
16988TIP3   OH272454   1.316   1.853   0.586 -0.1152 -0.2723  0.3872
16988TIP3    H172455   1.322   1.758   0.592 -0.7891 -0.3984 -0.7345
16988TIP3    H272456   1.222   1.871   0.577  0.0479  0.4727  0.1226
16989TIP3   OH272457   3.249   1.344   1.643 -0.2244  0.0843 -0.9038
16989TIP3    H172458   3.204   1.328   1.560 -1.0122 -0.0112 -0.4766
16989TIP3    H272459   3.257   1.439   1.648 -0.8062  0.1342 -0.7810
16990TIP3   OH272460   3.601   1.618   5.182  1.0013  0.4154  0.0579
16990TIP3    H172461   3.618   1.673   5.259  2.2897  0.5642 -0.3080
16990TIP3    H272462   3.681   1.624   5.130  0.0153  0.6431 -1.5057
16991TIP3   OH272463   0.260   1.578  11.230 -0.6605  0.7880 -0.0983
16991TIP3    H172464   0.280   1.542  11.317  0.8295  0.8287 -0.3956
16991TIP3    H272465   0.285   1.670  11.236 -0.7251  0.8353 -0.5185
16992TIP3   OH272466   2.387   4.227   3.847 -0.1382  0.0493 -0.0798
16992TIP3    H172467   2.412   4.250   3.757 -1.3379  0.6771 -0.2684
16992TIP3    H272468   2.346   4.141   3.839 -1.9516  0.9070 -0.4518
16993TIP3   OH272469   5.242   4.072  13.817  0.7996  0.1081  0.1699
16993TIP3    H172470   5.213   4.142  13.759  1.5846  0.3116  0.0109
16993TIP3    H272471   5.335   4.062  13.798  0.4838 -1.8055 -0.7091
16994TIP3   OH272472   2.643   3.285   0.077  0.5204 -0.3514  0.7146
16994TIP3    H172473   2.626   3.372   0.041  2.1150 -0.7510 -1.2352
16994TIP3    H272474   2.715   3.298   0.139  0.7092 -0.2605  0.4778
16995TIP3   OH272475   0.768   6.425   4.632  0.4734 -0.5274 -0.0702
16995TIP3    H172476   0.762   6.363   4.705 -1.3783 -0.0102  0.2506
16995TIP3    H272477   0.731   6.379   4.557 -3.6415  0.9692  0.7762
16996TIP3   OH272478   3.241   3.221   0.005  0.6844 -0.0423 -0.0974
16996TIP3    H172479   3.280   3.259   0.084  0.5543 -1.2409  0.5781
16996TIP3    H272480   3.184   3.289  -0.029  2.1440  1.1698 -0.2066
16997TIP3   OH272481   7.059   2.578   3.727 -0.8921  0.6147 -0.5129
16997TIP3    H172482   7.117   2.647   3.760  1.0789 -0.8523 -0.7289
16997TIP3    H272483   6.975   2.623   3.711  0.9373  3.5658 -3.0483
16998TIP3   OH272484   6.903   1.948   4.094 -0.0426  0.5597 -0.1366
16998TIP3    H172485   6.863   1.862   4.081  1.2256 -0.1164  0.3035
16998TIP3    H272486   6.996   1.930   4.107  0.3775  2.0673 -0.8138
16999TIP3   OH272487   3.778   2.301   3.065  0.0171 -0.7043 -0.0482
16999TIP3    H172488   3.801   2.210   3.051 -1.2021 -1.5903  2.9899
16999TIP3    H272489   3.839   2.332   3.131  1.1047  1.0882 -1.7743
17000TIP3   OH272490   3.488   2.644   4.503  0.2678 -0.7389 -0.1914
17000TIP3    H172491   3.436   2.680   4.432  0.5887 -0.1086 -0.1171
17000TIP3    H272492   3.467   2.550   4.504 -0.9495 -0.4718 -0.0690
17001TIP3   OH272493   6.028   5.583  12.881 -0.3590  0.5747 -0.0694
17001TIP3    H172494   5.946   5.595  12.833 -0.2784  1.2008 -0.0665
17001TIP3    H272495   6.080   5.660  12.858  0.7286 -0.4150 -1.0619
17002TIP3   OH272496   3.425   2.957   4.320  0.0851  0.0846  0.1724
17002TIP3    H172497   3.354   3.021   4.326  0.1803  0.3356 -1.0925
17002TIP3    H272498   3.393   2.890   4.260  0.4342 -0.4793  0.5950
17003TIP3   OH272499   0.928   1.384   3.305 -0.6383 -0.0848  0.0369
17003TIP3    H172500   0.996   1.443   3.335 -0.1293 -0.7145  0.1431
17003TIP3    H272501   0.969   1.297   3.305 -0.2930 -0.0427 -3.3356
17004TIP3   OH272502   1.781   4.002   4.608  0.0157  0.6280  0.0883
17004TIP3    H172503   1.816   4.091   4.612 -0.0649  0.6038  1.9030
17004TIP3    H272504   1.833   3.960   4.540  1.6037  1.4172  0.7497
17005TIP3   OH272505   5.051   2.642   2.032  0.0578 -0.0949 -0.3821
17005TIP3    H172506   5.140   2.645   1.997 -0.0156 -1.1450 -0.7127
17005TIP3    H272507   5.035   2.548   2.045 -0.9339  0.1031 -0.1589
17006TIP3   OH272508   4.499   6.322   3.610 -0.1306 -0.0941  0.4888
17006TIP3    H172509   4.463   6.349   3.695  2.7474  0.7941  1.5728
17006TIP3    H272510   4.563   6.254   3.632  0.0662 -0.4454 -1.0851
17007TIP3   OH272511   4.455   3.639  10.209  0.1208  0.6613 -0.6588
17007TIP3    H172512   4.527   3.594  10.166  0.1574 -0.2285  0.2655
17007TIP3    H272513   4.492   3.722  10.239  0.4484  0.6980 -1.1524
17008TIP3   OH272514   3.744   5.168   2.970 -0.7054 -0.5387  0.6638
17008TIP3    H172515   3.736   5.240   2.908  1.2082 -0.4386  0.4580
17008TIP3    H272516   3.694   5.096   2.931 -0.7934 -0.0036 -0.2299
17009TIP3   OH272517   4.541   4.376   3.211 -0.5732  0.5544  0.4833
17009TIP3    H172518   4.483   4.453   3.204 -0.8979  0.2442 -0.4383
17009TIP3    H272519   4.581   4.384   3.298 -1.8543  0.8863  1.0736
17010TIP3   OH272520   3.246   5.360   2.058 -0.3572 -0.0967 -1.0892
17010TIP3    H172521   3.223   5.313   1.978  0.0189 -1.1466 -0.6073
17010TIP3    H272522   3.201   5.311   2.128  1.1240 -0.5850 -0.4305
17011TIP3   OH272523   3.970   1.050   4.313 -0.3727 -0.0740  0.3581
17011TIP3    H172524   3.977   0.955   4.315  0.9234  0.0052  0.8819
17011TIP3    H272525   4.050   1.081   4.356  1.1179  1.3075 -3.0227
17012TIP3   OH272526   5.039   1.092   0.628 -0.5183 -0.9335  0.2065
17012TIP3    H172527   5.087   1.173   0.612 -0.7900 -1.1779 -2.2468
17012TIP3    H272528   5.101   1.023   0.605  0.2322 -1.5861  3.6940
17013TIP3   OH272529   1.622   6.577  15.046  0.2116 -0.0393  0.2824
17013TIP3    H172530   1.666   6.654  15.011  2.1166 -1.2581 -0.1964
17013TIP3    H272531   1.656   6.569  15.135 -1.3918  0.6633  0.9999
17014TIP3   OH272532   1.551   2.768  11.505  0.2793  0.2778 -0.1289
17014TIP3    H172533   1.499   2.748  11.428  0.6748 -0.0904 -0.3018
17014TIP3    H272534   1.493   2.747  11.579 -0.2470  1.0203 -0.3164
17015TIP3   OH272535   3.204   2.065   3.350 -0.7503  0.1906  0.4374
17015TIP3    H172536   3.251   2.133   3.398 -1.0576 -1.3879  3.1843
17015TIP3    H272537   3.124   2.050   3.401 -1.3086 -1.3008 -0.8007
17016TIP3   OH272538   2.558   5.608   3.940  0.2293 -0.2183 -0.0618
17016TIP3    H172539   2.628   5.551   3.910 -0.0279  0.1426 -1.4155
17016TIP3    H272540   2.591   5.696   3.927 -0.5136 -0.0430 -0.8487
17017TIP3   OH272541   5.060   2.540  14.398 -0.2456  0.7242 -0.2636
17017TIP3    H172542   5.038   2.479  14.468 -1.5731  1.9902  0.4742
17017TIP3    H272543   5.105   2.612  14.443 -1.1207  1.5564 -0.6749
17018TIP3   OH272544   1.976   0.307   1.901  0.4017 -0.2694  0.0325
17018TIP3    H172545   1.962   0.366   1.828  0.4614 -2.0477 -1.5126
17018TIP3    H272546   1.969   0.219   1.863  0.4034 -1.2846  2.1739
17019TIP3   OH272547   1.879   6.486  12.575 -0.2019 -0.4122  0.3864
17019TIP3    H172548   1.971   6.486  12.549  0.4175 -0.8084  2.3948
17019TIP3    H272549   1.831   6.514  12.497  1.5308 -1.0965 -0.9792
17020TIP3   OH272550   2.194   3.240   3.792  0.4887 -0.1023  0.6563
17020TIP3    H172551   2.230   3.221   3.705 -0.8202  1.0984 -0.1933
17020TIP3    H272552   2.249   3.310   3.827 -0.5213  1.2410 -0.3418
17021TIP3   OH272553   2.973   5.558   3.138 -0.2782 -0.1071  0.5897
17021TIP3    H172554   3.018   5.475   3.128 -0.6189 -0.2639  0.3366
17021TIP3    H272555   3.007   5.595   3.219  0.4163 -0.1535  0.3317
17022TIP3   OH272556   3.106   3.554   5.193  0.1980 -0.5957  0.1814
17022TIP3    H172557   3.060   3.634   5.218  1.9184  0.8857 -1.1478
17022TIP3    H272558   3.131   3.514   5.276  1.3846  1.5332  0.9114
17023TIP3   OH272559   3.818   5.804   3.837  0.2468 -0.1520  1.0781
17023TIP3    H172560   3.848   5.723   3.795  0.2414 -0.3332  1.4219
17023TIP3    H272561   3.739   5.779   3.885 -0.2975  0.2621  0.4248
17024TIP3   OH272562   2.512   5.859   2.069  0.5564 -0.0379 -0.5714
17024TIP3    H172563   2.536   5.806   1.993 -1.1661 -1.1550 -0.3875
17024TIP3    H272564   2.532   5.949   2.042 -0.7380 -0.3117 -2.7020
17025TIP3   OH272565   6.694   7.091   0.369  0.3361  0.1048 -0.1550
17025TIP3    H172566   6.649   7.102   0.452  0.9331 -0.4022  0.2444
17025TIP3    H272567   6.626   7.060   0.309 -0.3554  1.5810 -0.1680
17026TIP3   OH272568   3.338   4.188   1.740 -0.1429  0.1254  0.0905
17026TIP3    H172569   3.353   4.136   1.819  0.8938  0.3780  0.0689
17026TIP3    H272570   3.305   4.272   1.773  1.9838  0.8966  0.4181
17027TIP3   OH272571   6.605   2.437  11.494 -0.2504  0.1758 -0.8390
17027TIP3    H172572   6.601   2.518  11.544 -1.4517 -0.3147 -0.1046
17027TIP3    H272573   6.537   2.381  11.532  1.1220 -1.5234 -0.7287
17028TIP3   OH272574   0.906   6.485  13.980 -0.3356 -0.6061  0.1983
17028TIP3    H172575   0.981   6.509  13.925  0.2996 -0.1201  1.2375
17028TIP3    H272576   0.934   6.507  14.069 -0.6819 -2.8630  0.9340
17029TIP3   OH272577   3.190   1.607   4.262  0.5462 -0.0101 -0.3926
17029TIP3    H172578   3.169   1.644   4.176  0.5148  0.3673 -0.2236
17029TIP3    H272579   3.109   1.565   4.290  0.8177 -0.9358 -0.9494
17030TIP3   OH272580   2.381   5.885   1.427  0.3752 -0.1030 -0.0062
17030TIP3    H172581   2.342   5.830   1.358  1.1936  0.2331 -0.7663
17030TIP3    H272582   2.352   5.845   1.509  0.1627 -1.0960 -0.5454
17031TIP3   OH272583   2.080   2.561   0.068  0.0457  0.0946 -0.7969
17031TIP3    H172584   2.094   2.639   0.122  0.6114 -0.5330 -0.0258
17031TIP3    H272585   2.103   2.488   0.124 -0.4370 -0.6411 -1.5323
17032TIP3   OH272586   0.148   2.941   4.214 -0.3868 -0.2705  0.4938
17032TIP3    H172587   0.065   2.923   4.170  0.1738  0.1845 -0.8124
17032TIP3    H272588   0.141   3.032   4.243 -0.2194 -0.1114  0.0513
17033TIP3   OH272589   1.383   3.685   5.346 -0.0037 -0.2829  0.0654
17033TIP3    H172590   1.453   3.738   5.384 -1.2157  0.9085  0.7452
17033TIP3    H272591   1.329   3.659   5.421 -1.3335  0.4347 -0.6038
17034TIP3   OH272592   5.944   4.998   2.567  0.4388 -0.0631  0.1773
17034TIP3    H172593   5.955   5.010   2.473  0.5877  0.5479  0.2672
17034TIP3    H272594   5.863   4.949   2.576  0.6382 -0.4786 -0.2875
17035TIP3   OH272595   4.853   1.205   0.848  0.0492  0.2277  0.3137
17035TIP3    H172596   4.861   1.216   0.943 -0.2964 -2.8987  0.8207
17035TIP3    H272597   4.940   1.178   0.819  0.3034  1.7438 -0.3861
17036TIP3   OH272598   0.826   6.326  15.468 -0.4740 -0.1059  0.3954
17036TIP3    H172599   0.803   6.317  15.561 -0.7075 -0.3356  0.3149
17036TIP3    H272600   0.742   6.341  15.424 -0.4711 -0.9273  0.0987
17037TIP3   OH272601   4.650   3.857   2.228 -0.2345  0.0392 -0.1174
17037TIP3    H172602   4.614   3.774   2.198 -0.8000  0.3083 -0.1883
17037TIP3    H272603   4.618   3.922   2.166 -1.2741  0.5755  0.9445
17038TIP3   OH272604   6.856   0.221  10.927 -0.0778  0.5742  0.5628
17038TIP3    H172605   6.763   0.210  10.947 -0.4037  1.4389 -0.3658
17038TIP3    H272606   6.892   0.265  11.004 -0.6876  1.2666  0.4658
17039TIP3   OH272607   6.941   4.045  12.041 -0.5655 -0.4790 -0.5075
17039TIP3    H172608   6.849   4.058  12.065 -0.0815 -0.8888  1.7386
17039TIP3    H272609   6.987   4.039  12.124  1.4848 -0.5483 -1.5905
17040TIP3   OH272610   4.712   5.313   3.231 -0.5657 -0.1503 -0.3210
17040TIP3    H172611   4.656   5.238   3.210  1.6402 -1.4135 -1.9844
17040TIP3    H272612   4.776   5.279   3.293 -1.4007  1.2378  1.4177
17041TIP3   OH272613   0.298   2.710  15.431  0.0755  0.7619 -0.1182
17041TIP3    H172614   0.367   2.646  15.415 -0.4052  0.2748 -0.2549
17041TIP3    H272615   0.302   2.768  15.355 -0.1215  0.3229 -0.4653
17042TIP3   OH272616   4.027   6.216  14.463 -0.2192 -0.2141 -0.0936
17042TIP3    H172617   4.094   6.283  14.454  1.3763 -1.6394  0.5248
17042TIP3    H272618   3.948   6.255  14.425  0.5713  2.0516  0.4283
17043TIP3   OH272619   5.293   2.791   4.227 -0.2242  0.1170  0.4780
17043TIP3    H172620   5.212   2.745   4.250 -0.7822  0.3914 -0.8003
17043TIP3    H272621   5.307   2.768   4.135  0.9774  0.3449  0.5985
17044TIP3   OH272622   3.738   6.319   3.016 -0.2856 -0.1089  0.3383
17044TIP3    H172623   3.789   6.386   2.970 -0.1119  1.7378  2.9359
17044TIP3    H272624   3.791   6.298   3.093 -3.0297  1.6200  2.9849
17045TIP3   OH272625   1.258   2.128   1.556  0.1446 -0.8384  0.9106
17045TIP3    H172626   1.245   2.036   1.535 -0.0923 -0.5778 -0.1466
17045TIP3    H272627   1.353   2.136   1.567  0.3608 -0.9103 -0.6189
17046TIP3   OH272628   6.685   6.680   1.323  0.1713 -0.1535 -0.3940
17046TIP3    H172629   6.752   6.744   1.300  0.7918 -1.0122 -1.0812
17046TIP3    H272630   6.671   6.691   1.417  0.5962  0.6672 -0.4211
17047TIP3   OH272631   0.662   3.462   2.818 -0.3798  0.1397 -0.6003
17047TIP3    H172632   0.657   3.493   2.909 -1.6586 -0.8838 -0.2886
17047TIP3    H272633   0.622   3.375   2.821 -1.8151  0.6865 -2.4031
17048TIP3   OH272634   4.307   5.064   0.482 -0.3547 -0.0324  0.0703
17048TIP3    H172635   4.370   5.041   0.549 -0.2924  0.2623  0.1122
17048TIP3    H272636   4.279   5.153   0.503  0.2278  0.3493 -0.7232
17049TIP3   OH272637   6.829   4.449   0.004  0.0117 -0.0829  0.0102
17049TIP3    H172638   6.768   4.447  -0.070 -2.1859  0.1096  1.7165
17049TIP3    H272639   6.819   4.536   0.042  0.4128 -0.4810  1.0902
17050TIP3   OH272640   5.187   2.110   3.202  0.2310  0.1792 -0.5635
17050TIP3    H172641   5.194   2.085   3.110  2.2515  0.4076 -0.5151
17050TIP3    H272642   5.227   2.037   3.250 -0.2860  0.3225  0.1117
17051TIP3   OH272643   1.452   0.247   5.475 -0.0997 -0.6281  0.3297
17051TIP3    H172644   1.531   0.225   5.523 -1.3380 -0.7418  2.4120
17051TIP3    H272645   1.411   0.317   5.526 -2.8306 -2.5824  1.0189
17052TIP3   OH272646   0.275   1.314  12.941 -0.2693 -0.3466 -0.0712
17052TIP3    H172647   0.248   1.405  12.949  0.5652 -0.0343 -0.6964
17052TIP3    H272648   0.339   1.314  12.870 -2.3426 -1.8703 -2.0747
17053TIP3   OH272649   0.992   0.991   3.178  0.4943  0.2897  0.3048
17053TIP3    H172650   0.907   0.951   3.161  0.2750  0.0099  1.8896
17053TIP3    H272651   1.036   0.929   3.238  2.0097  0.1933 -0.8374
17054TIP3   OH272652   2.505   2.252   2.832 -0.2635 -0.0292  0.0397
17054TIP3    H172653   2.440   2.198   2.877 -0.6842 -0.8980 -1.5402
17054TIP3    H272654   2.463   2.338   2.823 -0.0467  0.2623  1.5334
17055TIP3   OH272655   5.982   6.167  12.507  0.0833  0.2428  0.1972
17055TIP3    H172656   5.955   6.091  12.457  1.1624 -1.0529  1.5020
17055TIP3    H272657   5.919   6.236  12.483 -0.3254 -0.7487 -1.7306
17056TIP3   OH272658   1.667   4.242   5.363  0.7182  0.6564  0.6426
17056TIP3    H172659   1.635   4.281   5.445  0.9242  0.1246  0.9838
17056TIP3    H272660   1.747   4.197   5.388  0.2693 -0.3354  0.3573
17057TIP3   OH272661   1.513   2.925  13.461  0.1428  0.0371  0.1078
17057TIP3    H172662   1.440   2.987  13.458  0.1984  0.0817 -0.3829
17057TIP3    H272663   1.584   2.971  13.416  0.8023  0.4149  1.4812
17058TIP3   OH272664   1.934   6.860   3.907  0.5635  0.4408  0.3072
17058TIP3    H172665   1.953   6.953   3.897  0.5376  0.4627  0.4504
17058TIP3    H272666   1.978   6.818   3.834  1.0290  0.5065  0.5441
17059TIP3   OH272667   4.252   2.925  12.021  0.1140 -0.5809 -0.2037
17059TIP3    H172668   4.265   2.916  11.927 -1.5157  0.5338 -0.5759
17059TIP3    H272669   4.320   2.987  12.049 -0.8090  0.8546 -1.0730
17060TIP3   OH272670   0.740   6.656   4.468 -0.0979  0.0321  0.2670
17060TIP3    H172671   0.653   6.695   4.464  0.3356  1.0204  0.1912
17060TIP3    H272672   0.733   6.587   4.534 -1.0341 -0.1503 -0.0159
17061TIP3   OH272673   6.401   2.611   4.965  0.4649  0.1227  0.2559
17061TIP3    H172674   6.334   2.606   4.897 -0.5199  2.1564  1.0141
17061TIP3    H272675   6.481   2.636   4.918  0.1671 -0.0282 -0.3394
17062TIP3   OH272676   2.607   3.078  14.086  0.4185  0.9643 -0.1901
17062TIP3    H172677   2.571   3.150  14.138 -2.9876 -0.7246  0.0660
17062TIP3    H272678   2.605   3.002  14.143 -0.4320 -0.2816 -1.7897
17063TIP3   OH272679   3.279   3.516  14.982  0.0383  0.0532  0.1444
17063TIP3    H172680   3.280   3.590  15.043  0.7117  1.9623 -2.0337
17063TIP3    H272681   3.282   3.556  14.895 -0.9992 -2.5322 -1.1962
17064TIP3   OH272682   0.146   1.351   1.938 -0.2188  0.0736  0.5250
17064TIP3    H172683   0.076   1.305   1.985 -0.2782 -0.9795 -0.5311
17064TIP3    H272684   0.192   1.400   2.006 -1.0324 -0.4429  1.4855
17065TIP3   OH272685   3.804   2.581   3.603 -0.7621 -0.2077  0.4716
17065TIP3    H172686   3.882   2.563   3.549 -1.0955  0.6742 -0.3221
17065TIP3    H272687   3.830   2.553   3.691 -0.1997 -1.6760 -0.1179
17066TIP3   OH272688   2.729   4.759   1.840 -0.3036  0.0103  0.5591
17066TIP3    H172689   2.717   4.667   1.819  1.1595  0.3824 -2.6545
17066TIP3    H272690   2.669   4.805   1.781 -0.1122  1.1261  1.1982
17067TIP3   OH272691   5.372   2.057  13.980  0.3650 -0.4984  0.2571
17067TIP3    H172692   5.441   1.993  13.959  0.5636 -0.0671 -0.4469
17067TIP3    H272693   5.297   2.003  14.005  0.8947 -0.9826  0.8735
17068TIP3   OH272694   6.352   5.287   4.170  0.0075  0.5410 -0.0540
17068TIP3    H172695   6.407   5.365   4.167  0.6188  0.1194 -0.2288
17068TIP3    H272696   6.291   5.303   4.242 -0.7212  1.7059 -0.8911
17069TIP3   OH272697   3.872   1.382   4.508 -0.2542 -0.3839  0.7600
17069TIP3    H172698   3.937   1.423   4.451 -0.1404  1.2989  1.9997
17069TIP3    H272699   3.919   1.366   4.590 -0.9053 -0.9702  1.0287
17070TIP3   OH272700   3.007   0.514   4.079  0.2063 -0.1863 -0.9300
17070TIP3    H172701   3.073   0.493   4.013  0.3828 -0.3793 -0.6972
17070TIP3    H272702   2.970   0.597   4.051  0.5611 -0.0673 -1.0573
17071TIP3   OH272703   5.284   3.983   2.429  0.0105  0.0218  0.4725
17071TIP3    H172704   5.195   3.957   2.404 -1.1484 -0.2610  4.2197
17071TIP3    H272705   5.298   4.066   2.384 -2.2535  0.1894 -0.0680
17072TIP3   OH272706   6.324   6.212   4.154 -0.1195  0.2078 -0.3759
17072TIP3    H172707   6.260   6.227   4.085  0.6886  1.5494 -0.8799
17072TIP3    H272708   6.281   6.152   4.214 -1.4809  0.3388 -1.1750
17073TIP3   OH272709   4.211   1.012   2.099  0.3430  0.5264  0.2296
17073TIP3    H172710   4.179   1.002   2.188 -0.9910 -0.3825 -0.3109
17073TIP3    H272711   4.164   1.087   2.064 -0.4653 -0.1746 -0.2356
17074TIP3   OH272712   3.415   3.802  13.637  0.1154  0.1495  0.0950
17074TIP3    H172713   3.471   3.879  13.635 -0.3253  0.4679 -0.5104
17074TIP3    H272714   3.380   3.800  13.726  1.3316 -0.2448  0.5825
17075TIP3   OH272715   7.014   5.755   4.267 -0.7605  0.0162 -0.4857
17075TIP3    H172716   6.958   5.820   4.310  1.8738  2.0069  0.2030
17075TIP3    H272717   7.050   5.801   4.191  2.0954 -0.1093  0.6701
17076TIP3   OH272718   1.129   6.677   5.568 -0.0788  0.0250  0.2112
17076TIP3    H172719   1.122   6.582   5.575  0.3867 -0.0687 -0.5283
17076TIP3    H272720   1.082   6.699   5.487  1.9454  0.1377 -0.9790
17077TIP3   OH272721   4.762   5.745   5.593 -0.0970  0.0952  0.3693
17077TIP3    H172722   4.794   5.685   5.526 -1.3279 -1.7757  1.3709
17077TIP3    H272723   4.836   5.803   5.611  2.3461 -3.0518  1.5231
17078TIP3   OH272724   2.247   5.358   4.295  0.0082 -0.2234  0.1334
17078TIP3    H172725   2.261   5.274   4.339  0.9580 -1.1884 -1.9039
17078TIP3    H272726   2.300   5.420   4.346 -0.1684 -0.9698  1.2712
17079TIP3   OH272727   5.251   6.609   0.001  0.2110 -0.6349  0.0943
17079TIP3    H172728   5.333   6.647   0.032  0.7656 -2.6573  1.3206
17079TIP3    H272729   5.196   6.603   0.080 -0.9639  0.2935 -0.6269
17080TIP3   OH272730   2.184   5.732   2.003  0.1466  0.4042  0.5266
17080TIP3    H172731   2.206   5.797   1.936 -1.7023  0.1296 -0.4218
17080TIP3    H272732   2.197   5.648   1.959  0.2366  0.1848  0.9690
17081TIP3   OH272733   3.634   6.641  12.639  0.0970  0.1097 -0.6108
17081TIP3    H172734   3.550   6.600  12.662 -0.0331  1.0709  0.7329
17081TIP3    H272735   3.692   6.621  12.713  0.5389  0.8852 -0.7339
17082TIP3   OH272736   1.899   4.652   2.839 -0.3496  0.4442  0.5488
17082TIP3    H172737   1.888   4.630   2.931 -2.2884 -2.0866 -0.1693
17082TIP3    H272738   1.931   4.571   2.799 -0.0474  1.3314 -1.0916
17083TIP3   OH272739   0.392   5.605   3.744  0.0493 -0.4831 -0.3105
17083TIP3    H172740   0.344   5.688   3.745 -0.6215 -0.8268 -1.7809
17083TIP3    H272741   0.335   5.544   3.790  0.1333 -0.3504 -0.0268
17084TIP3   OH272742   5.630   6.300   4.106 -0.5661  0.1722  0.3932
17084TIP3    H172743   5.574   6.246   4.161 -1.0318  0.9646  0.7156
17084TIP3    H272744   5.700   6.329   4.165  1.1004 -2.0475 -0.3597
17085TIP3   OH272745   0.675   5.365  12.337  0.1420  0.1156  0.3754
17085TIP3    H172746   0.584   5.370  12.308  0.5271 -0.9103 -1.1367
17085TIP3    H272747   0.669   5.364  12.433 -1.3534  1.1693  0.3294
17086TIP3   OH272748   7.095   1.771   0.976 -0.2804  0.3022  0.1219
17086TIP3    H172749   7.040   1.789   1.052 -1.1330 -2.3942  0.2157
17086TIP3    H272750   7.183   1.757   1.012 -0.7719 -1.4489  0.7314
17087TIP3   OH272751   5.766   1.476   5.367  0.0544 -0.1227 -0.0856
17087TIP3    H172752   5.776   1.507   5.457  0.9799  1.7841 -0.7767
17087TIP3    H272753   5.708   1.401   5.373  0.7167 -0.5169  2.1878
17088TIP3   OH272754   6.368   1.285   3.984  0.0390  0.5176  0.2007
17088TIP3    H172755   6.289   1.246   3.946  0.1230  0.3633  0.1848
17088TIP3    H272756   6.394   1.224   4.053  2.5093 -1.6774 -2.4201
17089TIP3   OH272757   3.648   4.477   0.819  0.1271 -0.1319  0.6100
17089TIP3    H172758   3.715   4.487   0.752 -0.2624 -0.4259  0.1750
17089TIP3    H272759   3.583   4.419   0.780 -1.2001  1.4255  0.4117
17090TIP3   OH272760   6.302   6.298   3.478  0.3299  0.4074  0.7411
17090TIP3    H172761   6.240   6.367   3.457  1.3062  1.6913  1.9091
17090TIP3    H272762   6.249   6.218   3.479 -0.9738  1.2237  0.1136
17091TIP3   OH272763   5.265   4.665  10.593  0.5570  0.7099 -0.5434
17091TIP3    H172764   5.307   4.724  10.655 -0.6485  2.6170 -1.4365
17091TIP3    H272765   5.324   4.662  10.518 -0.5462  3.0114 -1.6011
17092TIP3   OH272766   5.940   1.937  14.139 -0.3285 -0.1206 -0.5672
17092TIP3    H172767   5.931   1.967  14.230  2.5239 -1.3074  0.1968
17092TIP3    H272768   5.889   1.855  14.137 -0.9653  0.2520 -0.2572
17093TIP3   OH272769   1.078   1.583  13.622 -0.0110  0.4754 -0.2579
17093TIP3    H172770   1.150   1.635  13.659  1.1816 -0.7246 -0.8013
17093TIP3    H272771   1.005   1.597  13.682 -0.6019  4.6848 -1.6019
17094TIP3   OH272772   0.045   6.169   1.647 -0.2135  0.6234 -0.2913
17094TIP3    H172773   0.071   6.182   1.555 -1.5046 -0.4314 -0.8388
17094TIP3    H272774  -0.029   6.108   1.642 -0.5650  0.8779  1.4349
17095TIP3   OH272775   4.012   2.161  13.498  0.8520  0.2188 -0.8510
17095TIP3    H172776   4.036   2.198  13.413  1.1845  1.1348 -0.3738
17095TIP3    H272777   4.093   2.122  13.530  0.9255  0.5523 -0.6228
17096TIP3   OH272778   2.252   5.837   5.435  0.2744 -0.3932  0.3921
17096TIP3    H172779   2.307   5.808   5.362 -0.2308  2.6509 -1.3600
17096TIP3    H272780   2.279   5.928   5.451 -1.7736  0.0191  1.9440
17097TIP3   OH272781   4.423   6.863   2.312  0.0292  0.0287  0.0906
17097TIP3    H172782   4.358   6.797   2.287 -0.1069  0.2386 -0.1146
17097TIP3    H272783   4.376   6.919   2.374  0.0392  0.1292  0.0080
17098TIP3   OH272784   2.069   4.889   5.161  0.0365 -0.5218 -0.5091
17098TIP3    H172785   2.056   4.889   5.066  3.5983  1.7539 -1.1702
17098TIP3    H272786   2.142   4.830   5.175  0.2494  0.0048  0.6729
17099TIP3   OH272787   3.027   1.569  12.689  0.8030  0.5945  0.4044
17099TIP3    H172788   3.036   1.651  12.737  0.1093  1.6157 -1.1325
17099TIP3    H272789   2.937   1.541  12.706  0.7055  0.7105  0.0818
17100TIP3   OH272790   2.494   4.628  13.816 -1.1056  0.0929  0.8540
17100TIP3    H172791   2.422   4.668  13.767 -0.1477  0.8186 -0.0034
17100TIP3    H272792   2.570   4.682  13.796  0.4961 -2.6312 -1.1579
17101TIP3   OH272793   3.716   5.551  15.549 -0.1715  0.2876  0.3046
17101TIP3    H172794   3.696   5.518  15.636  0.6407 -0.0501  0.3740
17101TIP3    H272795   3.631   5.556  15.505 -0.5233 -0.0631  0.9292
17102TIP3   OH272796   6.762   6.743   0.234 -0.4273  0.2089  0.3592
17102TIP3    H172797   6.843   6.755   0.184 -0.4447 -0.6309  0.1215
17102TIP3    H272798   6.786   6.765   0.324  0.2039 -0.5329  0.3817
17103TIP3   OH272799   3.772   7.004   1.573 -0.1220  0.0844  0.3173
17103TIP3    H172800   3.798   6.971   1.487  1.5609 -0.6069  1.0581
17103TIP3    H272801   3.759   6.925   1.626  0.8195  0.5215  1.2316
17104TIP3   OH272802   4.925   3.521   3.933 -0.0529  0.2108 -0.2563
17104TIP3    H172803   4.919   3.439   3.981  2.5086  0.1205  0.0153
17104TIP3    H272804   4.866   3.581   3.980 -1.8889 -1.3810 -0.4175
17105TIP3   OH272805   6.548   3.849   3.987  0.0632  0.3452 -0.0364
17105TIP3    H172806   6.580   3.763   3.958  2.3374  0.7565  1.0109
17105TIP3    H272807   6.532   3.897   3.905 -0.4653 -0.7844 -0.6225
17106TIP3   OH272808   0.958   4.196   1.649 -0.0599  0.5050  0.1481
17106TIP3    H172809   0.901   4.269   1.672 -1.8714 -0.5694 -0.7502
17106TIP3    H272810   1.012   4.182   1.727  0.5733  2.9587  0.2444
17107TIP3   OH272811   1.932   6.051   2.727  0.5139 -0.1997  0.2074
17107TIP3    H172812   1.982   6.040   2.808  1.8328  1.0416 -0.3842
17107TIP3    H272813   1.887   5.968   2.715  0.5383 -0.5196  2.0406
17108TIP3   OH272814   5.550   4.646   4.217  0.1802  0.0376  0.6885
17108TIP3    H172815   5.526   4.583   4.285 -0.3646  0.9745  1.3961
17108TIP3    H272816   5.467   4.679   4.184  0.4509  0.5468  0.4914
17109TIP3   OH272817   3.321   3.525   2.974  0.5496 -0.7603 -0.4739
17109TIP3    H172818   3.414   3.511   2.989  0.8901  0.5536 -1.1193
17109TIP3    H272819   3.279   3.505   3.057  1.5376 -0.3481  0.1398
17110TIP3   OH272820   5.014   3.271  15.106  0.6479  0.1242  0.1401
17110TIP3    H172821   5.109   3.264  15.108  0.6016 -1.0336 -0.5868
17110TIP3    H272822   4.982   3.190  15.147  0.0028 -0.1695 -0.8880
17111TIP3   OH272823   5.746   5.863   3.056  0.4821 -0.8410 -0.2491
17111TIP3    H172824   5.753   5.849   3.150  1.1296 -1.5837 -0.3897
17111TIP3    H272825   5.821   5.919   3.034  0.5875 -1.0269 -0.3766
17112TIP3   OH272826   0.982   3.086  11.368 -0.3092 -0.0079  0.1155
17112TIP3    H172827   0.915   3.084  11.437  0.2060 -1.7686  0.6267
17112TIP3    H272828   1.065   3.088  11.416  0.0459 -0.8340 -0.4519
17113TIP3   OH272829   3.587   2.008  15.585 -0.3949  0.2617 -0.3099
17113TIP3    H172830   3.525   1.938  15.605 -1.0491  0.8581 -0.1788
17113TIP3    H272831   3.669   1.963  15.566 -1.1796 -0.6513 -1.7906
17114TIP3   OH272832   2.248   2.401  15.361 -0.2448  0.3906  0.2469
17114TIP3    H172833   2.249   2.362  15.449 -1.3273 -0.7199 -0.2044
17114TIP3    H272834   2.173   2.361  15.318 -0.2954  1.6343 -0.8852
17115TIP3   OH272835   1.209   2.537  11.915  0.1735 -0.6058 -0.3908
17115TIP3    H172836   1.127   2.585  11.918 -0.4165 -1.6034  0.3000
17115TIP3    H272837   1.205   2.488  11.833  1.2400  1.2386 -1.6190
17116TIP3   OH272838   3.195   3.141  15.307  0.3657 -0.1087  0.1551
17116TIP3    H172839   3.154   3.107  15.228  0.3196  4.1544 -1.9672
17116TIP3    H272840   3.280   3.098  15.311 -0.8539 -2.7795 -0.2409
17117TIP3   OH272841   2.458   4.958   1.378 -0.8584 -0.0318  0.7700
17117TIP3    H172842   2.427   4.936   1.290  1.5344 -0.7116  0.0257
17117TIP3    H272843   2.513   5.036   1.365 -0.4037 -0.2012  1.6478
17118TIP3   OH272844   4.321   1.482  15.024 -0.1669  0.3641 -0.1292
17118TIP3    H172845   4.340   1.543  15.096  1.8635 -0.1852 -0.1414
17118TIP3    H272846   4.372   1.516  14.950  1.5119 -1.6197  0.0324
17119TIP3   OH272847   3.041   2.868   1.448  0.1118  0.5070  0.5263
17119TIP3    H172848   2.970   2.817   1.410  0.1566 -0.0051  1.1108
17119TIP3    H272849   3.121   2.831   1.410  0.1038  0.6242  0.3953
17120TIP3   OH272850   2.842   5.428   1.104 -0.2294 -0.5374  0.6266
17120TIP3    H172851   2.901   5.428   1.179  2.8668 -1.1834 -1.6065
17120TIP3    H272852   2.839   5.336   1.076  2.5706  0.1814 -2.6658
17121TIP3   OH272853   3.903   4.640   4.102 -1.1668 -0.6336 -0.2401
17121TIP3    H172854   3.850   4.707   4.058 -2.2895 -1.1276  0.3176
17121TIP3    H272855   3.954   4.688   4.167 -1.5408 -0.2333 -0.2371
17122TIP3   OH272856   0.217   1.851   2.246  0.4106  0.0428  0.5559
17122TIP3    H172857   0.140   1.801   2.218  0.6065 -0.1263  0.3132
17122TIP3    H272858   0.284   1.784   2.261  1.0057  0.2990 -0.8215
17123TIP3   OH272859   2.299   3.846  11.967 -0.1643 -0.5671  0.3777
17123TIP3    H172860   2.209   3.837  11.997  0.0500 -2.3896  0.5698
17123TIP3    H272861   2.292   3.873  11.876 -0.9170 -1.1021  0.2729
17124TIP3   OH272862   3.001   0.708  13.584  0.2829 -0.1594 -0.2587
17124TIP3    H172863   2.931   0.660  13.539 -0.8348  0.1334  1.0911
17124TIP3    H272864   2.984   0.800  13.562 -1.0075  0.1136  1.6212
17125TIP3   OH272865   5.509   3.309  13.480  0.0096  0.0717  0.0344
17125TIP3    H172866   5.492   3.384  13.422 -1.6218  0.9775  1.5806
17125TIP3    H272867   5.602   3.317  13.501 -0.1927  1.8907  0.4137
17126TIP3   OH272868   3.821   4.190   3.226  0.3698 -0.8184  0.5466
17126TIP3    H172869   3.904   4.234   3.245  0.4618 -0.4243 -0.6853
17126TIP3    H272870   3.755   4.240   3.275  0.7037 -0.3588  0.5342
17127TIP3   OH272871   5.102   2.341  15.192  0.3636 -0.3470 -0.3298
17127TIP3    H172872   5.096   2.255  15.233 -1.3306 -0.1242 -0.0227
17127TIP3    H272873   5.070   2.402  15.259  0.6535  0.4129 -0.8623
17128TIP3   OH272874   5.722   0.904   2.809  0.3611  0.4725 -0.4632
17128TIP3    H172875   5.675   0.835   2.762 -0.3567 -0.0868  1.0036
17128TIP3    H272876   5.712   0.881   2.901  0.4893  2.2979  0.0462
17129TIP3   OH272877   2.222   1.681   3.825 -0.1598  0.1664 -0.1560
17129TIP3    H172878   2.140   1.645   3.792 -0.8810  1.9694 -0.4101
17129TIP3    H272879   2.239   1.758   3.771  2.0090 -0.4551 -0.4601
17130TIP3   OH272880   2.248   0.864  12.202  0.1264 -0.0444  0.1081
17130TIP3    H172881   2.181   0.917  12.244 -0.5990 -0.0426 -1.0134
17130TIP3    H272882   2.314   0.927  12.173 -0.0108  0.0924  0.0910
17131TIP3   OH272883   1.747   0.755   5.416 -0.0286  0.0678 -0.1156
17131TIP3    H172884   1.698   0.804   5.482  0.2708 -0.3211  0.4036
17131TIP3    H272885   1.811   0.705   5.466 -0.5277 -1.0995 -0.6152
17132TIP3   OH272886   4.961   1.645   1.234  0.1997 -0.2716  0.0363
17132TIP3    H172887   4.898   1.587   1.192 -0.0693  0.6988 -0.9630
17132TIP3    H272888   4.940   1.732   1.199  0.0066  0.5906  2.1443
17133TIP3   OH272889   3.693   3.888   2.633 -0.2747 -0.0601  0.1022
17133TIP3    H172890   3.726   3.842   2.711  1.3905 -1.1021 -1.1572
17133TIP3    H272891   3.678   3.818   2.569  2.0087  1.0145 -1.7629
17134TIP3   OH272892   0.761   5.468   4.200  0.3601  0.5978  0.7896
17134TIP3    H172893   0.702   5.491   4.129 -1.2121  0.0457  1.8785
17134TIP3    H272894   0.794   5.381   4.176 -1.0203 -0.0712  1.2305
17135TIP3   OH272895   2.008   1.846   1.909 -0.2380 -0.4159  0.2418
17135TIP3    H172896   1.978   1.756   1.922 -0.2054 -0.2491  1.6165
17135TIP3    H272897   1.941   1.900   1.951  1.0898  0.0432  1.9042
17136TIP3   OH272898   4.726   1.389   0.090 -0.1849  0.1482 -0.3052
17136TIP3    H172899   4.757   1.319   0.146  0.7138  0.7162 -0.0752
17136TIP3    H272900   4.636   1.404   0.118  0.8948  1.9474  2.6102
17137TIP3   OH272901   3.882   4.403   0.141 -0.6152 -0.3331  0.1046
17137TIP3    H172902   3.969   4.433   0.168 -1.3712  0.7818  1.4039
17137TIP3    H272903   3.865   4.449   0.059 -1.1754  1.8248  1.3603
17138TIP3   OH272904   2.890   3.606   0.127  0.0762  0.1734  0.0807
17138TIP3    H172905   2.964   3.661   0.150  0.9415 -0.3518 -1.3370
17138TIP3    H272906   2.875   3.552   0.204  1.4573 -0.0134  0.2325
17139TIP3   OH272907   5.855   2.279   4.800  0.1808  0.0203  0.2547
17139TIP3    H172908   5.812   2.251   4.881  1.7046  0.7240  1.3665
17139TIP3    H272909   5.810   2.231   4.731 -2.0560  0.3898  1.3644
17140TIP3   OH272910   2.927   0.910   2.500 -0.5802  0.1245  0.5435
17140TIP3    H172911   2.965   0.933   2.585 -2.4474  1.8155  0.9916
17140TIP3    H272912   2.967   0.971   2.438  2.0387 -2.1721 -0.2084
17141TIP3   OH272913   0.377   1.485   4.106  0.1140  0.4070 -0.9296
17141TIP3    H172914   0.335   1.439   4.034  0.7120 -1.0552 -0.3746
17141TIP3    H272915   0.306   1.534   4.149 -0.8627 -1.2545 -0.5802
17142TIP3   OH272916   0.426   2.446  14.760  0.3790 -0.8288  0.8032
17142TIP3    H172917   0.336   2.448  14.727 -0.2346 -1.2885  2.3260
17142TIP3    H272918   0.462   2.531  14.736 -1.5103  0.6530  2.8116
17143TIP3   OH272919   5.824   5.379  14.613  0.0816  0.2376 -0.8594
17143TIP3    H172920   5.888   5.317  14.581  0.6499  1.8780 -3.1728
17143TIP3    H272921   5.747   5.326  14.634  1.5986 -1.5676  0.4642
17144TIP3   OH272922   0.040   0.692   3.739  0.0225 -0.1905  0.5780
17144TIP3    H172923  -0.046   0.733   3.728  0.4463  0.3452 -1.0994
17144TIP3    H272924   0.027   0.626   3.808 -1.5564  0.3266  0.8113
17145TIP3   OH272925   0.085   6.460   1.586  0.3032  0.9775 -0.3750
17145TIP3    H172926   0.025   6.388   1.607  1.2362 -0.0346 -1.0848
17145TIP3    H272927   0.171   6.428   1.612  0.7924  1.6722 -1.0894
17146TIP3   OH272928   2.000   3.527   4.825  0.5134  0.4288 -0.1755
17146TIP3    H172929   1.960   3.589   4.764 -0.8700 -1.6970 -1.5368
17146TIP3    H272930   1.953   3.543   4.908 -1.0835  0.0527 -0.9641
17147TIP3   OH272931   2.908   4.046   2.093  0.3497 -0.0477  0.6618
17147TIP3    H172932   2.947   3.959   2.098  0.0553 -0.1341  2.1042
17147TIP3    H272933   2.922   4.083   2.181  1.3903  1.7729 -0.2187
17148TIP3   OH272934   1.134   4.546   4.743  0.4614 -0.0018  0.1163
17148TIP3    H172935   1.201   4.612   4.764  1.1177 -0.8145  0.6137
17148TIP3    H272936   1.051   4.594   4.748  0.9693  0.9379 -0.1445
17149TIP3   OH272937   0.727   2.936  11.272 -0.6912 -0.0565 -0.3190
17149TIP3    H172938   0.745   2.870  11.205  2.0433  0.0490  0.1606
17149TIP3    H272939   0.764   3.017  11.235 -0.0265  0.2094  0.8760
17150TIP3   OH272940   6.631   5.735   5.347 -0.4241  0.3002  0.2078
17150TIP3    H172941   6.601   5.793   5.277 -1.9771 -0.0585  0.5593
17150TIP3    H272942   6.643   5.650   5.303  2.3978  0.9190 -0.4356
17151TIP3   OH272943   4.988   2.323   2.961  0.4176  0.4054 -0.0654
17151TIP3    H172944   5.081   2.316   2.939  0.5829  0.9757  0.4375
17151TIP3    H272945   4.954   2.234   2.951  1.0422  0.1696 -0.1234
17152TIP3   OH272946   6.155   5.168   5.101  0.0833 -0.5869  0.2264
17152TIP3    H172947   6.204   5.138   5.024  1.6451 -1.2719  1.4212
17152TIP3    H272948   6.214   5.150   5.174 -1.1001  0.6396  1.5235
17153TIP3   OH272949   1.986   3.061   4.547 -0.4449  0.3019 -1.0413
17153TIP3    H172950   2.020   2.972   4.552  0.1166  0.5342 -0.6662
17153TIP3    H272951   1.954   3.080   4.635 -0.8671  0.3557 -1.2027
17154TIP3   OH272952   0.232   0.880   2.403  0.7131 -0.1914 -0.3941
17154TIP3    H172953   0.287   0.829   2.462 -0.7945 -1.9298 -0.3975
17154TIP3    H272954   0.281   0.882   2.321  0.8756 -1.6030 -0.3681
17155TIP3   OH272955   6.133   7.007   4.451 -0.0922 -0.3056  0.4972
17155TIP3    H172956   6.120   7.087   4.502  1.5113 -0.2528  0.8607
17155TIP3    H272957   6.187   6.951   4.506  0.3532 -0.8940 -0.5060
17156TIP3   OH272958   5.119   1.814  13.742  0.5231  0.2406 -0.0117
17156TIP3    H172959   5.036   1.850  13.773 -0.1584 -0.7692 -0.6278
17156TIP3    H272960   5.179   1.824  13.816 -0.8900 -1.5437  1.4360
17157TIP3   OH272961   6.829   6.683   1.770  0.4075 -0.2682 -0.0128
17157TIP3    H172962   6.910   6.666   1.817 -0.0259 -1.0610  0.4597
17157TIP3    H272963   6.819   6.778   1.773  2.0844 -0.0065 -1.3856
17158TIP3   OH272964   0.560   1.727   5.306  0.5688 -0.6268 -0.3897
17158TIP3    H172965   0.533   1.774   5.385  0.1726 -0.6316 -0.5181
17158TIP3    H272966   0.631   1.780   5.270 -1.1853  1.0266 -1.6403
17159TIP3   OH272967   5.375   1.924   0.493 -0.0930  0.7113 -0.0415
17159TIP3    H172968   5.389   1.850   0.553  0.3289  0.1819 -0.7797
17159TIP3    H272969   5.351   1.997   0.551  1.2154  0.4606  0.8707
17160TIP3   OH272970   2.286   1.818   2.889  0.3481  0.3377 -0.5711
17160TIP3    H172971   2.332   1.851   2.812  2.1310 -0.3131  0.1687
17160TIP3    H272972   2.305   1.882   2.958  0.7075 -0.2838 -0.0848
17161TIP3   OH272973   2.198   2.523  10.947 -0.0198 -1.0114  0.2460
17161TIP3    H172974   2.119   2.552  10.902  0.5700 -0.6429 -0.5733
17161TIP3    H272975   2.266   2.582  10.917  0.7823 -1.9475  0.1627
17162TIP3   OH272976   5.066   2.608  13.762 -0.7867  0.3629 -0.0757
17162TIP3    H172977   5.054   2.579  13.852  1.4323  0.7360  0.4085
17162TIP3    H272978   5.161   2.602  13.748 -0.7767  2.7749 -1.5296
17163TIP3   OH272979   1.041   0.816   2.584  0.0749  0.3932  0.9828
17163TIP3    H172980   1.111   0.865   2.541  1.7388 -1.5377  1.3322
17163TIP3    H272981   1.002   0.879   2.645  0.8287  1.7954  0.0764
17164TIP3   OH272982   5.549   4.079   3.598  0.6134 -0.0483  0.3252
17164TIP3    H172983   5.574   4.128   3.676  1.4807 -0.8524  0.5670
17164TIP3    H272984   5.629   4.076   3.545  0.1097  0.2463 -0.4725
17165TIP3   OH272985   4.829   5.279  15.253 -0.6330  0.0326  0.0157
17165TIP3    H172986   4.834   5.306  15.162  1.1577  0.9682  0.3464
17165TIP3    H272987   4.752   5.323  15.288 -0.0977  1.4256 -0.5104
17166TIP3   OH272988   7.067   1.320   3.493 -0.8296  0.1269 -0.1782
17166TIP3    H172989   7.079   1.286   3.404  2.8260  0.5633 -0.0344
17166TIP3    H272990   7.005   1.259   3.534 -0.2035 -1.9683 -2.0965
17167TIP3   OH272991   3.995   5.017   0.132  0.3216  1.0427  0.0652
17167TIP3    H172992   4.083   5.052   0.148 -0.4289  3.2100 -0.2269
17167TIP3    H272993   3.975   4.968   0.212  1.9795  0.0378 -0.0865
17168TIP3   OH272994   5.079   3.638   4.537 -0.1333 -0.0127  0.3695
17168TIP3    H172995   5.041   3.573   4.478  0.7324 -0.2143  0.0196
17168TIP3    H272996   5.170   3.644   4.509 -0.1048  1.0500  0.6691
17169TIP3   OH272997   3.459   4.545  13.563 -0.1988 -0.2109 -0.2376
17169TIP3    H172998   3.460   4.610  13.633  0.0779  0.3725 -0.7711
17169TIP3    H272999   3.544   4.555  13.519  0.1129 -1.3642  0.0588
17170TIP3   OH273000   3.107   2.364   3.955  0.5353  0.2967 -0.0183
17170TIP3    H173001   3.046   2.315   3.901  0.4555  0.3040  0.0657
17170TIP3    H273002   3.193   2.334   3.926  0.5150  0.7769 -0.6075
17171TIP3   OH273003   0.683   4.927   2.855 -0.0041  0.3822 -0.4185
17171TIP3    H173004   0.736   4.942   2.777  0.4117 -0.5018 -0.3231
17171TIP3    H273005   0.626   4.853   2.832  0.0227  0.2035  0.0545
17172TIP3   OH273006   2.655   1.448  11.103 -0.3031 -0.0374  0.4025
17172TIP3    H173007   2.747   1.469  11.119 -0.3469  0.4589  0.0379
17172TIP3    H273008   2.611   1.467  11.186  0.1525 -1.7704  1.0779
17173TIP3   OH273009   1.231   5.730   5.028  0.5690  0.0214  0.0162
17173TIP3    H173010   1.279   5.760   5.105  1.4741 -0.3639 -0.3889
17173TIP3    H273011   1.208   5.811   4.981 -1.9564  0.4543  1.7798
17174TIP3   OH273012   3.724   0.575   2.099 -0.4860  0.5401 -0.2834
17174TIP3    H173013   3.710   0.483   2.122 -0.7628  0.0329 -2.3286
17174TIP3    H273014   3.638   0.616   2.112 -0.6285  0.2794 -0.4008
17175TIP3   OH273015   1.337   2.903   2.860 -0.3986 -0.3352  0.0077
17175TIP3    H173016   1.395   2.937   2.792  1.0966 -2.4877  0.0800
17175TIP3    H273017   1.249   2.907   2.822  0.2831 -0.5173 -1.6514
17176TIP3   OH273018   3.452   2.968  13.887 -0.7211 -0.0069  0.5267
17176TIP3    H173019   3.411   2.889  13.922 -0.4895  0.0041  0.8246
17176TIP3    H273020   3.410   3.040  13.933  0.4291 -0.0424  1.6807
17177TIP3   OH273021   5.314   5.515   1.715  0.6515 -0.0122 -0.2084
17177TIP3    H173022   5.334   5.503   1.622  0.5753  0.5595 -0.3058
17177TIP3    H273023   5.239   5.574   1.716  0.1269 -0.6823  0.2050
17178TIP3   OH273024   4.796   2.447   4.295 -0.0758  0.3799 -0.0341
17178TIP3    H173025   4.850   2.502   4.238  0.2866  1.1732  1.0553
17178TIP3    H273026   4.708   2.484   4.288 -0.1693  0.0931 -0.5251
17179TIP3   OH273027   4.782   6.907  12.160 -0.8316  0.1301 -0.9041
17179TIP3    H173028   4.770   7.002  12.169  1.0737  0.3205  0.4466
17179TIP3    H273029   4.703   6.869  12.198 -0.8547  1.1986  0.1997
17180TIP3   OH273030   3.439   3.615   3.341 -0.0510 -0.5268  0.0729
17180TIP3    H173031   3.474   3.553   3.277  0.8373  0.0203  0.0160
17180TIP3    H273032   3.485   3.594   3.422  0.4189  0.1912  0.0024
17181TIP3   OH273033   5.318   4.109  15.348 -0.1956  0.0298 -0.1076
17181TIP3    H173034   5.286   4.190  15.387 -0.8301 -1.1994  2.0661
17181TIP3    H273035   5.240   4.055  15.337  0.2202 -0.3372 -1.5040
17182TIP3   OH273036   2.038   6.814   5.135 -0.2098  0.2187 -0.1937
17182TIP3    H173037   2.063   6.736   5.185 -0.7026  0.1893  0.0118
17182TIP3    H273038   2.075   6.887   5.184 -2.0761  0.3231  1.1501
17183TIP3   OH273039   6.093   2.349   5.318 -0.5350 -0.0269  0.4206
17183TIP3    H173040   6.161   2.385   5.375 -0.5934 -0.2897  0.6610
17183TIP3    H273041   6.050   2.282   5.371 -0.5422 -0.3290  0.0455
17184TIP3   OH273042   2.864   2.073   4.284  0.0660 -0.8304 -0.2843
17184TIP3    H173043   2.956   2.050   4.268  0.2598 -0.6900  0.5801
17184TIP3    H273044   2.857   2.077   4.380 -0.5305  0.3847 -0.3583
17185TIP3   OH273045   7.015   5.120   5.351 -0.2250 -0.7752 -0.2660
17185TIP3    H173046   7.015   5.123   5.446  0.5722 -0.4286 -0.2764
17185TIP3    H273047   6.927   5.148   5.326 -0.0720  0.2471  0.3328
17186TIP3   OH273048   5.524   3.377   3.324 -0.7719  0.1828 -0.2233
17186TIP3    H173049   5.439   3.421   3.318 -2.0802 -1.9546  1.2540
17186TIP3    H273050   5.503   3.284   3.318  1.5922 -0.3871 -0.6595
17187TIP3   OH273051   3.787   3.837   4.160  0.3417 -0.0656 -1.2958
17187TIP3    H173052   3.706   3.877   4.191  0.9545  0.4628 -0.3141
17187TIP3    H273053   3.806   3.881   4.077  0.5287  1.0624 -0.6757
17188TIP3   OH273054   6.103   0.372   1.591  0.9506  0.0156  0.0217
17188TIP3    H173055   6.165   0.356   1.520  0.1507 -1.1450 -0.4523
17188TIP3    H273056   6.028   0.315   1.571  0.3966  0.2099  1.4037
17189TIP3   OH273057   6.454   0.278   4.552 -0.2980 -0.9184  0.2392
17189TIP3    H173058   6.370   0.321   4.570  0.4200 -0.2844  2.5103
17189TIP3    H273059   6.431   0.187   4.535 -1.4341 -0.8866  1.4279
17190TIP3   OH273060   4.533   5.962   5.043 -0.3128 -0.3440  0.1828
17190TIP3    H173061   4.600   5.955   4.975 -1.3735 -1.7082 -0.7838
17190TIP3    H273062   4.475   6.033   5.014 -0.2891 -0.3583  0.1024
17191TIP3   OH273063   4.662   0.029  11.103  0.1794 -0.4031  0.3070
17191TIP3    H173064   4.700  -0.006  11.184  1.5837 -0.1914 -0.2225
17191TIP3    H273065   4.734   0.023  11.039 -0.9325 -0.6752 -0.9543
17192TIP3   OH273066   0.750   4.071   0.308  0.1451  0.1881  0.0444
17192TIP3    H173067   0.789   4.121   0.235  0.5776  0.3609  0.3846
17192TIP3    H273068   0.825   4.031   0.351 -0.1848 -0.5657 -0.0794
17193TIP3   OH273069   6.750   3.748   5.812  0.2187 -0.0316  0.4787
17193TIP3    H173070   6.798   3.685   5.758 -2.5474 -2.8081  0.9705
17193TIP3    H273071   6.800   3.752   5.894  2.1783  1.0020 -0.7083
17194TIP3   OH273072   2.547   4.721   5.523 -0.3035 -0.2549 -0.0303
17194TIP3    H173073   2.529   4.767   5.605  0.9125 -1.8607  1.2178
17194TIP3    H273074   2.493   4.765   5.457  0.0954  2.2892  1.2412
17195TIP3   OH273075   2.881   1.848  14.515  0.0965 -0.1029  0.1427
17195TIP3    H173076   2.837   1.843  14.600  1.7160 -1.6767  0.9487
17195TIP3    H273077   2.811   1.831  14.452 -1.0173  0.4772  1.1759
17196TIP3   OH273078   6.078   5.901   1.378  0.2584 -0.0607 -0.2629
17196TIP3    H173079   6.081   5.990   1.411 -1.6617  0.1401 -0.5263
17196TIP3    H273080   6.092   5.910   1.283  0.6139 -0.0972 -0.2139
17197TIP3   OH273081   1.343   3.649   3.662 -0.0969 -0.1639  0.2367
17197TIP3    H173082   1.354   3.576   3.602 -0.9590 -1.0393  1.1137
17197TIP3    H273083   1.254   3.679   3.648 -0.6655 -1.0362  1.7550
17198TIP3   OH273084   2.172   2.841   1.468 -0.2570  0.4464  0.6898
17198TIP3    H173085   2.178   2.838   1.373  1.5885  1.0282  0.7502
17198TIP3    H273086   2.129   2.759   1.492 -2.0575  0.9324 -0.7046
17199TIP3   OH273087   6.360   6.606  14.132 -0.0588  0.0623 -0.6052
17199TIP3    H173088   6.409   6.646  14.060 -1.4570 -0.9646 -2.2082
17199TIP3    H273089   6.418   6.539  14.167  1.1216  1.3973  0.1041
17200TIP3   OH273090   1.374   3.853   0.593 -0.4175  0.0699  0.3475
17200TIP3    H173091   1.313   3.779   0.600 -0.0833 -0.2185  0.2778
17200TIP3    H273092   1.318   3.930   0.591 -0.9295 -0.2729 -1.6989
17201TIP3   OH273093   7.062   0.070   5.388  0.2654  0.6823  0.3969
17201TIP3    H173094   6.988   0.060   5.448 -0.5233  2.5104 -0.2336
17201TIP3    H273095   7.042   0.147   5.336  0.9893 -0.7703 -2.1988
17202TIP3   OH273096   1.412   2.290   6.127 -0.0989 -0.0412 -0.3094
17202TIP3    H173097   1.457   2.325   6.204 -0.4767  0.4854 -0.3198
17202TIP3    H273098   1.482   2.266   6.066  0.1801  0.3545 -0.1457
17203TIP3   OH273099   3.212   0.235   0.628 -0.4796 -0.3531 -0.4313
17203TIP3    H173100   3.242   0.162   0.574 -0.9128 -0.0243 -1.1428
17203TIP3    H273101   3.291   0.270   0.668 -0.1558 -0.6385 -0.8178
17204TIP3   OH273102   6.235   1.526   5.649 -0.5579  0.0382 -0.3925
17204TIP3    H173103   6.283   1.520   5.731 -0.5398 -1.0367 -0.4728
17204TIP3    H273104   6.260   1.611   5.613  1.3101 -0.4821 -0.4449
17205TIP3   OH273105   5.851   4.948   4.594  0.1118  0.1416  0.0028
17205TIP3    H173106   5.872   4.909   4.678 -0.4432 -0.4031 -0.1001
17205TIP3    H273107   5.866   4.878   4.530  0.1959  0.4424 -0.3116
17206TIP3   OH273108   6.946   5.618   2.029  0.0381 -0.1731 -0.0508
17206TIP3    H173109   6.903   5.703   2.016  0.0274  0.1782  1.9769
17206TIP3    H273110   6.874   5.556   2.037 -0.0622  0.1069  1.3837
17207TIP3   OH273111   5.416   4.347   0.845 -0.9210 -0.1656 -0.7505
17207TIP3    H173112   5.479   4.402   0.891 -0.5101 -0.1712 -1.2929
17207TIP3    H273113   5.383   4.402   0.774 -0.5061 -0.5977 -1.2989
17208TIP3   OH273114   3.438   0.007   2.795 -0.2732 -0.1285 -0.0377
17208TIP3    H173115   3.474   0.063   2.863 -0.8009  0.8029 -0.5036
17208TIP3    H273116   3.366   0.058   2.757 -0.0433 -0.6529 -1.2381
17209TIP3   OH273117   5.797   1.922   9.161  0.0276 -0.5389 -0.1305
17209TIP3    H173118   5.726   1.900   9.222 -0.1822  1.1635  0.3010
17209TIP3    H273119   5.853   1.981   9.211 -0.2349  1.0227 -1.5956
17210TIP3   OH273120   5.146   0.454   4.899  0.0834  0.1613  0.0922
17210TIP3    H173121   5.094   0.374   4.889  0.3479 -0.1085  0.7648
17210TIP3    H273122   5.083   0.521   4.925 -0.0417  0.0117  0.1778
17211TIP3   OH273123   3.258   4.057   0.108 -0.4619 -0.4651  0.8619
17211TIP3    H173124   3.351   4.037   0.097 -0.3010 -0.0846  1.4621
17211TIP3    H273125   3.237   4.029   0.197 -1.3474 -2.0629  0.1861
17212TIP3   OH273126   5.102   4.866   2.069 -0.1750  0.7310 -0.2909
17212TIP3    H173127   5.075   4.843   2.158 -0.4860  0.5480 -0.4288
17212TIP3    H273128   5.122   4.781   2.028  1.4059  0.9084  0.0515
17213TIP3   OH273129   1.607   5.641   6.091  0.2098  0.8551  0.6924
17213TIP3    H173130   1.684   5.696   6.103  0.5476  1.0476 -1.8938
17213TIP3    H273131   1.556   5.686   6.024 -1.5091  0.0299  1.3992
17214TIP3   OH273132   2.190   6.251   5.615  0.0153  0.0944 -0.0864
17214TIP3    H173133   2.220   6.169   5.575 -0.4196 -0.9878  1.6883
17214TIP3    H273134   2.269   6.290   5.651  0.2204  0.4577 -0.9122
17215TIP3   OH273135   6.683   2.359   4.942 -0.1104  0.2173 -0.1331
17215TIP3    H173136   6.768   2.335   4.906 -0.3607 -0.0726 -0.5406
17215TIP3    H273137   6.703   2.417   5.016  0.4199  0.5341 -0.5204
17216TIP3   OH273138   0.963   4.077   5.113  0.0094 -0.2574  0.1012
17216TIP3    H173139   0.872   4.058   5.135  0.1841 -0.2295  0.8894
17216TIP3    H273140   1.009   4.074   5.198  0.4797  1.2289 -0.0728
17217TIP3   OH273141   1.722   2.237   2.093  0.2458  0.5995 -0.5377
17217TIP3    H173142   1.700   2.193   2.175  0.3764  1.5913  0.0348
17217TIP3    H273143   1.772   2.314   2.118  0.7466  0.6390 -1.5854
17218TIP3   OH273144   0.684   1.636   3.461 -0.0172  0.0690 -0.0547
17218TIP3    H173145   0.626   1.626   3.385  0.4640 -1.7201 -0.2177
17218TIP3    H273146   0.637   1.592   3.532 -0.4309  1.6672  0.7203
17219TIP3   OH273147   3.657   2.757  12.136  0.2703 -0.4943  0.1813
17219TIP3    H173148   3.735   2.729  12.183 -0.0757  0.0010  1.0768
17219TIP3    H273149   3.612   2.676  12.113  2.9113 -1.0522 -3.7621
17220TIP3   OH273150   5.900   3.707   3.104 -0.1374 -0.5443 -0.2217
17220TIP3    H173151   5.856   3.629   3.139  0.9649 -0.6514  0.9710
17220TIP3    H273152   5.843   3.780   3.129  0.2683 -0.6913  1.2094
17221TIP3   OH273153   1.577   6.236   3.114  0.5425  0.3988 -0.1743
17221TIP3    H173154   1.650   6.184   3.084 -1.2236 -0.7696 -2.7843
17221TIP3    H273155   1.535   6.268   3.034 -2.1435  0.4951  1.1602
17222TIP3   OH273156   2.449   5.579   0.479  0.1772  0.1058  0.1428
17222TIP3    H173157   2.501   5.631   0.540  0.2505  0.7629 -0.4766
17222TIP3    H273158   2.506   5.565   0.404 -1.0333  2.1702 -1.2327
17223TIP3   OH273159   1.818   2.326   0.291 -0.0310 -0.3784  0.1361
17223TIP3    H173160   1.741   2.276   0.320 -1.1931  0.7578 -0.8355
17223TIP3    H273161   1.782   2.393   0.233  1.5673  1.0115  0.6696
17224TIP3   OH273162   3.742   1.508  10.318 -0.5267  0.2557 -0.3195
17224TIP3    H173163   3.722   1.440  10.254  2.9277  0.0571 -1.4328
17224TIP3    H273164   3.698   1.480  10.398 -1.0826 -2.0625 -1.3514
17225TIP3   OH273165   2.418   6.746  15.695 -0.0494 -0.1312  0.4257
17225TIP3    H173166   2.492   6.721  15.640 -0.6813 -3.0816  0.7492
17225TIP3    H273167   2.385   6.827  15.656  1.2725 -0.5896 -1.7967
17226TIP3   OH273168   1.468   1.470  13.002  0.2902  0.0925 -0.4088
17226TIP3    H173169   1.448   1.424  12.920  0.6922  0.9699 -1.0031
17226TIP3    H273170   1.455   1.403  13.070 -1.5866 -0.2349 -1.0300
17227TIP3   OH273171   4.152   3.404  13.208  0.0438 -0.1847  0.1439
17227TIP3    H173172   4.091   3.337  13.238 -0.6623 -0.0600 -0.9433
17227TIP3    H273173   4.227   3.396  13.267 -1.7495  0.9246  2.8080
17228TIP3   OH273174   6.346   3.263   3.727  0.2722  0.4758 -0.1542
17228TIP3    H173175   6.293   3.339   3.751 -0.9007 -0.2886 -0.2532
17228TIP3    H273176   6.283   3.195   3.706  1.2848 -0.6946  0.4100
17229TIP3   OH273177   2.783   3.413  13.420 -0.1978  0.5215  0.3614
17229TIP3    H173178   2.692   3.383  13.415 -0.4263  1.3970 -2.0582
17229TIP3    H273179   2.813   3.382  13.505 -1.8932 -2.2903  0.0927
17230TIP3   OH273180   5.801   6.391   3.160  0.2678  0.2133 -0.6945
17230TIP3    H173181   5.895   6.372   3.165  0.4030  0.8302 -0.8288
17230TIP3    H273182   5.786   6.459   3.226  0.0473  0.6142 -1.1486
17231TIP3   OH273183   3.883   0.871  15.279  0.6400  0.9001  0.1003
17231TIP3    H173184   3.882   0.810  15.205  2.4974  3.2898 -2.0851
17231TIP3    H273185   3.801   0.920  15.271 -0.0120 -0.0566  0.7713
17232TIP3   OH273186   5.273   5.609   0.749 -0.6283 -0.4642  0.3918
17232TIP3    H173187   5.267   5.589   0.656  1.1112 -2.1684  0.5687
17232TIP3    H273188   5.306   5.699   0.753  0.4789 -0.7967 -0.6808
17233TIP3   OH273189   2.464   3.215  14.323  0.1944 -0.0641 -0.0086
17233TIP3    H173190   2.373   3.198  14.300  0.0782 -0.1089  0.4603
17233TIP3    H273191   2.482   3.303  14.291  0.5578 -0.7238 -1.7515
17234TIP3   OH273192   4.458   0.634   1.603 -0.1230  0.2896  0.0829
17234TIP3    H173193   4.497   0.548   1.587 -0.4089  0.4362 -1.5387
17234TIP3    H273194   4.450   0.639   1.698  0.2857 -1.3010  0.2278
17235TIP3   OH273195   2.620   3.070   2.947 -0.3106 -0.2260 -0.4345
17235TIP3    H173196   2.612   3.082   3.042  0.2314 -0.6428 -0.3304
17235TIP3    H273197   2.705   3.108   2.926 -0.9907  1.0718 -0.9729
17236TIP3   OH273198   0.134   1.335  12.511  0.4009 -0.2727  0.1022
17236TIP3    H173199   0.216   1.384  12.515  0.3643 -0.2637  1.1858
17236TIP3    H273200   0.101   1.335  12.601 -0.3614 -1.0036 -0.1502
17237TIP3   OH273201   6.347   1.328   5.894 -0.3536  0.6026 -0.3062
17237TIP3    H173202   6.268   1.373   5.926  0.7242  2.1337  0.3260
17237TIP3    H273203   6.408   1.399   5.875  0.7588 -0.5452 -1.1408
17238TIP3   OH273204   2.067   6.011   0.003 -0.3871 -0.3013 -0.5680
17238TIP3    H173205   2.144   6.042  -0.044 -0.2331  0.7739  0.3365
17238TIP3    H273206   1.993   6.053  -0.041 -0.1840  1.3999  0.6119
17239TIP3   OH273207   4.617   1.829   4.723  0.6409 -0.2044  0.3759
17239TIP3    H173208   4.562   1.755   4.748  0.5365  0.6943  3.2419
17239TIP3    H273209   4.562   1.906   4.740  0.8086  0.6389 -2.3426
17240TIP3   OH273210   1.996   3.014   5.564 -0.6010  0.0787  0.7100
17240TIP3    H173211   2.041   3.097   5.549  2.1190 -1.6855 -2.2509
17240TIP3    H273212   1.903   3.034   5.555  0.0565  2.4878 -2.2981
17241TIP3   OH273213   5.707   4.265  11.069 -0.2754 -0.0167 -0.6331
17241TIP3    H173214   5.787   4.235  11.026  0.3474 -0.9403  1.0859
17241TIP3    H273215   5.657   4.308  10.999  2.1829  1.5686 -1.5425
17242TIP3   OH273216   2.470   0.848   5.337 -0.3707 -0.1271  0.3654
17242TIP3    H173217   2.379   0.822   5.321  0.1880 -2.0663  0.0418
17242TIP3    H273218   2.494   0.803   5.418  0.7590 -0.9709 -0.4032
17243TIP3   OH273219   1.520   5.091   4.261 -0.8460 -0.4815  0.7748
17243TIP3    H173220   1.565   5.064   4.341 -1.1975  2.6417  2.1977
17243TIP3    H273221   1.590   5.110   4.199 -0.4924 -1.2641  0.9248
17244TIP3   OH273222   2.394   6.074   0.190  0.8283  0.4178 -0.1537
17244TIP3    H173223   2.348   6.093   0.272 -0.7606  1.0043 -1.1321
17244TIP3    H273224   2.367   5.984   0.168 -0.6807  1.0897 -1.2078
17245TIP3   OH273225   5.629   0.355   0.830 -0.0584 -0.7016  0.0177
17245TIP3    H173226   5.627   0.392   0.918  0.7368 -0.9090  0.1313
17245TIP3    H273227   5.649   0.429   0.773  1.2994 -0.8837  0.2198
17246TIP3   OH273228   2.361   2.499   2.518  0.6812 -0.0199  0.3553
17246TIP3    H173229   2.362   2.404   2.507  0.3909 -0.2227  1.8464
17246TIP3    H273230   2.387   2.512   2.609 -0.1958  1.2784  0.4412
17247TIP3   OH273231   1.509   4.316   4.483 -0.0604  0.3652 -0.0237
17247TIP3    H173232   1.541   4.316   4.573 -1.2806 -3.1995  0.5482
17247TIP3    H273233   1.415   4.332   4.490 -0.0706  0.6521 -0.7306
17248TIP3   OH273234   2.686   0.921  15.009 -0.0692  0.3868  0.2001
17248TIP3    H173235   2.709   0.983  14.941 -1.5917 -0.0187 -0.7343
17248TIP3    H273236   2.646   0.847  14.963 -0.4982 -0.2105  1.4640
17249TIP3   OH273237   0.255   3.644  13.854 -1.0291  0.4692 -0.8046
17249TIP3    H173238   0.166   3.681  13.851 -0.7065  1.1833 -2.1560
17249TIP3    H273239   0.284   3.645  13.763  1.5528  3.1643 -0.0825
17250TIP3   OH273240   4.244   5.849  14.516  0.2404  0.1620  0.4791
17250TIP3    H173241   4.288   5.853  14.431 -0.8119  2.7185 -0.0119
17250TIP3    H273242   4.177   5.917  14.512  0.3616  0.5731  3.4684
17251TIP3   OH273243   0.347   5.882   0.167  0.8518 -0.5637 -0.3967
17251TIP3    H173244   0.401   5.874   0.245  1.6501  0.3882 -0.8171
17251TIP3    H273245   0.404   5.927   0.103 -0.5662  0.9192 -0.7044
17252TIP3   OH273246   0.007   4.049   0.984 -0.4031  0.1667  0.8224
17252TIP3    H173247   0.029   4.077   0.895  0.1532  0.5585  1.0827
17252TIP3    H273248   0.057   3.968   0.998 -2.1314 -1.1213  0.0121
17253TIP3   OH273249   4.355   5.676   4.084  0.5398 -0.0326 -0.1798
17253TIP3    H173250   4.262   5.691   4.069  0.1535  0.4684  2.2931
17253TIP3    H273251   4.366   5.687   4.179  3.2551  0.7183 -0.5013
17254TIP3   OH273252   5.109   4.475   0.287 -0.7697  0.1379 -0.1175
17254TIP3    H173253   5.148   4.390   0.305  1.3647  1.2886  1.0961
17254TIP3    H273254   5.169   4.517   0.225 -0.2775  1.7699  1.3937
17255TIP3   OH273255   3.797   4.256   3.933 -0.1927 -0.0058  0.6192
17255TIP3    H173256   3.733   4.324   3.910 -0.0742 -0.1232 -0.0753
17255TIP3    H273257   3.835   4.230   3.850  1.3589  0.6463  1.0960
17256TIP3   OH273258   6.870   4.393   1.213  0.8164 -0.0014  0.3688
17256TIP3    H173259   6.900   4.415   1.125  0.1006  0.7834  0.3084
17256TIP3    H273260   6.838   4.476   1.250  1.3108 -0.2736  1.4547
17257TIP3   OH273261   1.206   2.570  12.187  0.2267  0.0627 -0.2026
17257TIP3    H173262   1.211   2.554  12.093  1.2674  2.8275 -0.7084
17257TIP3    H273263   1.122   2.614  12.200 -0.2789 -1.0182  0.3292
17258TIP3   OH273264   3.134   6.470   5.858  0.2691 -0.4385 -0.3158
17258TIP3    H173265   3.053   6.420   5.849  0.5311 -1.3834  2.0019
17258TIP3    H273266   3.106   6.561   5.870 -0.4866 -0.7991  0.7317
17259TIP3   OH273267   3.193   6.239   5.331 -0.2289 -0.6039  0.0962
17259TIP3    H173268   3.243   6.257   5.411 -0.1784  0.5624 -0.1897
17259TIP3    H273269   3.107   6.212   5.363  0.5617 -2.7080  0.5957
17260TIP3   OH273270   6.382   2.383   3.635 -0.1052  0.4647  0.4782
17260TIP3    H173271   6.406   2.297   3.601  0.2760  0.4167  0.8715
17260TIP3    H273272   6.374   2.438   3.557 -1.0504 -0.0929  0.1645
17261TIP3   OH273273   5.389   1.998   2.267  0.2134  0.3963  0.2847
17261TIP3    H173274   5.426   2.085   2.252  1.8303 -0.1763  0.7713
17261TIP3    H273275   5.339   2.006   2.349  0.1472  0.9146  0.1950
17262TIP3   OH273276   1.062   3.916   2.347 -0.0979 -0.4724  0.1386
17262TIP3    H173277   1.096   3.879   2.265  1.2643 -1.2727  1.0409
17262TIP3    H273278   0.977   3.953   2.322  0.3434 -0.5656 -1.6649
17263TIP3   OH273279   6.020   0.942   1.523 -0.0112  0.2752  0.0570
17263TIP3    H173280   6.049   0.980   1.605 -1.3783 -1.7079  1.5616
17263TIP3    H273281   6.074   0.983   1.456 -0.0820  3.3008  1.7101
17264TIP3   OH273282   0.509   4.062   2.151  0.0973  0.4196  0.0569
17264TIP3    H173283   0.441   3.996   2.159 -0.4229  0.5227 -2.6446
17264TIP3    H273284   0.589   4.018   2.178 -0.0729 -1.7242 -2.5474
17265TIP3   OH273285   4.905   0.661   4.260  0.3517 -0.5026 -0.7767
17265TIP3    H173286   4.864   0.590   4.310  1.1674 -0.4851 -0.0729
17265TIP3    H273287   4.956   0.710   4.324  0.2753  0.3747 -1.3726
17266TIP3   OH273288   3.037   1.172   3.785 -0.0256 -0.3089  0.3589
17266TIP3    H173289   2.955   1.127   3.802  0.7043 -0.6704  3.8560
17266TIP3    H273290   3.102   1.124   3.837  1.9662  1.2326 -0.5491
17267TIP3   OH273291   2.289   6.933  14.344 -0.0906 -0.9536  0.0950
17267TIP3    H173292   2.354   6.993  14.381  0.7074 -0.9170 -1.3196
17267TIP3    H273293   2.310   6.848  14.383  0.1507 -0.7415  0.4287
17268TIP3   OH273294   0.617   5.311   0.924  0.2801 -0.3778  0.4174
17268TIP3    H173295   0.524   5.309   0.947 -0.5899  0.4301 -2.5148
17268TIP3    H273296   0.637   5.220   0.901 -0.3358 -0.2661 -0.6470
17269TIP3   OH273297   5.360   4.392   4.304 -0.3031  0.3103 -0.2535
17269TIP3    H173298   5.318   4.409   4.219 -1.1322  0.7778  0.2454
17269TIP3    H273299   5.288   4.369   4.362 -0.0086  2.1644  0.8975
17270TIP3   OH273300   4.560   2.263   4.914  0.2116  0.0454  0.5092
17270TIP3    H173301   4.562   2.309   4.830 -1.6898 -1.2039 -0.2768
17270TIP3    H273302   4.513   2.182   4.896 -1.8683  0.5304  3.1791
17271TIP3   OH273303   0.054   0.249   5.078 -0.1041  0.3901  0.2685
17271TIP3    H173304   0.039   0.157   5.103 -1.3690  0.1099 -1.3396
17271TIP3    H273305   0.023   0.299   5.153  0.7823 -0.4830  1.2513
17272TIP3   OH273306   3.850   1.998  13.915 -0.0614  0.4859  0.2140
17272TIP3    H173307   3.758   1.989  13.938  0.4851 -1.1586  2.0099
17272TIP3    H273308   3.865   1.932  13.847 -0.0896  0.3579  0.3316
17273TIP3   OH273309   5.853   2.620   4.967 -0.2259 -0.1357  0.1553
17273TIP3    H173310   5.916   2.610   5.038 -0.3367  0.2456  0.3106
17273TIP3    H273311   5.770   2.591   5.004 -0.1916 -0.4074  0.0253
17274TIP3   OH273312   5.363   2.242   4.236 -0.2757 -0.0590  0.0917
17274TIP3    H173313   5.454   2.260   4.260  0.9530 -5.0989  0.3462
17274TIP3    H273314   5.369   2.203   4.149 -2.4660  1.0198 -0.6022
17275TIP3   OH273315   5.955   4.376   3.734  0.1702  0.1639 -0.5975
17275TIP3    H173316   5.974   4.285   3.755 -3.1823 -1.2382 -2.8945
17275TIP3    H273317   5.992   4.390   3.647  2.5266  1.7829  0.5641
17276TIP3   OH273318   5.017   1.349  11.766  0.0039  0.2456  0.5846
17276TIP3    H173319   5.106   1.322  11.743  1.0205  1.4473  2.8214
17276TIP3    H273320   4.961   1.281  11.728  1.9190 -1.0464 -0.0829
17277TIP3   OH273321   1.011   4.246   2.873  0.0152 -0.2647  0.0439
17277TIP3    H173322   1.075   4.176   2.887 -0.2988 -0.1738  2.3243
17277TIP3    H273323   0.937   4.222   2.929 -0.5475  1.3321  0.0241
17278TIP3   OH273324   4.561   4.431   4.003 -0.2776  0.3883  0.2703
17278TIP3    H173325   4.619   4.355   4.007 -1.1226 -0.2325  3.3972
17278TIP3    H273326   4.618   4.504   3.979  1.1670 -0.7125  0.2194
17279TIP3   OH273327   1.163   4.305  15.583  0.3642 -0.0690  0.3448
17279TIP3    H173328   1.098   4.341  15.522  0.6779  0.2717  0.2129
17279TIP3    H273329   1.247   4.326  15.543  0.5565 -0.7532  0.3760
17280TIP3   OH273330   4.160   3.142   0.749  0.0935  0.3231 -0.7165
17280TIP3    H173331   4.241   3.192   0.734 -0.6866  2.5307  1.6414
17280TIP3    H273332   4.180   3.085   0.823 -0.2671  0.3200 -0.6204
17281TIP3   OH273333   0.860   1.946   4.469  0.2677 -0.0971  0.4666
17281TIP3    H173334   0.831   1.859   4.443 -1.8945  0.0756  2.1070
17281TIP3    H273335   0.852   1.998   4.389 -2.6675 -0.4227  0.4667
17282TIP3   OH273336   3.191   6.351  14.413 -0.0604 -0.0225  0.3277
17282TIP3    H173337   3.111   6.393  14.383  0.3122  0.5088  0.0615
17282TIP3    H273338   3.163   6.265  14.445 -0.3421 -1.1015 -2.5584
17283TIP3   OH273339   7.081   2.738   4.726  1.2160 -0.0741 -0.1911
17283TIP3    H173340   7.042   2.795   4.792  3.0124 -0.0395  0.8932
17283TIP3    H273341   7.056   2.649   4.752  1.4432 -0.0201  0.2158
17284TIP3   OH273342   4.865   0.283   3.594  0.9026 -0.4014  0.4790
17284TIP3    H173343   4.789   0.253   3.644 -0.0612 -1.1804 -1.3891
17284TIP3    H273344   4.894   0.207   3.544  1.3249  0.5389 -0.7711
17285TIP3   OH273345   3.184   2.454  14.604  0.2573  0.4597 -0.2429
17285TIP3    H173346   3.169   2.364  14.574 -0.9691  0.4846  0.2282
17285TIP3    H273347   3.169   2.450  14.698  0.5140  1.0998 -0.1716
17286TIP3   OH273348   1.296   3.351   0.968 -0.6971  0.3369 -0.1146
17286TIP3    H173349   1.337   3.351   0.882 -0.9846  1.5845 -0.2731
17286TIP3    H273350   1.205   3.325   0.951 -1.0606  1.7089 -0.3712
17287TIP3   OH273351   5.490   3.105   1.250  0.0280  0.1047  0.3060
17287TIP3    H173352   5.440   3.155   1.186 -0.1456  0.5108  0.7456
17287TIP3    H273353   5.581   3.126   1.232  0.1336 -1.4575 -1.1784
17288TIP3   OH273354   2.951   1.990   1.754  0.0276 -0.1590  0.5478
17288TIP3    H173355   2.969   1.970   1.846  0.4774  1.0843  0.7521
17288TIP3    H273356   2.996   2.073   1.739 -0.5841 -0.0264 -0.6209
17289TIP3   OH273357   4.461   6.106   6.117 -0.9415  0.5344  0.0844
17289TIP3    H173358   4.499   6.026   6.153  0.7106  0.2663 -2.0387
17289TIP3    H273359   4.372   6.082   6.091 -0.8688 -0.2638  0.5600
17290TIP3   OH273360   5.250   5.997   2.930  0.3558  0.4197 -0.5070
17290TIP3    H173361   5.187   5.992   2.858  1.3008 -1.2758 -1.2894
17290TIP3    H273362   5.198   5.986   3.009 -0.4187 -0.1180 -1.0811
17291TIP3   OH273363   6.341   1.812   3.565  0.2464  0.0544  0.1384
17291TIP3    H173364   6.267   1.807   3.505  0.1679 -0.4030  0.2754
17291TIP3    H273365   6.418   1.808   3.508  0.1716  0.0604  0.0363
17292TIP3   OH273366   1.026   3.294   0.981  0.0148  0.2856 -0.1261
17292TIP3    H173367   1.019   3.198   0.977 -1.3214  0.3612 -0.1032
17292TIP3    H273368   0.986   3.316   1.065 -2.1674  1.0300 -1.2829
17293TIP3   OH273369   3.231   3.538   4.925  0.4763 -1.0424  0.2683
17293TIP3    H173370   3.181   3.580   4.856  1.1639 -0.8206 -0.1065
17293TIP3    H273371   3.167   3.486   4.974 -0.3341  0.1278  0.5069
17294TIP3   OH273372   3.004   0.648   2.490 -0.0649 -0.4519 -0.2015
17294TIP3    H173373   2.917   0.608   2.484 -0.5852  0.2569  1.6434
17294TIP3    H273374   2.990   0.739   2.462  0.5718 -0.8577 -1.9467
17295TIP3   OH273375   3.689   4.081   1.032  0.4384 -0.5048  0.2996
17295TIP3    H173376   3.704   4.078   0.937 -0.1992  1.7000  0.0538
17295TIP3    H273377   3.693   4.174   1.053  0.9837 -0.9914  2.5413
17296TIP3   OH273378   0.130   3.711   0.357 -1.0191  0.5739  0.3361
17296TIP3    H173379   0.216   3.679   0.383 -1.4774 -3.0688 -1.8968
17296TIP3    H273380   0.071   3.680   0.427 -0.8482  0.6776  0.5265
17297TIP3   OH273381   2.979   3.281   2.646  0.1128 -0.1444  0.0727
17297TIP3    H173382   3.006   3.362   2.688 -1.0905  0.6592 -0.6437
17297TIP3    H273383   3.047   3.264   2.581  0.9084 -0.2804  0.9357
17298TIP3   OH273384   0.551   4.825   4.918  0.4946  0.5622 -0.1181
17298TIP3    H173385   0.462   4.821   4.952 -0.0100  1.8478 -1.1909
17298TIP3    H273386   0.602   4.868   4.987 -0.6207  3.6485 -1.0595
17299TIP3   OH273387   5.377   4.734   3.496 -0.1669  0.8133 -0.0716
17299TIP3    H173388   5.455   4.691   3.461  1.5350  1.8941  2.1313
17299TIP3    H273389   5.342   4.672   3.560 -1.5829  0.0363 -1.5485
17300TIP3   OH273390   1.503   3.288   5.158  0.3393 -0.2024  0.5703
17300TIP3    H173391   1.433   3.351   5.175  1.0032  0.2225  1.8447
17300TIP3    H273392   1.584   3.338   5.167  0.8418 -0.9088  0.1023
17301TIP3   OH273393   1.072   1.474  10.856 -0.2999  0.4413  0.4084
17301TIP3    H173394   1.123   1.394  10.844 -0.8011  0.2960 -0.8662
17301TIP3    H273395   1.121   1.541  10.808 -0.6803  0.5630  0.1886
17302TIP3   OH273396   0.374   0.314  12.561  1.0227 -0.1572  0.1202
17302TIP3    H173397   0.405   0.231  12.597  0.1370 -0.0090  1.2852
17302TIP3    H273398   0.421   0.381  12.611  1.1878  0.0531 -0.3095
17303TIP3   OH273399   4.532   5.011   2.749  0.5930  0.1583  0.3758
17303TIP3    H173400   4.441   4.985   2.736  1.0992 -2.2478  1.1247
17303TIP3    H273401   4.540   5.095   2.703 -1.6105 -0.2820 -0.9548
17304TIP3   OH273402   2.962   6.855   4.051  0.2221 -0.4898 -0.1573
17304TIP3    H173403   2.978   6.948   4.038 -3.6694  0.0897 -2.2588
17304TIP3    H273404   2.913   6.851   4.133 -1.1235 -0.4130 -0.9362
17305TIP3   OH273405   6.078   3.956   6.458 -0.4955 -0.0635 -0.6743
17305TIP3    H173406   6.164   3.979   6.422 -0.6813 -0.1557 -1.1808
17305TIP3    H273407   6.080   3.861   6.466 -0.4644 -0.0459 -0.4600
17306TIP3   OH273408   1.289   4.749   0.628  0.2350 -0.0218 -0.9712
17306TIP3    H173409   1.338   4.829   0.648 -0.9605  0.7234 -0.9311
17306TIP3    H273410   1.230   4.738   0.702  1.1320 -1.5680 -0.4548
17307TIP3   OH273411   2.944   4.159   4.096  0.4737 -0.2749 -0.4552
17307TIP3    H173412   2.914   4.087   4.153  2.1460 -0.0724  0.7744
17307TIP3    H273413   2.866   4.212   4.082 -0.3214 -1.1446  0.4406
17308TIP3   OH273414   1.809   3.009   5.787 -0.1944 -0.4247 -0.0447
17308TIP3    H173415   1.794   2.953   5.864  0.6383 -1.1326 -0.3751
17308TIP3    H273416   1.728   3.059   5.777 -0.8493 -1.3467  0.4646
17309TIP3   OH273417   4.465   3.180   3.589 -0.1609  0.2958  0.7868
17309TIP3    H173418   4.397   3.156   3.652 -2.4796  2.2537 -0.7912
17309TIP3    H273419   4.463   3.111   3.523  0.3477 -0.3331  1.4157
17310TIP3   OH273420   2.628   6.873   3.634 -0.1113  0.8126 -0.0897
17310TIP3    H173421   2.707   6.860   3.686 -0.1694  2.3778  0.4572
17310TIP3    H273422   2.601   6.785   3.608  0.9131  0.1330  1.0456
17311TIP3   OH273423   1.497   4.092  13.124 -0.0558  0.0973 -0.4322
17311TIP3    H173424   1.524   4.082  13.215 -0.9687  0.8983 -0.0438
17311TIP3    H273425   1.497   4.004  13.088  0.9549 -0.1468  0.1541
17312TIP3   OH273426   6.345   0.018   4.022 -0.0675  0.0321 -0.3372
17312TIP3    H173427   6.364  -0.058   4.076 -1.7630 -0.7511 -0.7781
17312TIP3    H273428   6.358   0.093   4.080  1.5160 -0.5585  0.1332
17313TIP3   OH273429   2.271   7.126   0.081 -0.4339  0.0442  0.2516
17313TIP3    H173430   2.267   7.211   0.125 -0.2784 -1.2590  3.0086
17313TIP3    H273431   2.196   7.078   0.117  2.0420 -2.5301  2.4594
17314TIP3   OH273432   5.831   0.308   9.859 -0.5719 -0.1633  0.1242
17314TIP3    H173433   5.764   0.374   9.876 -0.9220 -0.3216 -0.5954
17314TIP3    H273434   5.828   0.251   9.936  0.1343  0.9603  1.0294
17315TIP3   OH273435   5.582   4.646   5.490 -0.2144  0.3982 -0.0481
17315TIP3    H173436   5.642   4.720   5.499 -0.9375  0.9906  0.0181
17315TIP3    H273437   5.576   4.632   5.395  0.2808  0.1267 -0.0385
17316TIP3   OH273438   5.688   3.798   4.362  0.3416 -0.3755  0.9532
17316TIP3    H173439   5.766   3.787   4.307 -1.0375 -0.6532 -1.0562
17316TIP3    H273440   5.628   3.729   4.333 -0.1521 -1.1247  3.4731
17317TIP3   OH273441   2.792   3.376   0.317  0.1706 -0.3035  0.2881
17317TIP3    H173442   2.818   3.290   0.350 -0.0219 -0.3998  0.1893
17317TIP3    H273443   2.717   3.401   0.370  1.1767  0.5039  1.3775
17318TIP3   OH273444   5.610   5.568  14.070 -0.4936  0.3607 -0.7414
17318TIP3    H173445   5.649   5.595  14.152 -1.0024  0.7224 -0.6094
17318TIP3    H273446   5.537   5.630  14.057 -2.2306 -1.4324 -0.0138
17319TIP3   OH273447   3.082   6.601   1.352 -0.2934  0.3761 -0.3797
17319TIP3    H173448   3.160   6.618   1.405 -2.6199  1.2952  3.1421
17319TIP3    H273449   3.080   6.506   1.341  0.6019  0.2032  0.7599
17320TIP3   OH273450   5.243   4.703   4.937 -0.0115  0.0045 -0.4653
17320TIP3    H173451   5.316   4.645   4.915  1.1936  0.8377  1.1942
17320TIP3    H273452   5.199   4.658   5.009 -0.6648 -0.0862 -0.9099
17321TIP3   OH273453   4.016   4.507  15.353 -0.9327 -0.3469 -0.0427
17321TIP3    H173454   3.970   4.436  15.310 -1.0760 -0.5271  0.3963
17321TIP3    H273455   4.079   4.539  15.289  0.6089 -2.2465  0.4402
17322TIP3   OH273456   5.112   3.532  14.814  0.2293  0.0419 -0.4040
17322TIP3    H173457   5.034   3.560  14.863 -0.5960  0.1861 -1.7549
17322TIP3    H273458   5.179   3.597  14.835 -0.4451  0.7191 -0.3210
17323TIP3   OH273459   1.918   3.386   0.851  0.2428  0.2365  0.5525
17323TIP3    H173460   1.830   3.397   0.887  0.6152  2.0067  1.0304
17323TIP3    H273461   1.960   3.322   0.908 -0.6883 -0.5250  0.3943
17324TIP3   OH273462   3.908   0.122  12.142 -0.3189  0.2328 -0.2416
17324TIP3    H173463   3.827   0.071  12.138  0.1157 -0.4284 -0.8486
17324TIP3    H273464   3.941   0.108  12.230 -1.6112  1.7089  0.5312
17325TIP3   OH273465   4.615   0.298   4.845 -0.4245 -0.5498  0.3563
17325TIP3    H173466   4.668   0.282   4.768 -0.8182 -0.6554  0.1033
17325TIP3    H273467   4.527   0.267   4.821 -0.8479  0.5536  0.3864
17326TIP3   OH273468   3.802   6.728   1.694  0.1175 -0.1556 -0.1045
17326TIP3    H173469   3.751   6.652   1.662  0.1070 -0.1657 -0.0638
17326TIP3    H273470   3.779   6.735   1.786  0.4734 -0.3848  0.0017
17327TIP3   OH273471   2.970   2.268   5.077  1.1554 -0.3256 -0.5701
17327TIP3    H173472   3.014   2.350   5.098 -0.0088  0.0243  0.6192
17327TIP3    H273473   2.883   2.294   5.046  0.2130 -1.1116  1.2658
17328TIP3   OH273474   1.973   6.375   4.308  0.7856 -0.3709 -0.0157
17328TIP3    H173475   1.961   6.314   4.236 -0.1523 -1.5243  1.0639
17328TIP3    H273476   2.031   6.329   4.369 -0.0033 -0.2591  0.8505
17329TIP3   OH273477   5.276   4.599  12.657 -0.4412  0.6326  0.1104
17329TIP3    H173478   5.186   4.628  12.676 -0.9343 -1.0496  0.5063
17329TIP3    H273479   5.265   4.512  12.620  1.0855  0.1082  0.8596
17330TIP3   OH273480   0.601   5.457   4.507  0.0486  0.2540 -0.0317
17330TIP3    H173481   0.607   5.378   4.452 -0.2405  1.0124 -1.1868
17330TIP3    H273482   0.606   5.424   4.597 -0.3311 -1.1071 -0.4849
17331TIP3   OH273483   3.048   3.526  12.333  0.0249  0.1296  0.6671
17331TIP3    H173484   2.974   3.510  12.274  0.9127 -1.3328 -0.1114
17331TIP3    H273485   3.061   3.621  12.330  0.5071  0.0655 -2.1297
17332TIP3   OH273486   2.511   5.876   3.610 -0.1108 -0.2457 -0.0893
17332TIP3    H173487   2.579   5.854   3.547 -1.1434 -1.4054 -0.8374
17332TIP3    H273488   2.430   5.846   3.570 -1.1513  1.5030  0.5748
17333TIP3   OH273489   4.625   2.265  11.185  0.2129 -0.0792 -0.0501
17333TIP3    H173490   4.572   2.312  11.250 -1.1767 -1.3433 -0.2215
17333TIP3    H273491   4.612   2.173  11.207  0.8184 -0.4734 -1.3054
17334TIP3   OH273492   6.162   0.637   4.716  0.4592 -0.6116  0.3178
17334TIP3    H173493   6.170   0.733   4.711 -2.5981 -0.2555  0.0360
17334TIP3    H273494   6.217   0.612   4.790  0.0125  1.5847  1.4906
17335TIP3   OH273495   5.591   7.061   3.554 -0.2206  0.1426 -0.3871
17335TIP3    H173496   5.602   6.966   3.548  0.9064  0.1518  1.0003
17335TIP3    H273497   5.640   7.086   3.632 -1.0829  1.7909 -0.3309
17336TIP3   OH273498   0.557   6.661  15.519 -0.4350 -0.5696  0.3559
17336TIP3    H173499   0.513   6.576  15.511 -1.3492 -0.0599 -0.3133
17336TIP3    H273500   0.600   6.674  15.434  0.6486 -0.8489  0.8436
17337TIP3   OH273501   1.045   5.926   0.417 -0.6888  1.0511  0.1187
17337TIP3    H173502   1.025   5.986   0.490 -1.8941  0.3496  0.3952
17337TIP3    H273503   1.017   5.840   0.449 -3.9807  1.0962 -2.1415
17338TIP3   OH273504   3.543   0.519  13.053 -1.1182 -0.3372 -0.2258
17338TIP3    H173505   3.501   0.604  13.039 -0.2612 -0.0126 -0.8487
17338TIP3    H273506   3.477   0.455  13.026 -2.6023  0.0024  2.2223
17339TIP3   OH273507   0.396   1.637  14.903  0.2368  0.4940  0.1997
17339TIP3    H173508   0.358   1.620  14.989 -1.7898 -0.3926 -0.7954
17339TIP3    H273509   0.445   1.557  14.883 -1.1977 -0.2819 -0.3803
17340TIP3   OH273510   2.696   0.629   1.916  1.0099  0.5373 -0.3696
17340TIP3    H173511   2.646   0.710   1.927 -0.1022 -0.1593 -0.1217
17340TIP3    H273512   2.709   0.622   1.821  0.3426  0.5673 -0.4686
17341TIP3   OH273513   5.219   6.618   0.930  0.2547  0.5021  0.6655
17341TIP3    H173514   5.166   6.538   0.933  1.5975 -0.4102  0.9234
17341TIP3    H273515   5.155   6.689   0.936 -1.1417 -0.4814 -1.4019
17342TIP3   OH273516   6.395   0.454  15.014 -0.4707 -0.3144 -0.0175
17342TIP3    H173517   6.455   0.525  15.038 -2.0736 -0.0445  3.8975
17342TIP3    H273518   6.381   0.466  14.920  2.5609  1.8998 -0.3574
17343TIP3   OH273519   7.133   5.912   5.754  0.1541  0.0763  0.0622
17343TIP3    H173520   7.166   5.823   5.746 -0.6038 -0.3753  1.6336
17343TIP3    H273521   7.085   5.913   5.837 -0.8850  1.6191 -0.5051
17344TIP3   OH273522   5.291   1.381   1.861 -0.7835 -0.4769 -0.1035
17344TIP3    H173523   5.324   1.291   1.866 -0.3334 -0.2923  0.2906
17344TIP3    H273524   5.196   1.372   1.870 -0.9059 -1.0544 -1.6902
17345TIP3   OH273525   5.978   2.682   3.070  0.3389 -0.0554 -0.7616
17345TIP3    H173526   6.013   2.637   2.993  0.6826  0.5771 -0.9872
17345TIP3    H273527   5.884   2.686   3.054  0.0799 -2.1002  0.0263
17346TIP3   OH273528   4.717   6.364   4.048 -0.1444  0.1476  0.1250
17346TIP3    H173529   4.801   6.318   4.049  0.0838  0.5573  0.2961
17346TIP3    H273530   4.728   6.432   3.981  0.0697  0.9328  0.9393
17347TIP3   OH273531   6.674   4.065   4.509  0.7076  0.0666 -0.3767
17347TIP3    H173532   6.715   3.979   4.510 -1.8730 -1.3121  1.6289
17347TIP3    H273533   6.666   4.089   4.602 -0.1995  1.6331 -0.8154
17348TIP3   OH273534   4.035   2.297   2.077 -0.3666 -0.1914 -0.3515
17348TIP3    H173535   3.990   2.346   2.008 -0.8647  0.4037  0.3815
17348TIP3    H273536   3.990   2.322   2.157  0.8727 -0.0809  0.3325
17349TIP3   OH273537   3.552   3.127   5.402  0.0891  0.7330  0.3770
17349TIP3    H173538   3.645   3.139   5.385  0.4849 -0.6894  1.3468
17349TIP3    H273539   3.520   3.214   5.423  1.0840  1.3197 -0.4184
17350TIP3   OH273540   2.367   4.510   3.868 -0.9371 -0.1713 -0.2595
17350TIP3    H173541   2.406   4.422   3.876 -2.9436 -1.3297 -2.1751
17350TIP3    H273542   2.298   4.512   3.934  0.2395  0.7061  1.0024
17351TIP3   OH273543   3.640   0.924   0.963 -0.0791 -0.3340  0.1183
17351TIP3    H173544   3.728   0.926   1.002  1.1792 -0.2398 -2.4513
17351TIP3    H273545   3.640   0.845   0.908  0.0246  1.7280 -3.1211
17352TIP3   OH273546   0.218   6.692   0.340 -0.5910  0.6961  0.2952
17352TIP3    H173547   0.205   6.723   0.251  0.0728  2.4689  0.7777
17352TIP3    H273548   0.151   6.738   0.392 -0.3164  0.4770  0.8599
17353TIP3   OH273549   1.123   7.013   5.430 -0.1572 -0.0838 -0.0083
17353TIP3    H173550   1.111   7.047   5.342  2.6567  0.4594 -0.2805
17353TIP3    H273551   1.085   6.925   5.427  1.9304 -1.0566 -2.5755
17354TIP3   OH273552   3.397   1.871  13.645 -0.5155 -0.3160  0.0414
17354TIP3    H173553   3.448   1.802  13.689  0.7563  1.0741  0.8629
17354TIP3    H273554   3.308   1.858  13.675  0.0095 -0.5808  1.5827
17355TIP3   OH273555   2.041   3.092   2.620 -0.4954  0.2302 -0.0403
17355TIP3    H173556   2.078   3.142   2.693 -0.5244  0.2846 -0.0620
17355TIP3    H273557   2.076   3.136   2.542 -0.9098  0.5218 -0.0666
17356TIP3   OH273558   6.001   2.131   5.450  0.2762  0.2611 -0.3515
17356TIP3    H173559   6.063   2.125   5.522 -1.6479 -0.7336  1.3461
17356TIP3    H273560   5.915   2.137   5.493 -0.8622  1.1213 -2.5634
17357TIP3   OH273561   2.385   4.134   2.019 -0.5268 -0.5945 -0.4965
17357TIP3    H173562   2.478   4.156   2.027 -0.5565 -0.9514  1.4316
17357TIP3    H273563   2.375   4.103   1.929  0.9739  0.5004 -1.0821
17358TIP3   OH273564   4.703   2.433  14.944 -0.1497 -0.2339 -0.0689
17358TIP3    H173565   4.668   2.403  14.860  0.0007  1.6567 -0.8575
17358TIP3    H273566   4.655   2.513  14.963  0.5382 -0.0878  1.1389
17359TIP3   OH273567   0.549   3.472   0.928  0.0765  0.0507  0.2246
17359TIP3    H173568   0.527   3.379   0.916 -1.0852  0.2383  0.7684
17359TIP3    H273569   0.561   3.481   1.023 -3.9571  1.2622  0.7749
17360TIP3   OH273570   0.385   5.133   0.055  0.2573 -0.6988  0.7320
17360TIP3    H173571   0.429   5.051   0.077 -0.1990 -1.3895 -0.7890
17360TIP3    H273572   0.453   5.200   0.060  0.6280 -1.1432  2.0100
17361TIP3   OH273573   2.542   4.271  14.980  0.4187  0.6014  0.1598
17361TIP3    H173574   2.610   4.318  15.028  0.9467 -0.4309  0.4643
17361TIP3    H273575   2.462   4.284  15.031  0.6467  0.8079  0.4659
17362TIP3   OH273576   5.926   2.844   0.472  0.5387  0.3026 -0.1982
17362TIP3    H173577   6.017   2.839   0.501  0.6829 -0.5482 -0.7686
17362TIP3    H273578   5.901   2.753   0.455 -0.3312  0.5539 -0.3308
17363TIP3   OH273579   4.804   1.397   5.765 -0.5426  0.0261  0.1926
17363TIP3    H173580   4.863   1.458   5.723  0.3139  0.1746  1.5367
17363TIP3    H273581   4.721   1.444   5.772 -1.4791 -0.8382 -3.3898
17364TIP3   OH273582   4.706   6.973  12.941 -0.6902 -0.2926  0.4817
17364TIP3    H173583   4.672   6.950  12.855 -0.1354 -1.4216  0.5488
17364TIP3    H273584   4.635   6.950  13.001 -0.0010 -2.3372  0.5889
17365TIP3   OH273585   4.518   3.388   3.443  0.7089 -0.4132  0.0579
17365TIP3    H173586   4.466   3.313   3.473  0.9908  0.1884  2.2011
17365TIP3    H273587   4.542   3.434   3.523  0.3683  2.1240 -1.2192
17366TIP3   OH273588   6.427   0.982   2.836  0.1891 -0.1206  0.5162
17366TIP3    H173589   6.361   0.937   2.890  1.1413 -2.6833 -0.3066
17366TIP3    H273590   6.379   1.006   2.757  0.1240 -1.7768  0.0107
17367TIP3   OH273591   6.881   0.622   2.358  0.0530  0.2217  0.7836
17367TIP3    H173592   6.878   0.576   2.274 -1.0449  0.2618  0.7832
17367TIP3    H273593   6.895   0.713   2.334 -2.4587  0.5868  0.4643
17368TIP3   OH273594   3.289   2.836   4.119  0.4070  0.1611 -0.0641
17368TIP3    H173595   3.202   2.796   4.133  1.3247 -2.0418 -0.2005
17368TIP3    H273596   3.283   2.875   4.032 -0.6453  0.5900  0.1850
17369TIP3   OH273597   0.563   4.222   4.488  0.0364  0.2976  0.2155
17369TIP3    H173598   0.628   4.233   4.419 -0.0354  2.4086  0.4020
17369TIP3    H273599   0.600   4.268   4.564 -1.4238  1.1474  0.4649
17370TIP3   OH273600   4.146   4.609   4.649 -0.0825 -0.0404  0.1114
17370TIP3    H173601   4.212   4.621   4.718  1.4348  0.2041 -1.3104
17370TIP3    H273602   4.106   4.695   4.639  0.1384  0.0797  0.2541
17371TIP3   OH273603   0.927   0.698   3.064  0.7862 -0.3757 -0.7246
17371TIP3    H173604   0.871   0.628   3.030  0.4218  0.8936 -2.9380
17371TIP3    H273605   0.865   0.765   3.094  1.1185 -0.2311 -0.3622
17372TIP3   OH273606   0.756   2.817   1.536  0.4454  0.4285 -0.5704
17372TIP3    H173607   0.829   2.782   1.485 -1.8030 -2.5150 -2.0330
17372TIP3    H273608   0.679   2.805   1.481 -1.2395  3.5083  0.8572
17373TIP3   OH273609   1.757   3.367  10.794  0.2452 -0.0839  0.6109
17373TIP3    H173610   1.683   3.416  10.830 -0.8352  0.1122 -1.7253
17373TIP3    H273611   1.834   3.417  10.822 -0.6870  1.5165  0.4229
17374TIP3   OH273612   0.031   4.153   0.044  0.0240  0.4224  0.0389
17374TIP3    H173613   0.102   4.101   0.006 -0.6909 -0.7257  0.2344
17374TIP3    H273614   0.023   4.119   0.133 -2.0821 -0.8921 -0.5876
17375TIP3   OH273615   6.156   1.078   4.503 -0.1119  0.3485  0.1818
17375TIP3    H173616   6.217   1.151   4.514  0.4791 -0.0059 -0.6320
17375TIP3    H273617   6.075   1.108   4.543 -0.3381  2.0402 -1.4356
17376TIP3   OH273618   5.650   0.445   5.456  0.6204  0.3104 -0.3794
17376TIP3    H173619   5.625   0.469   5.545  0.8251 -1.7967  0.3170
17376TIP3    H273620   5.726   0.499   5.437  0.4363  0.9612  0.6363
17377TIP3   OH273621   4.051   1.714  11.515 -0.2228 -0.0064 -0.0907
17377TIP3    H173622   4.026   1.781  11.450  1.5740 -0.7890 -1.7066
17377TIP3    H273623   4.103   1.652  11.465  1.6211 -0.4384  2.2262
17378TIP3   OH273624   3.044   6.331   2.122 -0.1010 -0.0248 -0.3983
17378TIP3    H173625   3.065   6.360   2.211 -1.8658  0.4175 -0.0750
17378TIP3    H273626   2.987   6.400   2.087  1.4284  0.3650 -2.3166
17379TIP3   OH273627   1.182   1.217   6.034 -0.2242  0.0382 -0.2882
17379TIP3    H173628   1.146   1.294   6.078 -0.2492 -0.8772  1.4032
17379TIP3    H273629   1.274   1.215   6.062  1.0826  1.8142 -3.7942
17380TIP3   OH273630   5.615   2.286   9.888 -0.4124 -0.5165  0.0869
17380TIP3    H173631   5.558   2.253   9.957 -2.0000  0.1467 -0.8467
17380TIP3    H273632   5.671   2.350   9.931 -0.0427 -1.5041  1.1149
17381TIP3   OH273633   4.972   2.850   4.854 -0.3826 -0.2592 -0.1844
17381TIP3    H173634   4.924   2.888   4.928  1.6331 -0.7419  1.4670
17381TIP3    H273635   5.042   2.799   4.895 -0.7518 -2.7722 -2.3938
17382TIP3   OH273636   3.676   3.319   2.836 -0.1589  0.0237 -0.5428
17382TIP3    H173637   3.758   3.320   2.786  2.3939  3.1497  3.1447
17382TIP3    H273638   3.668   3.229   2.867  1.7200 -0.4334 -1.2334
17383TIP3   OH273639   4.130   3.624  15.521 -0.8689  0.5567  0.3930
17383TIP3    H173640   4.161   3.541  15.485  0.2715  1.1926 -0.1509
17383TIP3    H273641   4.179   3.634  15.603  0.1475  1.4132 -0.3058
17384TIP3   OH273642   4.850   6.752   1.199  0.2569  0.0929 -0.7381
17384TIP3    H173643   4.774   6.714   1.154  0.0860  0.6636 -0.9455
17384TIP3    H273644   4.877   6.685   1.261 -0.4806 -0.0791 -0.5901
17385TIP3   OH273645   4.214   6.297   4.444  0.7531 -0.3309  0.1919
17385TIP3    H173646   4.132   6.250   4.459  0.9177 -0.3801  1.0064
17385TIP3    H273647   4.212   6.320   4.352 -0.4454  0.1814  0.3314
17386TIP3   OH273648   1.859   0.141  15.619  0.0312  0.0433  0.7431
17386TIP3    H173649   1.811   0.207  15.568  1.2577  1.1950  1.0187
17386TIP3    H273650   1.852   0.172  15.709 -0.2445 -0.7834  1.0108
17387TIP3   OH273651   6.659   1.189  12.451  0.5210  0.1326  0.1031
17387TIP3    H173652   6.607   1.114  12.478  0.7992  0.1304  0.6519
17387TIP3    H273653   6.642   1.198  12.357 -0.2958  0.0025  0.2296
17388TIP3   OH273654   2.997   6.905   3.169 -0.0674 -0.0718  0.1948
17388TIP3    H173655   3.067   6.951   3.122  0.1085 -1.3221 -0.8030
17388TIP3    H273656   2.930   6.972   3.184  0.2464  0.5612 -1.0868
17389TIP3   OH273657   0.446   0.899   0.057 -0.0119 -0.0923  0.1250
17389TIP3    H173658   0.431   0.989   0.029  1.7323 -0.3531 -1.8436
17389TIP3    H273659   0.537   0.881   0.034  0.3722 -1.6746  2.5329
17390TIP3   OH273660   4.359   4.327   3.736 -0.5329 -0.6478 -0.0880
17390TIP3    H173661   4.427   4.301   3.799 -0.5691 -0.5655 -0.0158
17390TIP3    H273662   4.402   4.321   3.651 -0.3869 -0.4387 -0.0299
17391TIP3   OH273663   3.720   1.581  13.056  0.2923  0.0251  0.4873
17391TIP3    H173664   3.627   1.565  13.039  0.1922  2.2246 -1.4795
17391TIP3    H273665   3.734   1.672  13.030  3.9757 -1.4462 -3.8536
17392TIP3   OH273666   1.409   7.035   2.145  0.3207 -0.2694  0.2137
17392TIP3    H173667   1.430   7.119   2.186  2.1655  0.6467 -2.3717
17392TIP3    H273668   1.491   7.005   2.107 -0.6624 -2.4818 -0.3326
17393TIP3   OH273669   6.787   5.830   2.884  0.3281 -0.1691  0.2894
17393TIP3    H173670   6.740   5.747   2.892  0.8844 -0.4463  0.7391
17393TIP3    H273671   6.804   5.857   2.974  1.9392 -0.6104  0.1545
17394TIP3   OH273672   1.272   4.306   1.974 -0.1957 -0.2535 -0.4085
17394TIP3    H173673   1.285   4.397   1.949 -1.0252  0.8081  2.5537
17394TIP3    H273674   1.339   4.289   2.041 -0.7765 -1.4246 -0.0930
17395TIP3   OH273675   1.175   3.799   0.044  0.1300 -0.2990  0.2416
17395TIP3    H173676   1.206   3.718   0.084 -1.7609 -0.5942  1.2220
17395TIP3    H273677   1.243   3.823  -0.019  1.8622 -1.3284  1.6504
17396TIP3   OH273678   1.133   2.138  15.144  0.2299 -0.5137  0.0215
17396TIP3    H173679   1.129   2.072  15.213  0.4934  0.0934  0.6256
17396TIP3    H273680   1.222   2.131  15.109  0.0118 -1.0048 -0.4479
17397TIP3   OH273681   5.688   1.091   3.070 -0.8495  0.1038 -0.0635
17397TIP3    H173682   5.738   1.020   3.112  0.1094  1.3693  1.0159
17397TIP3    H273683   5.612   1.047   3.033  0.1892 -1.6422 -0.2737
17398TIP3   OH273684   5.056   5.411   5.411  0.0208 -0.1361 -0.4170
17398TIP3    H173685   4.981   5.449   5.457  0.1310 -0.6272  0.1685
17398TIP3    H273686   5.030   5.321   5.394  1.4443 -1.0754  2.0233
17399TIP3   OH273687   6.247   6.017  11.080  0.5217 -0.1455  0.3772
17399TIP3    H173688   6.289   5.950  11.026 -1.1081  0.4676 -1.7920
17399TIP3    H273689   6.158   5.985  11.093  0.2337  0.7927  0.7985
17400TIP3   OH273690   6.044   7.075   6.049  0.8322  0.2879  0.0998
17400TIP3    H173691   6.059   7.032   6.133 -1.2084 -0.5492  0.1148
17400TIP3    H273692   6.018   7.004   5.990  1.6512  0.9422 -1.0860
17401TIP3   OH273693   2.598   7.069   4.819  0.3980 -0.1323  0.1382
17401TIP3    H173694   2.660   7.125   4.772  0.9254 -1.4154 -0.7600
17401TIP3    H273695   2.652   7.022   4.882 -0.1200  0.6930  1.2272
17402TIP3   OH273696   4.471   7.115  13.197 -0.4579 -0.3233  0.2364
17402TIP3    H173697   4.472   7.025  13.164  0.3389 -0.0220 -0.5986
17402TIP3    H273698   4.520   7.111  13.279  0.7889 -0.4040 -0.4972
17403TIP3   OH273699   5.982   2.476   5.564  0.1622 -0.4996  0.7803
17403TIP3    H173700   6.063   2.425   5.575  0.4199 -0.7740 -1.7355
17403TIP3    H273701   5.991   2.550   5.624  1.4811 -1.4297  1.7881
17404TIP3   OH273702   0.908   0.481   5.390  0.2667 -0.4311 -0.0830
17404TIP3    H173703   0.834   0.484   5.450 -0.3872 -2.2349 -0.7264
17404TIP3    H273704   0.896   0.558   5.334 -1.1691 -0.7253 -0.2183
17405TIP3   OH273705   6.505   1.690   5.099 -0.0322  0.0006 -0.0734
17405TIP3    H173706   6.557   1.670   5.177  0.9904  0.4998 -0.6156
17405TIP3    H273707   6.417   1.658   5.120 -0.4103  2.2285  2.2287
17406TIP3   OH273708   0.496   0.147  10.726  0.3251 -0.1159  0.3228
17406TIP3    H173709   0.559   0.210  10.762  0.9855 -0.3863 -0.3292
17406TIP3    H273710   0.412   0.173  10.764  0.3764  1.8763 -0.8016
17407TIP3   OH273711   1.755   2.515   0.469  0.7849 -0.2023  0.1641
17407TIP3    H173712   1.760   2.453   0.542  2.0309  1.1613  1.3183
17407TIP3    H273713   1.799   2.470   0.397  0.1922 -1.2957  0.4578
17408TIP3   OH273714   2.146   6.253   4.468  0.3032  0.2774 -0.1561
17408TIP3    H173715   2.127   6.256   4.562  1.6416  0.7031  0.1252
17408TIP3    H273716   2.242   6.261   4.463  0.4290 -1.4974 -1.4700
17409TIP3   OH273717   4.516   4.086   3.253  0.5418 -0.0420  0.2125
17409TIP3    H173718   4.488   4.076   3.344 -0.2850  1.0770  0.0978
17409TIP3    H273719   4.535   4.179   3.244  0.4227 -0.1126 -0.8133
17410TIP3   OH273720   3.388   1.716   2.988  0.1938  0.8016  0.5140
17410TIP3    H173721   3.333   1.722   2.910  0.6322 -2.4476 -0.1966
17410TIP3    H273722   3.473   1.751   2.960  0.6232 -1.1591 -0.8815
17411TIP3   OH273723   3.499   3.456   4.949 -0.0400 -0.1973 -0.0668
17411TIP3    H173724   3.413   3.496   4.942 -0.4089 -0.9810 -0.1086
17411TIP3    H273725   3.544   3.479   4.868  0.7540  2.3961  1.0230
17412TIP3   OH273726   4.070   4.642   0.253  0.1974 -0.2786  0.3537
17412TIP3    H173727   4.125   4.616   0.326 -1.2271 -1.5113  1.0479
17412TIP3    H273728   4.027   4.723   0.282 -0.4206 -0.8057  0.9460
17413TIP3   OH273729   4.194   0.013   0.643 -0.4441  0.4889  0.1227
17413TIP3    H173730   4.235   0.093   0.609  0.6137 -0.2427 -0.3650
17413TIP3    H273731   4.108   0.011   0.601  0.8477 -0.4358 -2.6696
17414TIP3   OH273732   4.344   2.796   0.157  0.1132 -0.2089  0.3510
17414TIP3    H173733   4.406   2.823   0.090 -0.2718 -0.5339 -0.1458
17414TIP3    H273734   4.398   2.773   0.232  0.5470  0.2024  0.1694
17415TIP3   OH273735   3.523   1.463   2.394 -0.4145 -0.6747  0.1162
17415TIP3    H173736   3.582   1.501   2.459 -0.8511 -0.8513  0.6246
17415TIP3    H273737   3.580   1.436   2.322  0.1998 -1.3909  0.8551
17416TIP3   OH273738   6.428   0.754  12.819  0.1469 -0.6297 -0.5726
17416TIP3    H173739   6.440   0.752  12.914 -1.7994 -0.3076 -0.2654
17416TIP3    H273740   6.515   0.740  12.783  1.1480  0.4471  1.2587
17417TIP3   OH273741   4.877   5.696   2.509 -0.2400  0.4281  0.0497
17417TIP3    H173742   4.814   5.628   2.484  0.4677  0.0938 -0.8944
17417TIP3    H273743   4.870   5.762   2.441  0.1925  0.5439  0.1095
17418TIP3   OH273744   4.639   1.436  10.296 -0.4083  0.0360 -0.4218
17418TIP3    H173745   4.713   1.377  10.281 -1.1853 -0.9553 -0.4389
17418TIP3    H273746   4.647   1.502  10.227  0.6997  0.2043 -0.1584
17419TIP3   OH273747   0.965   2.629  12.362 -0.2439  0.2326 -0.4588
17419TIP3    H173748   0.943   2.720  12.343 -0.4450  0.3480  0.3031
17419TIP3    H273749   1.022   2.634  12.439  0.7472 -0.2053 -1.1478
17420TIP3   OH273750   4.871   2.073  14.699  0.2233 -0.3466 -0.5967
17420TIP3    H173751   4.909   2.109  14.779 -1.1605 -0.9040  0.3320
17420TIP3    H273752   4.912   2.124  14.629  0.1365  1.3796  0.5420
17421TIP3   OH273753   7.014   3.345   2.172 -0.1391 -0.2107 -0.7277
17421TIP3    H173754   6.973   3.276   2.120  0.3812 -0.5924 -0.6447
17421TIP3    H273755   6.946   3.412   2.182 -0.8082 -0.9225 -0.4199
17422TIP3   OH273756   5.606   5.679   2.139  0.9092 -0.1035 -0.2255
17422TIP3    H173757   5.533   5.655   2.196  1.4103  2.4190  1.6498
17422TIP3    H273758   5.617   5.603   2.081 -4.1264 -0.0510 -1.7120
17423TIP3   OH273759   0.555   3.203   5.052 -0.0082  0.5883 -0.5792
17423TIP3    H173760   0.555   3.113   5.018 -2.0041  0.7279 -1.0462
17423TIP3    H273761   0.510   3.198   5.136 -0.9658  1.2806 -1.0330
17424TIP3   OH273762   6.009   4.187  11.833 -0.4869 -0.1670  0.4320
17424TIP3    H173763   5.982   4.257  11.893  0.7064  1.2061 -0.5439
17424TIP3    H273764   5.944   4.189  11.763 -0.5044 -0.0959  0.4507
17425TIP3   OH273765   4.797   1.715   0.038  0.1728 -1.1367 -0.6194
17425TIP3    H173766   4.869   1.663   0.002  0.2166 -0.1263 -2.0674
17425TIP3    H273767   4.747   1.743  -0.038 -0.8429 -0.4835  0.2569
17426TIP3   OH273768   6.558   6.207  14.012 -0.7890 -0.4217 -1.1762
17426TIP3    H173769   6.582   6.264  13.939 -0.7848 -0.0996 -0.9252
17426TIP3    H273770   6.468   6.181  13.993 -0.8563 -0.1781 -1.1973
17427TIP3   OH273771   1.132   0.331   4.814 -0.1365  0.1034 -0.1364
17427TIP3    H173772   1.080   0.410   4.804  0.1747  0.0782 -2.6082
17427TIP3    H273773   1.217   0.362   4.847 -0.9177  0.3921  1.7433
17428TIP3   OH273774   7.002   3.473   5.007  0.1165 -0.9558 -0.2957
17428TIP3    H173775   6.933   3.443   4.948  0.3402 -0.6332 -0.7242
17428TIP3    H273776   6.990   3.421   5.086  0.6567 -2.3740 -1.1031
17429TIP3   OH273777   5.607   5.366  14.921  0.0608  0.1277  0.5053
17429TIP3    H173778   5.628   5.339  15.010  0.7031  0.2916  0.4107
17429TIP3    H273779   5.691   5.369  14.876 -0.2235  0.3341 -0.0276
17430TIP3   OH273780   3.238   5.634   5.166 -0.4715  0.0030  0.0064
17430TIP3    H173781   3.330   5.623   5.143 -0.6746  0.2217 -0.9296
17430TIP3    H273782   3.190   5.624   5.084 -1.4920 -2.3026  0.7927
17431TIP3   OH273783   0.983   3.625   6.049  0.5296  0.5410  0.0575
17431TIP3    H173784   0.965   3.531   6.037  0.1334  0.6069  0.1391
17431TIP3    H273785   0.925   3.668   5.986 -0.5502  0.8241  1.2178
17432TIP3   OH273786   1.068   2.859  12.943  0.1117 -0.2145  0.2265
17432TIP3    H173787   1.156   2.890  12.968  1.1426 -2.0314 -0.9221
17432TIP3    H273788   1.062   2.877  12.850  0.0158 -1.6803 -0.0801
17433TIP3   OH273789   6.622   5.072   0.874  0.3255 -0.2414  1.1785
17433TIP3    H173790   6.668   4.997   0.911  1.8982  1.1435  2.1495
17433TIP3    H273791   6.688   5.142   0.870 -0.5848  0.5979 -1.3724
17434TIP3   OH273792   1.954   4.633   1.430 -0.5318  0.3618  0.4875
17434TIP3    H173793   2.047   4.654   1.435 -0.4729  0.0547  0.6948
17434TIP3    H273794   1.910   4.710   1.465 -0.3423  0.4047  0.6334
17435TIP3   OH273795   2.845   6.575   4.431 -0.3811  0.9376  0.0762
17435TIP3    H173796   2.930   6.569   4.475  0.3261  3.3824 -0.8100
17435TIP3    H273797   2.783   6.535   4.492  1.0980  0.9685  1.6620
17436TIP3   OH273798   5.673   5.861   3.934 -0.2752  0.6264 -0.4713
17436TIP3    H173799   5.626   5.877   4.015  0.7417  0.1851  0.2276
17436TIP3    H273800   5.765   5.856   3.960  0.1280  1.0297 -1.7279
17437TIP3   OH273801   5.709   4.408  13.035 -0.1241  0.0646  0.1566
17437TIP3    H173802   5.667   4.436  12.954  2.3031  0.3275 -1.1165
17437TIP3    H273803   5.637   4.394  13.097 -2.0532 -0.2028 -2.0410
17438TIP3   OH273804   0.207   3.287  12.684  0.2675 -0.2666 -0.1227
17438TIP3    H173805   0.148   3.347  12.731 -0.1222 -2.9074  3.1783
17438TIP3    H273806   0.152   3.247  12.616 -0.3112  0.8566 -0.3354
17439TIP3   OH273807   0.432   6.833  15.304  0.4668  0.3100 -0.3216
17439TIP3    H173808   0.402   6.865  15.219 -0.0263 -2.8073 -1.4551
17439TIP3    H273809   0.506   6.775  15.284  2.6863  2.2073  1.7726
17440TIP3   OH273810   5.250   3.116   0.031  0.4415 -0.6050  0.1587
17440TIP3    H173811   5.252   3.055   0.104  0.2243 -0.3675  0.3619
17440TIP3    H273812   5.158   3.142   0.022  0.1351 -2.0310 -1.3599
17441TIP3   OH273813   1.042   1.155   0.599  0.1078  0.4956  0.2719
17441TIP3    H173814   1.123   1.206   0.595 -0.1227  0.8152 -0.4431
17441TIP3    H273815   1.050   1.104   0.680  1.5771 -0.4271 -0.4021
17442TIP3   OH273816   3.968   0.983   1.667  0.2136  0.2543  0.4745
17442TIP3    H173817   3.961   1.075   1.693  1.8141  0.7022 -0.5360
17442TIP3    H273818   4.024   0.944   1.734 -0.8020 -0.1106  1.1346
17443TIP3   OH273819   5.569   0.316   4.527 -0.0288  0.2164  0.0926
17443TIP3    H173820   5.516   0.325   4.448  0.8910  1.4785 -0.4152
17443TIP3    H273821   5.506   0.313   4.598 -0.8005  1.2507 -0.5260
17444TIP3   OH273822   1.566   1.457   2.112  0.4994 -0.1440  0.1853
17444TIP3    H173823   1.571   1.499   2.198  3.1144 -2.9439  1.5978
17444TIP3    H273824   1.590   1.365   2.129  0.0730 -1.0528 -3.3953
17445TIP3   OH273825   3.754   1.178   3.203  0.2131 -0.5054 -0.0574
17445TIP3    H173826   3.751   1.083   3.218 -0.2979 -0.4862 -0.0307
17445TIP3    H273827   3.727   1.216   3.286  2.7129 -0.2642  0.7281
17446TIP3   OH273828   4.601   0.630   5.726  0.5367 -0.4491 -0.5918
17446TIP3    H173829   4.510   0.610   5.746  0.8595 -2.8072 -1.1657
17446TIP3    H273830   4.598   0.677   5.642 -0.2518  2.1179  0.7515
17447TIP3   OH273831   5.091   5.703   5.078  0.1428  0.0220 -0.0580
17447TIP3    H173832   4.998   5.720   5.095 -0.1264 -0.3900 -1.0213
17447TIP3    H273833   5.124   5.666   5.160 -0.4237  0.6220  0.4543
17448TIP3   OH273834   5.040   5.840   2.696  0.0466  0.2028 -0.2665
17448TIP3    H173835   4.989   5.783   2.637 -1.5295 -0.6815  1.8270
17448TIP3    H273836   4.992   5.923   2.695  0.5129  0.4761 -0.8428
17449TIP3   OH273837   5.427   3.262   2.124 -0.2214 -0.0486 -0.3036
17449TIP3    H173838   5.511   3.218   2.114 -0.0352  0.4417 -0.9999
17449TIP3    H273839   5.447   3.344   2.167 -0.8467 -1.4991  3.0661
17450TIP3   OH273840   1.006   5.418   4.046  0.1687 -0.0968 -0.4476
17450TIP3    H173841   0.946   5.453   3.979 -1.1574 -1.5338 -0.0796
17450TIP3    H273842   1.084   5.473   4.040 -0.7942  1.2107 -1.6507
17451TIP3   OH273843   7.061   6.599   4.338 -0.4113 -0.1704  0.5003
17451TIP3    H173844   7.112   6.668   4.295  0.3103 -0.9943  0.0043
17451TIP3    H273845   6.970   6.625   4.323 -0.1791  1.3263  1.4065
17452TIP3   OH273846   4.842   7.078   5.425 -0.7598  0.2977 -0.0349
17452TIP3    H173847   4.859   6.984   5.421 -0.8279  0.3071 -3.0343
17452TIP3    H273848   4.746   7.085   5.419 -0.6934  0.5297 -1.0936
17453TIP3   OH273849   0.717   5.747   1.589 -0.0818  0.3029  0.4900
17453TIP3    H173850   0.793   5.803   1.573  0.0800 -0.3559 -1.2146
17453TIP3    H273851   0.641   5.803   1.574  0.0663  0.6003  0.8422
17454TIP3   OH273852   2.710   6.143   1.822 -0.2762 -0.2797  0.0635
17454TIP3    H173853   2.715   6.061   1.872 -2.2474  0.3340  1.4068
17454TIP3    H273854   2.675   6.116   1.737 -0.3745 -0.9157  0.2960
17455TIP3   OH273855   3.290   2.248   0.584  0.0039 -0.3409 -0.2144
17455TIP3    H173856   3.196   2.255   0.567 -0.1323 -0.5234  0.4134
17455TIP3    H273857   3.304   2.155   0.601  0.2529 -0.2807 -0.0825
17456TIP3   OH273858   6.006   2.406   3.202  0.9640  0.1803  0.3328
17456TIP3    H173859   5.937   2.460   3.240  0.4663  0.6196 -1.1597
17456TIP3    H273860   5.959   2.337   3.155  1.4508  1.3562 -1.9913
17457TIP3   OH273861   4.292   1.960   4.074 -0.2105  0.0692  0.7787
17457TIP3    H173862   4.293   2.055   4.080 -1.0064  0.1390  0.0058
17457TIP3    H273863   4.379   1.933   4.104  0.5111  1.1229 -0.2722
17458TIP3   OH273864   0.883   7.117   2.858  0.2117  0.5271 -0.0286
17458TIP3    H173865   0.925   7.031   2.848 -0.5112  0.0885  0.5646
17458TIP3    H273866   0.953   7.174   2.889  0.5765  0.0300  0.0898
17459TIP3   OH273867   5.248   3.184  15.325 -0.7973  0.2295  0.0725
17459TIP3    H173868   5.329   3.169  15.374 -0.9576  1.3684  0.7356
17459TIP3    H273869   5.178   3.162  15.386 -1.0530 -2.1636 -0.9567
17460TIP3   OH273870   1.990   0.116   3.588  0.0894 -0.4388  0.1880
17460TIP3    H173871   2.046   0.188   3.561 -0.5045 -0.0675 -0.0658
17460TIP3    H273872   1.930   0.154   3.652  0.2630 -0.8844  0.6277
17461TIP3   OH273873   0.845   2.955   4.886 -0.5830 -0.1012  0.0043
17461TIP3    H173874   0.757   2.978   4.916 -0.0844  0.2594  1.2227
17461TIP3    H273875   0.875   2.887   4.946  0.8625  1.4304  1.1011
17462TIP3   OH273876   5.028   3.791   3.441 -0.1052 -0.0433  0.3205
17462TIP3    H173877   5.108   3.792   3.387  0.5698 -0.2916  1.2859
17462TIP3    H273878   4.991   3.704   3.427 -1.1961  0.6569 -1.4947
17463TIP3   OH273879   2.894   3.742  14.624  0.2142 -0.0146  0.0682
17463TIP3    H173880   2.882   3.741  14.529  0.1927  0.4909  0.0643
17463TIP3    H273881   2.850   3.663  14.654  0.3722 -0.2681 -0.3620
17464TIP3   OH273882   5.489   0.180  13.247  0.5295  0.0519  0.2378
17464TIP3    H173883   5.527   0.130  13.320  1.0075  0.0812  0.0178
17464TIP3    H273884   5.545   0.257  13.240 -0.6729  1.0476  1.0906
17465TIP3   OH273885   5.825   2.742   4.306 -0.9485 -0.0456 -0.0424
17465TIP3    H173886   5.739   2.729   4.266 -0.4158 -2.6122 -0.5438
17465TIP3    H273887   5.829   2.675   4.375  0.5605  0.1727  0.1094
17466TIP3   OH273888   6.758   4.571   3.927 -0.2737 -0.1520  0.6496
17466TIP3    H173889   6.738   4.665   3.925  0.7429  0.0962  1.4546
17466TIP3    H273890   6.772   4.548   3.835 -2.3893  0.0370  0.2267
17467TIP3   OH273891   2.355   2.865   0.563  0.1111  0.6940 -0.1210
17467TIP3    H173892   2.311   2.840   0.482 -1.6533 -2.0140  1.4543
17467TIP3    H273893   2.289   2.915   0.611 -0.1825 -0.6647  0.9688
17468TIP3   OH273894   2.949   1.664  12.119  0.8863 -0.0684 -0.0498
17468TIP3    H173895   2.991   1.691  12.201 -0.4753  0.4351  0.5003
17468TIP3    H273896   2.859   1.695  12.127  0.7193 -0.0791 -1.7202
17469TIP3   OH273897   0.323   0.148   3.262 -0.2726 -0.3284  0.0946
17469TIP3    H173898   0.382   0.083   3.300  0.5912  0.2978 -0.1431
17469TIP3    H273899   0.372   0.186   3.189 -0.1465  1.5969  1.0914
17470TIP3   OH273900   6.239   6.325   4.928  0.2917 -0.9475 -0.5868
17470TIP3    H173901   6.298   6.400   4.933  0.2054 -0.8804 -0.5589
17470TIP3    H273902   6.279   6.258   4.984 -0.8753 -0.0586  1.4069
17471TIP3   OH273903   1.721   3.046   2.845 -0.0594 -0.1792  0.1471
17471TIP3    H173904   1.677   3.058   2.928 -1.7898  3.0136 -1.0722
17471TIP3    H273905   1.662   2.991   2.793  0.3366 -0.9584  0.5052
17472TIP3   OH273906   5.318   6.112   3.235  1.1447  0.3084 -0.2046
17472TIP3    H173907   5.309   6.175   3.163 -0.2476  2.1213  1.4465
17472TIP3    H273908   5.408   6.125   3.267  0.8991  1.4781  0.0781
17473TIP3   OH273909   4.059   5.449   1.534 -0.7991 -0.4252  0.1507
17473TIP3    H173910   3.987   5.464   1.596 -0.0144  1.8942  0.6228
17473TIP3    H273911   4.105   5.372   1.568 -2.9157 -1.8813 -0.0947
17474TIP3   OH273912   0.044   0.918  10.563  0.4740  0.3154 -0.2673
17474TIP3    H173913   0.030   0.861  10.487 -0.5896 -0.0023  0.1470
17474TIP3    H273914  -0.044   0.935  10.596  0.9751 -0.5919  1.6569
17475TIP3   OH273915   2.257   5.292   5.321 -0.0513 -0.1285 -0.2582
17475TIP3    H173916   2.169   5.300   5.357 -0.2044  1.6843 -0.9212
17475TIP3    H273917   2.308   5.358   5.369  0.8702 -0.9481 -0.0936
17476TIP3   OH273918   1.592   3.613   4.071 -0.2869  0.4730  0.6060
17476TIP3    H173919   1.609   3.519   4.079 -2.0305  0.0224 -0.5794
17476TIP3    H273920   1.526   3.631   4.138  0.2231  0.9350  0.9999
17477TIP3   OH273921   5.607   4.509   2.449 -0.2176 -0.1460 -0.2843
17477TIP3    H173922   5.611   4.598   2.416 -1.2399 -0.4286 -1.2227
17477TIP3    H273923   5.548   4.514   2.524  0.6536  0.1582  0.4046
17478TIP3   OH273924   1.282   1.476  10.189  0.3559  0.1084  0.1145
17478TIP3    H173925   1.205   1.428  10.158  0.7379 -0.9277  0.7122
17478TIP3    H273926   1.248   1.562  10.215 -0.4831 -0.1082 -0.2329
17479TIP3   OH273927   7.048   5.917   3.672  0.0533  0.3783  0.1153
17479TIP3    H173928   7.032   5.953   3.759 -0.3100 -1.0304  0.6470
17479TIP3    H273929   7.105   5.842   3.687 -0.2841 -0.0828 -0.8356
17480TIP3   OH273930   6.420   1.724  10.742  0.0340  0.4402  0.8835
17480TIP3    H173931   6.475   1.799  10.723  0.4670 -0.0506  0.1569
17480TIP3    H273932   6.402   1.731  10.836  4.3631 -1.3100  2.0884
17481TIP3   OH273933   4.821   5.876   3.258 -0.3759  0.4007  0.5270
17481TIP3    H173934   4.761   5.845   3.325 -0.7107 -0.1327 -0.0040
17481TIP3    H273935   4.765   5.925   3.198 -0.2594  0.0516  0.1260
17482TIP3   OH273936   2.692   0.079   5.098 -0.6511 -0.6174 -0.3560
17482TIP3    H173937   2.747   0.002   5.083 -0.8567 -0.6195 -1.1527
17482TIP3    H273938   2.666   0.073   5.190  2.2391  0.4023  0.6555
17483TIP3   OH273939   3.741   4.026   3.547  0.6150 -0.8156  1.1284
17483TIP3    H173940   3.789   3.957   3.501  0.5540 -1.4522  1.9996
17483TIP3    H273941   3.698   4.076   3.477  0.2679 -1.9444  0.5209
17484TIP3   OH273942   6.854   2.391   4.647  0.3061  0.1315 -0.4002
17484TIP3    H173943   6.872   2.466   4.704  0.2866  0.2157 -0.5041
17484TIP3    H273944   6.904   2.319   4.686  0.4694  0.2418 -0.4021
17485TIP3   OH273945   4.057   3.993  13.455  0.2538 -0.1552 -0.3952
17485TIP3    H173946   4.015   3.911  13.481  0.4741 -0.0706  0.2503
17485TIP3    H273947   4.001   4.061  13.493 -0.5219  0.0344 -1.8266
17486TIP3   OH273948   4.408   1.342  11.421  0.6276  0.4382  0.2497
17486TIP3    H173949   4.456   1.260  11.431  0.6651  0.3094 -0.9213
17486TIP3    H273950   4.428   1.371  11.332 -0.7194  0.8584  0.0618
17487TIP3   OH273951   5.672   5.805   3.309  0.0701 -0.0628  0.3992
17487TIP3    H173952   5.671   5.803   3.404  3.0796 -1.8143  0.5145
17487TIP3    H273953   5.623   5.727   3.283 -1.6064  0.9388  0.4104
17488TIP3   OH273954   4.715   1.346   2.645 -0.7027  0.3386 -0.4855
17488TIP3    H173955   4.695   1.286   2.573  1.2079  1.0715 -1.7186
17488TIP3    H273956   4.778   1.298   2.699  0.2386  0.9041 -1.0516
17489TIP3   OH273957   0.268   5.388   3.835 -0.0380  0.1287 -0.3585
17489TIP3    H173958   0.249   5.296   3.852 -1.9898  0.3664 -0.8842
17489TIP3    H273959   0.210   5.436   3.895 -1.1646  0.9561 -2.0014
17490TIP3   OH273960   4.771   5.318   5.583  0.1376 -0.7422  0.1420
17490TIP3    H173961   4.792   5.227   5.562  1.1996 -1.1089  2.4361
17490TIP3    H273962   4.749   5.317   5.676 -0.1225  1.3052  0.1587
17491TIP3   OH273963   4.376   6.917   3.547 -0.1329  0.3210  0.1828
17491TIP3    H173964   4.285   6.948   3.541  0.3285  1.7156  0.0995
17491TIP3    H273965   4.426   6.994   3.575  1.2587  0.0128 -1.3181
17492TIP3   OH273966   3.366   2.901   5.398 -0.1191  0.2660  0.1111
17492TIP3    H173967   3.431   2.968   5.417 -0.3839  0.5175  0.1366
17492TIP3    H273968   3.397   2.858   5.318 -0.8842  1.6241 -0.9472
17493TIP3   OH273969   1.144   4.222  13.344  0.0912 -0.3484  0.0195
17493TIP3    H173970   1.157   4.144  13.291 -0.8252  0.5146 -1.5776
17493TIP3    H273971   1.052   4.245  13.330 -0.3350 -0.3405  2.4113
17494TIP3   OH273972   0.445   1.704   2.326 -0.1201  0.5663 -0.2289
17494TIP3    H173973   0.488   1.618   2.331 -1.6350 -0.2144 -0.2464
17494TIP3    H273974   0.506   1.758   2.275 -0.0634 -1.0904 -2.0378
17495TIP3   OH273975   2.002   3.658  14.591  0.2010  0.6055  0.6542
17495TIP3    H173976   1.965   3.644  14.678  1.0645  1.2543  1.1383
17495TIP3    H273977   2.092   3.687  14.607  0.4759  0.4239 -0.4612
17496TIP3   OH273978   6.289   3.660   2.623 -0.3352  0.1186 -0.3386
17496TIP3    H173979   6.382   3.676   2.637 -0.2806 -0.9170  0.5386
17496TIP3    H273980   6.267   3.716   2.548  0.8184  0.9114 -0.1126
17497TIP3   OH273981   4.531   2.433  11.377  0.0788  0.7797 -0.1023
17497TIP3    H173982   4.580   2.510  11.347  1.9930 -0.2439  0.2213
17497TIP3    H273983   4.559   2.422  11.468 -2.5855  1.4873  0.8953
17498TIP3   OH273984   4.734   2.853   5.402 -0.0636  0.1843  0.1391
17498TIP3    H173985   4.825   2.833   5.425  0.3637  0.5955 -1.1103
17498TIP3    H273986   4.730   2.837   5.307 -1.9818 -2.4167  0.5488
17499TIP3   OH273987   0.939   5.491   2.515  0.2325 -0.6882 -0.2005
17499TIP3    H173988   0.988   5.414   2.545 -1.6423 -1.2704  1.6267
17499TIP3    H273989   0.942   5.552   2.588  1.4816  0.9739 -1.5374
17500TIP3   OH273990   3.337   3.817   2.846 -0.3333  0.1984 -0.5159
17500TIP3    H173991   3.366   3.733   2.880 -2.1244 -0.2722 -0.0922
17500TIP3    H273992   3.417   3.870   2.844  0.9948 -1.7030 -1.5139
17501TIP3   OH273993   4.714   0.729   4.828  0.7491 -0.2169 -0.2202
17501TIP3    H173994   4.707   0.678   4.747 -1.4238  0.3579 -0.4615
17501TIP3    H273995   4.689   0.668   4.897  2.8644 -0.7839  0.1110
17502TIP3   OH273996   1.311   6.271   4.922 -0.8788  0.1498  0.2049
17502TIP3    H173997   1.217   6.280   4.936 -0.5793  0.1981  2.4269
17502TIP3    H273998   1.352   6.305   5.001  1.2392  3.7970 -2.1465
17503TIP3   OH273999   4.765   3.500  13.803 -0.7296  0.5891  0.4201
17503TIP3    H174000   4.710   3.578  13.805 -1.2818  0.1947  1.5130
17503TIP3    H274001   4.827   3.516  13.732 -1.2955  1.6981  0.1537
17504TIP3   OH274002   3.321   3.977  15.509 -0.0991 -0.1172 -0.1239
17504TIP3    H174003   3.256   3.975  15.440 -1.2037 -0.0350  0.8794
17504TIP3    H274004   3.293   3.909  15.570  1.6369 -1.1648 -0.4192
17505TIP3   OH274005   6.826   7.000  15.513  0.0497  0.4987  0.1343
17505TIP3    H174006   6.850   7.080  15.559  1.0126  0.4569 -0.2652
17505TIP3    H274007   6.759   6.959  15.569  0.1885  1.1404  0.7845
17506TIP3   OH274008   4.089   3.469  10.959 -0.0165 -0.3385 -0.4597
17506TIP3    H174009   4.078   3.397  10.897 -2.5533  0.7105 -1.3461
17506TIP3    H274010   4.029   3.449  11.030 -1.9011  1.5335 -1.4150
17507TIP3   OH274011   4.166   1.608   4.967 -0.3322  0.3099 -0.3198
17507TIP3    H174012   4.233   1.652   5.019 -0.0619  0.3843 -0.7319
17507TIP3    H274013   4.203   1.521   4.948 -0.4727  0.2456 -0.3023
17508TIP3   OH274014   3.841   6.280   3.609  0.1232 -0.2574  0.4864
17508TIP3    H174015   3.899   6.332   3.664  1.4297  0.2234 -1.2658
17508TIP3    H274016   3.791   6.344   3.559  1.0166 -0.6390 -0.9472
17509TIP3   OH274017   2.763   6.733   2.560 -0.4590 -0.7380 -0.4988
17509TIP3    H174018   2.792   6.642   2.562 -0.0018 -0.6402 -1.8279
17509TIP3    H274019   2.788   6.768   2.646  2.5764 -0.9259 -1.1849
17510TIP3   OH274020   6.765   5.896  14.467  0.8456 -0.1557 -0.2591
17510TIP3    H174021   6.689   5.939  14.506 -0.9032 -2.2219 -1.2273
17510TIP3    H274022   6.785   5.949  14.390 -0.0950  0.0001 -0.4069
17511TIP3   OH274023   5.835   6.263  14.793 -0.3022 -0.0200  0.6198
17511TIP3    H174024   5.872   6.344  14.830 -0.3237 -0.5523  1.8434
17511TIP3    H274025   5.741   6.276  14.796 -0.3941  1.5484 -2.9703
17512TIP3   OH274026   1.594   2.029   4.736  0.1305  0.1334  0.2258
17512TIP3    H174027   1.563   1.971   4.806  2.3391 -0.6996  0.6093
17512TIP3    H274028   1.518   2.042   4.680 -1.7772  0.8587  2.7452
17513TIP3   OH274029   2.115   4.619  15.526  0.0090 -0.2761  0.0141
17513TIP3    H174030   2.055   4.650  15.594 -0.1910  1.2461 -0.8104
17513TIP3    H274031   2.060   4.609  15.448  0.2676 -1.8287  0.0046
17514TIP3   OH274032   0.659   3.818   3.334  0.6253  0.2792  0.5032
17514TIP3    H174033   0.564   3.812   3.338  0.4951  1.9479  0.7455
17514TIP3    H274034   0.683   3.777   3.251 -0.6136  2.4309 -1.0289
17515TIP3   OH274035   0.535   4.046   1.543  0.0069 -0.0844 -0.2514
17515TIP3    H174036   0.445   4.078   1.535  0.2961  1.5794  1.9952
17515TIP3    H274037   0.588   4.110   1.496  0.2168  0.4088  0.6332
17516TIP3   OH274038   3.497   5.728  11.991 -0.0326  0.7490  0.1437
17516TIP3    H174039   3.418   5.778  12.011 -0.7390 -0.2283 -0.1578
17516TIP3    H274040   3.526   5.695  12.076 -0.5580  0.2202  0.1188
17517TIP3   OH274041   0.087   3.693   6.003  0.0750  0.0308  0.0526
17517TIP3    H174042   0.100   3.618   5.944  0.0313  1.5444 -1.9796
17517TIP3    H274043   0.055   3.763   5.946  0.3723  1.6911  1.8366
17518TIP3   OH274044   2.356   4.968   1.122  0.1766 -0.2577 -0.4690
17518TIP3    H174045   2.428   4.908   1.098  0.0841 -0.4046 -0.3835
17518TIP3    H274046   2.277   4.923   1.092  0.2575  0.8717 -2.5189
17519TIP3   OH274047   5.299   3.737  15.205  0.2897  0.0498  0.4889
17519TIP3    H174048   5.328   3.646  15.209  4.4215  1.1589  0.9359
17519TIP3    H274049   5.296   3.766  15.296  2.2384  1.0949  0.2848
17520TIP3   OH274050   2.611   5.788  13.844  0.1598  0.1381 -0.7684
17520TIP3    H174051   2.598   5.882  13.834 -1.1266  0.1811  1.0414
17520TIP3    H274052   2.705   5.776  13.826  0.2764  1.6852 -1.4004
17521TIP3   OH274053   1.575   1.145   2.050  0.1584  0.0039  0.2966
17521TIP3    H174054   1.646   1.119   1.990  0.0732  1.4220 -0.4541
17521TIP3    H274055   1.507   1.179   1.992 -0.5200  0.0598  1.1234
17522TIP3   OH274056   3.786   3.425   0.515  0.0215 -0.3021  0.0452
17522TIP3    H174057   3.756   3.502   0.468  1.4684 -0.1254 -0.6534
17522TIP3    H274058   3.731   3.354   0.483 -0.3247  0.1781 -0.4348
17523TIP3   OH274059   3.693   5.246   3.255 -0.4162  0.4523 -0.0013
17523TIP3    H174060   3.694   5.223   3.162  0.7881 -0.5837  0.2370
17523TIP3    H274061   3.666   5.338   3.257  0.0954  0.6591 -1.4169
17524TIP3   OH274062   0.072   2.871   0.231  0.3343  0.2839  0.0107
17524TIP3    H174063   0.124   2.874   0.311 -0.1338  0.8213  0.3048
17524TIP3    H274064   0.063   2.778   0.210 -0.2123  0.0989  1.0242
17525TIP3   OH274065   1.573   0.422   5.869 -0.1542 -0.3291  0.2145
17525TIP3    H174066   1.571   0.334   5.907  0.5152  0.1230  1.3585
17525TIP3    H274067   1.515   0.474   5.925 -0.4503 -0.0075 -0.3789
17526TIP3   OH274068   2.152   5.147  10.817 -0.1000  0.2298 -0.0190
17526TIP3    H174069   2.215   5.098  10.764  0.9165  0.7718  0.6527
17526TIP3    H274070   2.169   5.119  10.906  0.1904  1.4397  0.3247
17527TIP3   OH274071   5.244   0.134  15.307 -0.1245 -0.2682 -0.2134
17527TIP3    H174072   5.219   0.151  15.216 -0.4542  0.2061 -0.0362
17527TIP3    H274073   5.194   0.056  15.331  0.6456 -0.9408 -0.7172
17528TIP3   OH274074   6.426   0.103   5.781  0.1985 -0.3386 -0.4175
17528TIP3    H174075   6.485   0.093   5.706  0.3927  0.3965 -0.3639
17528TIP3    H274076   6.482   0.095   5.858 -0.1284 -2.0217 -0.2997
17529TIP3   OH274077   0.950   3.639   0.344 -0.1359 -0.5304  0.6325
17529TIP3    H174078   0.944   3.697   0.268  1.1318  0.3061  1.1373
17529TIP3    H274079   0.898   3.562   0.319  0.8916 -0.6403 -1.3988
17530TIP3   OH274080   1.534   4.667   2.404 -0.4123  0.1065 -0.7705
17530TIP3    H174081   1.605   4.687   2.343 -0.9471  3.5604 -0.4700
17530TIP3    H274082   1.555   4.718   2.483 -2.1513 -0.4785  0.1138
17531TIP3   OH274083   5.467   5.134   1.769  0.1272  0.0787  0.2521
17531TIP3    H174084   5.470   5.050   1.723  0.3275 -0.2159  0.7892
17531TIP3    H274085   5.509   5.196   1.710 -2.0346  0.3173 -1.1670
17532TIP3   OH274086   4.392   2.069   5.262 -0.2331 -0.2881 -0.1771
17532TIP3    H174087   4.437   2.031   5.187 -0.6816 -0.8911 -0.1510
17532TIP3    H274088   4.299   2.062   5.240 -0.3364  0.4176  0.0185
17533TIP3   OH274089   6.614   1.270  13.032  0.2105  0.5825  0.0915
17533TIP3    H174090   6.702   1.237  13.048 -0.4439 -0.3517  2.0717
17533TIP3    H274091   6.569   1.197  12.988  0.1475  0.7017 -0.0440
17534TIP3   OH274092   3.673   5.113   2.672  0.3780 -0.4053 -0.1892
17534TIP3    H174093   3.713   5.196   2.647  1.2891 -0.9785 -0.6771
17534TIP3    H274094   3.579   5.127   2.657  0.4978  0.5932 -0.0736
17535TIP3   OH274095   4.562   5.299   0.709 -0.1265  0.7178 -0.7098
17535TIP3    H174096   4.544   5.372   0.770  0.1346 -0.4874  0.8650
17535TIP3    H274097   4.649   5.317   0.675  0.6421  0.3158  0.9551
17536TIP3   OH274098   1.876   1.521   2.387 -0.0968 -0.3058  0.5232
17536TIP3    H174099   1.857   1.559   2.472 -1.9551 -1.7595  0.8237
17536TIP3    H274100   1.841   1.432   2.392  0.0289 -0.5376 -1.6418
17537TIP3   OH274101   2.135   0.467   2.896  0.3877  0.0183  0.4447
17537TIP3    H174102   2.127   0.383   2.942 -2.6691  0.6644  1.2881
17537TIP3    H274103   2.172   0.527   2.961 -0.0709 -0.0146  0.7341
17538TIP3   OH274104   2.606   4.227   5.381 -0.4996  0.0133  0.2258
17538TIP3    H174105   2.579   4.300   5.436  0.4751 -0.2576  1.0875
17538TIP3    H274106   2.539   4.161   5.394 -0.9256  0.4153  0.1131
17539TIP3   OH274107   6.311   4.673  10.434 -0.0321 -0.1181 -0.1471
17539TIP3    H174108   6.327   4.678  10.339 -0.7159 -1.1168 -0.3353
17539TIP3    H274109   6.325   4.580  10.455 -0.3847 -0.0014  0.6359
17540TIP3   OH274110   3.128   4.226   4.338  0.2305  0.6202 -0.1300
17540TIP3    H174111   3.094   4.211   4.249 -1.1555  1.1361  0.2777
17540TIP3    H274112   3.083   4.305   4.367  0.5227  0.3469  1.1131
17541TIP3   OH274113   5.238   2.262   2.825  0.3089 -0.0009  0.2986
17541TIP3    H174114   5.294   2.321   2.876  1.8119  0.6088 -1.9465
17541TIP3    H274115   5.265   2.274   2.735 -1.0382 -2.3690 -0.5153
17542TIP3   OH274116   1.296   3.025  13.335 -0.0173 -0.2816 -0.1496
17542TIP3    H174117   1.275   3.109  13.293 -1.5956  0.1416  1.3592
17542TIP3    H274118   1.313   2.965  13.262 -0.6176  0.9213 -1.3210
17543TIP3   OH274119   4.963   1.574   1.500  0.2386 -0.1004  0.1363
17543TIP3    H174120   4.977   1.626   1.421 -0.7196 -0.9494 -0.6295
17543TIP3    H274121   5.038   1.515   1.503  0.9278  0.7809  0.5787
17544TIP3   OH274122   0.726   2.634   5.491 -0.1517  0.1569  0.0044
17544TIP3    H174123   0.687   2.716   5.521  0.5920  0.5135  0.0311
17544TIP3    H274124   0.677   2.566   5.536  0.1479  0.6358  1.0973
17545TIP3   OH274125   1.848   0.331   5.092 -0.0373  0.8702 -0.1516
17545TIP3    H174126   1.860   0.237   5.079  2.1406  1.2538 -1.4907
17545TIP3    H274127   1.930   0.360   5.132 -0.0854  2.4087 -1.1114
17546TIP3   OH274128   6.045   0.575  15.574  0.2077 -0.8957 -0.0175
17546TIP3    H174129   6.118   0.534  15.620  0.5856  0.3082  0.4918
17546TIP3    H274130   6.080   0.598  15.488  0.0553 -1.4181 -0.2269
17547TIP3   OH274131   0.729   3.150   1.884  0.1131  0.5959 -0.4993
17547TIP3    H174132   0.684   3.074   1.922  0.6249  0.6531  0.2408
17547TIP3    H274133   0.669   3.223   1.899 -0.7117  0.2407 -1.8602
17548TIP3   OH274134   4.195   4.744   1.079 -0.6003 -0.0398 -0.2688
17548TIP3    H174135   4.190   4.763   1.172  0.0992 -0.8986 -0.0325
17548TIP3    H274136   4.231   4.823   1.040 -0.9792  0.3565  0.1771
17549TIP3   OH274137   5.310   4.852   0.448  0.1283  0.5492  0.6143
17549TIP3    H174138   5.346   4.800   0.376 -0.2606 -0.0361  0.8269
17549TIP3    H274139   5.239   4.798   0.482 -0.6472  1.4737  0.4997
17550TIP3   OH274140   4.972   2.885   5.732 -0.2483  0.0022  0.4784
17550TIP3    H174141   4.926   2.802   5.745  0.4085 -0.1146  2.2871
17550TIP3    H274142   4.907   2.952   5.755 -0.2981 -0.0680  0.5437
17551TIP3   OH274143   6.853   0.344  15.103  0.1910  0.2752  0.7853
17551TIP3    H174144   6.787   0.277  15.084  0.7066  0.2192 -1.0442
17551TIP3    H274145   6.845   0.360  15.197 -0.1910 -2.0819  1.2146
17552TIP3   OH274146   1.202   3.983  15.095 -0.5765 -0.3143 -0.2513
17552TIP3    H174147   1.258   3.946  15.164  0.3839  1.5205  0.0144
17552TIP3    H274148   1.114   3.954  15.118  0.0994 -2.4791 -0.1359
17553TIP3   OH274149   1.918   4.560   3.117 -0.5435 -1.0002  0.2616
17553TIP3    H174150   1.876   4.620   3.178  1.2202  0.6972 -0.0962
17553TIP3    H274151   1.982   4.513   3.170  2.2538  1.7102 -0.3683
17554TIP3   OH274152   5.936   3.969   3.534 -0.0622  0.3195  0.2194
17554TIP3    H174153   6.007   3.988   3.595 -0.2475  1.6385  0.0423
17554TIP3    H274154   5.981   3.944   3.453  0.1966 -2.4682  1.1161
17555TIP3   OH274155   6.742   6.151   2.898  0.5170  0.2008  0.0150
17555TIP3    H174156   6.795   6.216   2.852  0.6637  1.3493  1.7090
17555TIP3    H274157   6.783   6.145   2.985  0.8366 -2.5617 -0.2288
17556TIP3   OH274158   1.843   1.601   2.010 -0.1291  0.0503 -0.3603
17556TIP3    H174159   1.781   1.573   1.943 -2.1885  0.5607  1.2133
17556TIP3    H274160   1.895   1.523   2.030 -1.0502 -0.7225 -0.9162
17557TIP3   OH274161   2.883   6.865  14.751 -0.1412  0.1716 -0.4900
17557TIP3    H174162   2.947   6.848  14.682  0.1983  2.1987 -0.7291
17557TIP3    H274163   2.933   6.863  14.832 -0.5551 -2.2976 -0.2106
17558TIP3   OH274164   6.067   2.126   2.114  0.6453  0.2582 -0.2640
17558TIP3    H174165   6.021   2.093   2.036 -0.3930 -1.5803  1.0448
17558TIP3    H274166   6.011   2.197   2.146 -1.1362 -1.5802  0.9829
17559TIP3   OH274167   6.129   1.750   0.121  0.5813 -0.1566 -0.0922
17559TIP3    H174168   6.073   1.700   0.179 -0.1860 -0.0214 -0.7073
17559TIP3    H274169   6.218   1.728   0.149  0.2668 -1.8191 -0.3123
17560TIP3   OH274170   1.611   3.706   4.975 -0.5005  0.1146 -0.4808
17560TIP3    H174171   1.672   3.777   4.994 -0.3434  0.3698 -1.8432
17560TIP3    H274172   1.524   3.747   4.981 -0.5102  0.0098  0.3459
17561TIP3   OH274173   4.639   0.546  15.036 -0.1650  0.7287  0.4433
17561TIP3    H174174   4.549   0.555  15.005  0.1968  1.0682 -0.5646
17561TIP3    H274175   4.664   0.457  15.010  0.9868  1.8259 -2.7336
17562TIP3   OH274176   6.121   2.505  13.114 -0.6035 -0.2260 -0.3318
17562TIP3    H174177   6.051   2.504  13.048 -1.6577 -0.1360  0.7525
17562TIP3    H274178   6.153   2.415  13.115 -2.1484 -0.8082  0.6106
17563TIP3   OH274179   3.184   1.934  15.450 -0.2054 -0.0902  0.5312
17563TIP3    H174180   3.208   1.933  15.357  0.2206  1.3519  0.5917
17563TIP3    H274181   3.163   1.843  15.471  0.5944 -0.5987 -0.7499
17564TIP3   OH274182   6.534   3.741  15.729  0.2716 -0.2010  0.4913
17564TIP3    H174183   6.534   3.748  15.634  1.2331 -0.3739  0.4771
17564TIP3    H274184   6.447   3.773  15.755 -0.7708 -1.9954 -0.5672
17565TIP3   OH274185   1.237   6.789   3.232  0.2953 -0.1874 -0.1963
17565TIP3    H174186   1.196   6.871   3.204  0.1881 -0.0323  0.3991
17565TIP3    H274187   1.167   6.741   3.277  0.7306  0.0372  0.7402
17566TIP3   OH274188   2.531   5.825  14.765  0.4559 -0.2746 -0.6451
17566TIP3    H174189   2.584   5.849  14.841 -1.7572  2.5760  0.2188
17566TIP3    H274190   2.528   5.905  14.712 -0.6530 -1.2103 -2.0679
17567TIP3   OH274191   2.462   4.113  13.886  0.1429  0.1619  0.3712
17567TIP3    H174192   2.391   4.080  13.831 -1.0151 -0.1453  1.9626
17567TIP3    H274193   2.426   4.193  13.926  1.9740  2.0114 -1.4194
17568TIP3   OH274194   3.638   1.390   0.310 -0.4045  0.3637  0.4130
17568TIP3    H174195   3.700   1.339   0.362  1.2274  3.3210  1.5976
17568TIP3    H274196   3.555   1.382   0.357  0.2520  0.3026  1.5980
17569TIP3   OH274197   0.873   4.638  10.996  0.9729  0.0184 -0.6536
17569TIP3    H174198   0.901   4.639  11.088  0.0745  0.7322 -0.3714
17569TIP3    H274199   0.829   4.722  10.984 -0.3292 -0.7271 -1.2923
17570TIP3   OH274200   5.453   3.256   0.131 -0.2925 -0.5014 -0.1860
17570TIP3    H174201   5.394   3.197   0.085 -0.1961 -0.9554  0.2674
17570TIP3    H274202   5.530   3.262   0.075 -1.4578  1.5491 -1.7190
17571TIP3   OH274203   1.834   2.624   2.309 -0.3360  0.1790  0.5444
17571TIP3    H174204   1.919   2.650   2.342  0.4225 -0.4752 -0.8305
17571TIP3    H274205   1.819   2.678   2.232 -0.4285 -0.7969 -0.1470
17572TIP3   OH274206   6.503   4.794   4.770 -0.3643  0.3293 -0.0369
17572TIP3    H174207   6.548   4.875   4.746 -0.7191  0.5845  0.1371
17572TIP3    H274208   6.535   4.729   4.709  0.0364  0.5701 -0.0855
17573TIP3   OH274209   4.265   6.010   1.224  0.2329 -0.0968 -0.2347
17573TIP3    H174210   4.179   6.043   1.195  0.1614 -0.4578 -0.4406
17573TIP3    H274211   4.297   6.077   1.284 -1.2413 -1.0356  1.7108
17574TIP3   OH274212   2.090   2.388   3.028  0.0190 -0.0177  0.1053
17574TIP3    H174213   2.141   2.358   3.103 -4.0462 -1.2577  2.6916
17574TIP3    H274214   2.015   2.328   3.025 -1.5374  1.8459 -3.1290
17575TIP3   OH274215   1.465   6.391   1.240  0.4668  0.5702  0.2304
17575TIP3    H174216   1.471   6.396   1.144 -0.8681  0.9617  0.1473
17575TIP3    H274217   1.517   6.466   1.271  1.5640 -0.0098 -0.1384
17576TIP3   OH274218   5.077   6.091  14.399  0.1349  0.1555  0.1063
17576TIP3    H174219   5.131   6.129  14.468 -0.4735  1.3348 -0.0494
17576TIP3    H274220   5.001   6.055  14.445 -0.4030  1.1791  0.0617
17577TIP3   OH274221   1.275   3.436   3.466  0.2040  0.1539 -0.4331
17577TIP3    H174222   1.247   3.503   3.404  1.3480 -0.6377 -1.8455
17577TIP3    H274223   1.252   3.353   3.424  2.4188 -0.4468 -0.5554
17578TIP3   OH274224   1.931   2.829   3.579 -0.0446  0.5218 -0.0822
17578TIP3    H174225   2.025   2.841   3.564  0.1993  0.3845  1.1822
17578TIP3    H274226   1.926   2.782   3.662 -1.2695  2.4752  1.0279
17579TIP3   OH274227   1.468   1.188   1.775  0.0875 -0.5648  0.3208
17579TIP3    H174228   1.486   1.273   1.737  0.9072 -2.5589 -4.4710
17579TIP3    H274229   1.383   1.163   1.739  0.4166 -2.2109  0.5890
17580TIP3   OH274230   6.367   1.399   4.994 -0.6295  0.6259  0.8151
17580TIP3    H174231   6.361   1.324   5.052 -1.1599  0.6713  0.8202
17580TIP3    H274232   6.401   1.469   5.049  0.3535  0.2658  0.6896
17581TIP3   OH274233   5.215   0.052   5.575  0.1873 -0.4005  0.7711
17581TIP3    H174234   5.242   0.128   5.523 -1.3948 -0.8913 -0.8498
17581TIP3    H274235   5.246  -0.023   5.526 -0.3055 -0.8611  1.1500
17582TIP3   OH274236   5.056   1.412   2.706 -0.0499  0.9773  0.1349
17582TIP3    H174237   5.147   1.387   2.721  0.5346  2.4302 -0.7716
17582TIP3    H274238   5.005   1.338   2.738  1.4214  0.3785  1.1887
17583TIP3   OH274239   2.731   4.866   5.102 -0.3217  0.3795  0.1905
17583TIP3    H174240   2.796   4.806   5.138 -1.9629 -1.6161  0.0325
17583TIP3    H274241   2.683   4.898   5.179 -2.5785 -2.4015  0.1282
17584TIP3   OH274242   6.420   3.455  14.489  0.0765  0.1305 -0.1292
17584TIP3    H174243   6.328   3.446  14.466 -0.4961  2.1890  1.1307
17584TIP3    H274244   6.467   3.431  14.409 -1.6173  0.9868 -1.4449
17585TIP3   OH274245   1.816   1.279  12.005  0.2599  0.5296 -0.4932
17585TIP3    H174246   1.900   1.322  11.989  1.5450 -2.2198 -1.7956
17585TIP3    H274247   1.789   1.311  12.091  2.0305  2.3902 -0.5524
17586TIP3   OH274248   4.120   4.533  10.999 -0.1268 -0.2156 -0.4022
17586TIP3    H174249   4.118   4.595  10.926 -0.5441 -0.4821 -0.6177
17586TIP3    H274250   4.123   4.447  10.957  0.9005 -0.3343 -0.1083
17587TIP3   OH274251   1.203   1.589   0.665 -0.4915  0.1190  0.3986
17587TIP3    H174252   1.233   1.504   0.632 -1.3529  0.4080 -1.2186
17587TIP3    H274253   1.113   1.597   0.633  0.3424  2.7035 -1.7107
17588TIP3   OH274254   5.500   2.623   3.472  0.2784  0.5589 -0.1829
17588TIP3    H174255   5.448   2.543   3.461  0.7517  0.1482  0.4806
17588TIP3    H274256   5.541   2.612   3.558 -0.4379  1.9713  0.3642
17589TIP3   OH274257   6.744   0.106   3.914 -0.3137  0.6969 -0.2103
17589TIP3    H174258   6.745   0.200   3.934 -0.0043  1.1314 -2.1380
17589TIP3    H274259   6.796   0.097   3.834 -0.6181 -1.0869 -0.2585
17590TIP3   OH274260   1.982   3.306   0.599 -0.1206  0.0214 -0.2170
17590TIP3    H174261   1.970   3.313   0.693 -0.7722 -1.1637 -0.1866
17590TIP3    H274262   2.039   3.379   0.576  0.0164  0.3446  1.0850
17591TIP3   OH274263   2.791   2.592   3.680 -0.5032  0.3837  0.3027
17591TIP3    H174264   2.820   2.577   3.589  2.1621 -2.0275  1.4000
17591TIP3    H274265   2.835   2.672   3.706 -0.0315  0.2603 -0.0913
17592TIP3   OH274266   1.899   5.934  14.246 -0.0196  0.0303 -0.2728
17592TIP3    H174267   1.905   5.920  14.151 -0.4481 -0.1665 -0.2732
17592TIP3    H274268   1.806   5.926  14.266 -0.4381  3.3867 -0.3300
17593TIP3   OH274269   2.968   6.744  12.510  0.4280 -0.4908  0.0229
17593TIP3    H174270   3.012   6.828  12.501  1.0944 -0.8744 -0.4222
17593TIP3    H274271   2.954   6.714  12.420 -1.6669  0.0725  0.1212
17594TIP3   OH274272   0.970   5.227   0.626  0.1410 -0.4925  0.2777
17594TIP3    H174273   1.003   5.262   0.709 -1.5596 -1.9468  1.6621
17594TIP3    H274274   0.875   5.238   0.632 -0.0579 -1.0670 -1.2877
17595TIP3   OH274275   0.635   4.819   4.654 -0.2306 -0.0437  0.0945
17595TIP3    H174276   0.688   4.739   4.658  0.6641  0.5351  0.0663
17595TIP3    H274277   0.610   4.836   4.745 -0.2785 -0.2592  0.1222
17596TIP3   OH274278   1.418   0.082   3.216 -0.0501 -0.1112 -0.1074
17596TIP3    H174279   1.432   0.044   3.303  0.6090  0.0806 -0.1245
17596TIP3    H274280   1.336   0.131   3.225 -1.0931 -1.7754 -0.1826
17597TIP3   OH274281   0.954   2.534  10.720  0.1810  0.3307 -0.0863
17597TIP3    H174282   0.865   2.517  10.751  0.2749  0.3802  0.2129
17597TIP3    H274283   1.010   2.481  10.778  0.4097  0.9440  0.2621
17598TIP3   OH274284   2.515   5.121   2.868 -0.1129  0.0477  0.7045
17598TIP3    H174285   2.476   5.115   2.955 -0.2766  0.8723  0.6902
17598TIP3    H274286   2.606   5.094   2.881  0.5834  2.5691  1.6500
17599TIP3   OH274287   4.096   7.083  13.787  0.2348  0.0431  0.2705
17599TIP3    H174288   4.073   6.995  13.756 -1.2469  0.4450  0.1353
17599TIP3    H274289   4.112   7.133  13.707  2.1010 -0.3364  0.3755
17600TIP3   OH274290   2.677   2.498  13.721 -0.0411  0.0227  0.4977
17600TIP3    H174291   2.611   2.535  13.662 -1.7798 -2.8934  0.4099
17600TIP3    H274292   2.661   2.541  13.805  0.4451  2.0004 -0.3555
17601TIP3   OH274293   4.551   0.837   4.529 -0.5827 -0.4376  0.3204
17601TIP3    H174294   4.590   0.750   4.538  1.3123  0.2449 -0.6333
17601TIP3    H274295   4.563   0.877   4.615  0.1360 -0.5348  0.2758
17602TIP3   OH274296   0.825   1.066   4.985 -0.1982  0.3684  0.7539
17602TIP3    H174297   0.887   1.027   4.923  0.9328 -1.3986  2.8153
17602TIP3    H274298   0.859   1.153   5.003  0.0364  0.5018 -0.3001
17603TIP3   OH274299   1.178   2.407   0.938  0.8445 -0.8330  0.1467
17603TIP3    H174300   1.189   2.312   0.943  0.1651 -1.0027 -1.1818
17603TIP3    H274301   1.097   2.420   0.888  1.0350  0.4530  0.1222
17604TIP3   OH274302   1.777   0.123   4.547  0.0465  0.2337 -0.2031
17604TIP3    H174303   1.737   0.200   4.588  2.0984  1.0676  0.3927
17604TIP3    H274304   1.858   0.111   4.596  1.4620 -0.1877 -2.5307
17605TIP3   OH274305   6.697   1.743  12.264  0.3997 -0.0895 -0.0226
17605TIP3    H174306   6.633   1.702  12.206 -0.3146  0.6960  0.1928
17605TIP3    H274307   6.777   1.748  12.211  0.3564 -1.2709 -0.2230
17606TIP3   OH274308   0.249   6.730   4.309  0.0519 -0.0403  0.1600
17606TIP3    H174309   0.266   6.744   4.402  0.1484 -0.2378  0.1724
17606TIP3    H274310   0.234   6.636   4.301  0.1210 -0.0358 -0.0356
17607TIP3   OH274311   6.140   3.398   2.491 -0.9481  0.1691  0.5962
17607TIP3    H174312   6.233   3.420   2.497 -0.0866 -2.1740 -2.0063
17607TIP3    H274313   6.126   3.332   2.558  0.2006 -1.9116 -1.1088
17608TIP3   OH274314   5.153   0.492   3.581 -0.4755  0.1348  0.2012
17608TIP3    H174315   5.172   0.540   3.501  0.0006 -0.0970  0.1709
17608TIP3    H274316   5.064   0.458   3.569 -0.7103  0.7736  0.1085
17609TIP3   OH274317   0.155   3.172  14.526 -0.2253  0.2680 -0.9539
17609TIP3    H174318   0.178   3.101  14.587 -1.9091  0.1446 -0.4146
17609TIP3    H274319   0.240   3.202  14.492  0.5462 -2.1172 -1.3622
17610TIP3   OH274320   5.110   5.930   4.928  0.3939  0.4069  0.4217
17610TIP3    H174321   5.143   5.981   5.002  0.0318  0.5968  0.4542
17610TIP3    H274322   5.087   5.845   4.965  0.0219  0.5704  0.5689
17611TIP3   OH274323   6.082   1.643   3.149  0.1025  0.0875 -0.5616
17611TIP3    H174324   6.141   1.567   3.159  0.4777  0.4367 -0.0431
17611TIP3    H274325   6.033   1.625   3.069 -0.6216 -1.2561  0.1411
17612TIP3   OH274326   0.907   0.147  11.340  0.2406  0.2609  0.1882
17612TIP3    H174327   0.883   0.194  11.419 -0.1932 -0.6149  0.5906
17612TIP3    H274328   0.991   0.186  11.313  0.4999  0.4273  1.1931
17613TIP3   OH274329   3.445   6.570   2.068 -0.4871 -0.0381  0.5183
17613TIP3    H174330   3.353   6.576   2.094 -0.7855  0.6173 -0.5925
17613TIP3    H274331   3.448   6.615   1.983  0.6967 -0.7957  0.1458
17614TIP3   OH274332   6.248   3.445   3.346 -0.7715  0.2235  0.0079
17614TIP3    H174333   6.228   3.504   3.273 -0.5602 -2.1244 -2.0997
17614TIP3    H274334   6.173   3.385   3.350 -1.5425  1.2222  2.8675
17615TIP3   OH274335   4.968   4.411   3.673  0.3113  0.5107 -0.1957
17615TIP3    H174336   4.963   4.407   3.578 -0.8567  3.8948 -0.4140
17615TIP3    H274337   5.013   4.494   3.691  0.7153 -0.1540  2.2332
17616TIP3   OH274338   0.117   0.848   3.003 -0.1652  0.0890 -0.2146
17616TIP3    H174339   0.046   0.788   2.980  0.0880 -0.5030  0.5319
17616TIP3    H274340   0.196   0.793   3.002  0.1513  0.5402 -0.1092
17617TIP3   OH274341   1.287   3.759   0.923 -0.9545 -0.4914 -0.5410
17617TIP3    H174342   1.218   3.817   0.891 -2.8314 -1.2282  1.8485
17617TIP3    H274343   1.286   3.771   1.018  1.6137 -1.2570 -0.3339
17618TIP3   OH274344   1.846   6.472   5.165  0.1076 -0.5774 -0.6827
17618TIP3    H174345   1.768   6.434   5.206  0.7332  0.2104  1.3562
17618TIP3    H274346   1.817   6.557   5.133 -0.3634 -1.1558 -1.8344
17619TIP3   OH274347   4.134   4.834   3.575 -0.3354  0.7036  0.2619
17619TIP3    H174348   4.098   4.795   3.656  1.4268  0.0362  0.7728
17619TIP3    H274349   4.071   4.901   3.551 -0.2006  1.9829  3.0546
17620TIP3   OH274350   5.167   6.363   4.215  0.7615 -0.8416 -0.3627
17620TIP3    H174351   5.174   6.272   4.244  2.2852 -0.6207  0.0423
17620TIP3    H274352   5.226   6.368   4.139  1.8076  0.1178  0.4781
17621TIP3   OH274353   1.188   5.454   3.442  0.1514 -0.2399 -0.1102
17621TIP3    H174354   1.097   5.427   3.457  0.3907 -1.0504 -0.0832
17621TIP3    H274355   1.215   5.491   3.526 -0.5065  1.0919 -0.4509
17622TIP3   OH274356   3.819   3.777   5.288 -0.3518  0.1784 -0.2464
17622TIP3    H174357   3.785   3.688   5.297  1.4664 -0.4394  1.0066
17622TIP3    H274358   3.841   3.804   5.377  0.1648  1.4580 -0.7333
17623TIP3   OH274359   5.599   0.618   2.169  0.0542  0.2890 -0.7352
17623TIP3    H174360   5.650   0.542   2.197 -0.1456  0.9144  1.5731
17623TIP3    H274361   5.664   0.685   2.147  0.3498  0.8769  1.6011
17624TIP3   OH274362   2.204   1.914  12.752  0.0776  0.0466 -0.2064
17624TIP3    H174363   2.257   1.991  12.770  0.7014 -0.3767 -0.1771
17624TIP3    H274364   2.128   1.947  12.705  1.1326  0.4912 -1.6613
17625TIP3   OH274365   4.126   6.011   2.914  0.2300  0.3352 -0.2706
17625TIP3    H174366   4.039   5.988   2.884  0.7141 -0.4173 -1.1545
17625TIP3    H274367   4.118   6.019   3.009 -0.6807 -0.2457 -0.2909
17626TIP3   OH274368   3.572   2.787  13.433 -1.0903  0.9085 -0.3730
17626TIP3    H174369   3.504   2.736  13.388  0.2062 -1.3661  0.1048
17626TIP3    H274370   3.624   2.722  13.479 -0.1679  2.8430  1.4817
17627TIP3   OH274371   2.713   1.082   1.059  0.2010  0.3003  0.0812
17627TIP3    H174372   2.734   1.041   1.142  0.4903  1.0474  0.3831
17627TIP3    H274373   2.725   1.176   1.074 -0.9595  0.5519 -0.4358
17628TIP3   OH274374   1.949   2.836   4.057  0.5663  0.4632  0.3681
17628TIP3    H174375   2.033   2.869   4.025  1.4425 -1.6392  0.3556
17628TIP3    H274376   1.949   2.860   4.150  0.9662  0.8866  0.2670
17629TIP3   OH274377   4.934   3.634   0.306  0.0026 -0.0663  0.2285
17629TIP3    H174378   4.870   3.591   0.250 -1.5985  1.9299  0.3894
17629TIP3    H274379   4.917   3.599   0.394  0.8293 -1.3327 -0.0855
17630TIP3   OH274380   3.834   5.432   4.124  0.4344  0.1296 -0.2970
17630TIP3    H174381   3.884   5.454   4.046  2.1452 -0.5369  0.5489
17630TIP3    H274382   3.748   5.471   4.110  1.1624  1.2716 -1.8499
17631TIP3   OH274383   5.124   1.435   5.833 -0.5255  0.5290  0.3491
17631TIP3    H174384   5.060   1.396   5.893  1.0719 -0.6978  1.3544
17631TIP3    H274385   5.160   1.509   5.882  0.4524 -0.1989  0.7783
17632TIP3   OH274386   6.500   3.040  12.737 -0.6860  0.2987 -0.3489
17632TIP3    H174387   6.445   2.976  12.692 -0.2998  0.2373 -0.7389
17632TIP3    H274388   6.440   3.111  12.760 -0.9294  0.2347 -0.7745
17633TIP3   OH274389   1.571   5.678   4.275 -0.3765  0.7641  0.1221
17633TIP3    H174390   1.649   5.699   4.223 -1.0329  0.1678 -1.1313
17633TIP3    H274391   1.562   5.752   4.335  0.4080  1.4637 -0.5976
17634TIP3   OH274392   2.789   0.697  11.572 -0.8813 -0.1699 -0.0090
17634TIP3    H174393   2.788   0.713  11.478 -2.2414 -3.1076 -0.6046
17634TIP3    H274394   2.873   0.733  11.602 -0.8116  1.6524 -2.1163
17635TIP3   OH274395   2.252   6.816   4.281  0.5806 -0.7724 -0.1005
17635TIP3    H174396   2.319   6.824   4.213  0.6067  1.9349  0.1490
17635TIP3    H274397   2.193   6.749   4.247 -0.0520  1.2414 -3.4565
17636TIP3   OH274398   6.484   3.515   4.557  0.0573  0.1186 -0.1609
17636TIP3    H174399   6.575   3.485   4.556  0.2411  0.5998  0.7611
17636TIP3    H274400   6.481   3.580   4.627 -0.7056  1.0881 -1.0563
17637TIP3   OH274401   3.912   6.817   5.110  0.0317  0.0527 -0.5186
17637TIP3    H174402   3.953   6.766   5.180  1.5234  0.3376 -1.1399
17637TIP3    H274403   3.877   6.752   5.050 -0.2029 -0.2064 -0.1033
17638TIP3   OH274404   4.127   3.816   2.210 -0.7603 -0.2340  0.0098
17638TIP3    H174405   4.152   3.726   2.226  0.7472  0.2044  0.2682
17638TIP3    H274406   4.129   3.826   2.115 -0.0244 -0.2463  0.0179
17639TIP3   OH274407   1.756   0.048  12.857  0.0007  0.4429 -0.0801
17639TIP3    H174408   1.688   0.091  12.805 -1.1189 -1.3160 -0.1600
17639TIP3    H274409   1.801  -0.009  12.795 -0.1646 -0.3284  0.4896
17640TIP3   OH274410   6.383   5.734   0.302  0.0005  0.4353  0.4271
17640TIP3    H174411   6.384   5.774   0.215 -0.8542 -1.8347 -0.6930
17640TIP3    H274412   6.473   5.706   0.317 -0.4610 -2.6181 -1.5333
17641TIP3   OH274413   2.676   0.812   3.071  0.0238 -0.3027 -0.1416
17641TIP3    H174414   2.582   0.807   3.085  0.1830 -1.4083  0.6849
17641TIP3    H274415   2.686   0.865   2.992 -1.2059  1.1938  0.6516
17642TIP3   OH274416   7.001   6.289   3.958 -0.1393  0.3936 -0.0059
17642TIP3    H174417   6.972   6.299   3.867  0.1794  0.3059 -0.1205
17642TIP3    H274418   7.058   6.364   3.974  1.4209 -0.6229 -0.5375
17643TIP3   OH274419   1.999   4.017  15.740 -0.3170 -0.4404  0.3408
17643TIP3    H174420   2.033   4.102  15.768 -0.6526 -0.8769  2.2124
17643TIP3    H274421   1.908   4.018  15.768 -0.9212 -0.6589 -1.4689
17644TIP3   OH274422   6.594   3.682   9.682 -0.9352  0.3153  0.2087
17644TIP3    H174423   6.683   3.703   9.655 -0.6637 -2.6738 -1.5984
17644TIP3    H274424   6.604   3.614   9.749 -1.8701  0.5147  0.5762
17645TIP3   OH274425   2.618   6.999   5.387  0.0669  0.3863  0.3784
17645TIP3    H174426   2.576   6.993   5.473 -1.8233 -2.5360 -0.5924
17645TIP3    H274427   2.545   7.008   5.326  1.3404  1.7220 -1.0095
17646TIP3   OH274428   7.103   3.637   3.412  0.0215 -0.2048 -0.2419
17646TIP3    H174429   7.140   3.635   3.324 -0.2765 -1.9304 -0.3667
17646TIP3    H274430   7.169   3.681   3.466  0.9458 -0.6305 -1.0119
17647TIP3   OH274431   1.263   1.330   3.136  0.2934 -0.0913 -0.1267
17647TIP3    H174432   1.305   1.361   3.216 -0.2262 -0.3450  0.2451
17647TIP3    H274433   1.269   1.404   3.075 -0.1635  0.4335  0.4623
17648TIP3   OH274434   0.338   4.631   2.524  0.4954  0.2242 -0.3187
17648TIP3    H174435   0.257   4.671   2.491  0.9961 -0.4342 -2.5042
17648TIP3    H274436   0.321   4.617   2.617 -1.4533  1.1792 -0.4687
17649TIP3   OH274437   3.400   5.591   1.458 -0.2350 -0.5204 -0.5534
17649TIP3    H174438   3.398   5.643   1.378  1.9361 -1.6738 -1.4430
17649TIP3    H274439   3.382   5.654   1.528 -2.9861  0.3696 -1.9241
17650TIP3   OH274440   6.112   0.744  14.984 -0.2321  0.2107  0.2045
17650TIP3    H174441   6.149   0.679  14.924 -1.8423 -1.1382  0.5808
17650TIP3    H274442   6.088   0.818  14.928  2.0146  0.7372 -0.1779
17651TIP3   OH274443   6.353   3.736  10.348 -0.1338 -0.3237 -0.1956
17651TIP3    H174444   6.315   3.769  10.429  0.4901  1.1948 -0.4890
17651TIP3    H274445   6.328   3.800  10.282  0.0725 -1.0994 -1.0461
17652TIP3   OH274446   6.277   4.125  13.452  0.5375 -0.3114  0.1151
17652TIP3    H174447   6.319   4.048  13.412 -1.0241 -1.4232  0.5059
17652TIP3    H274448   6.222   4.161  13.382  0.1894 -0.3986  0.3414
17653TIP3   OH274449   7.098   2.546   3.382 -0.0167  0.0416 -0.7728
17653TIP3    H174450   7.134   2.503   3.305  1.0295 -1.5934  0.5745
17653TIP3    H274451   7.027   2.490   3.410  0.0251  0.2780 -0.1812
17654TIP3   OH274452   5.977   5.604   4.690  0.2191 -0.0091 -0.1751
17654TIP3    H174453   5.966   5.553   4.609 -0.0008 -0.5828  0.2121
17654TIP3    H274454   5.925   5.683   4.675 -2.0576 -1.2895  0.4120
17655TIP3   OH274455   2.362   3.818   4.189 -0.1710 -0.1667  0.0708
17655TIP3    H174456   2.359   3.901   4.141  0.9205 -1.0558 -1.6390
17655TIP3    H274457   2.286   3.770   4.157  0.7076 -0.8682 -1.0530
17656TIP3   OH274458   6.659   0.955   3.542 -0.1618 -0.0739  0.4735
17656TIP3    H174459   6.684   0.868   3.574  2.8825  0.3280 -0.5492
17656TIP3    H274460   6.695   1.016   3.606 -1.3263  0.5252  0.5977
17657TIP3   OH274461   2.125   0.870   1.729 -0.1850  0.5574 -0.2288
17657TIP3    H174462   2.050   0.839   1.778  0.2727  0.8048  0.6431
17657TIP3    H274463   2.088   0.911   1.651 -1.3432  4.8668  2.2860
17658TIP3   OH274464   4.140   1.981   1.516  0.1376 -0.4059  0.6018
17658TIP3    H174465   4.091   1.907   1.481 -1.0897 -0.3657  2.1117
17658TIP3    H274466   4.230   1.949   1.521  0.0213 -1.0334 -0.7503
17659TIP3   OH274467   2.516   5.460   4.746 -0.1982  0.1404  0.1674
17659TIP3    H174468   2.611   5.443   4.747  0.1749  1.8962 -1.1856
17659TIP3    H274469   2.479   5.382   4.706  0.6837 -0.4694  0.4845
17660TIP3   OH274470   6.231   6.155   2.920 -0.0617 -0.4159 -0.0459
17660TIP3    H174471   6.208   6.244   2.894  0.2578  0.0873  1.3219
17660TIP3    H274472   6.257   6.112   2.838 -1.8200  0.2302 -0.9825
17661TIP3   OH274473   0.042   6.020   2.925 -0.7568 -0.2829 -0.4601
17661TIP3    H174474   0.117   5.965   2.901 -0.3648 -0.7024  1.6034
17661TIP3    H274475  -0.034   5.973   2.891 -0.2820 -1.1130 -0.3981
17662TIP3   OH274476   6.833   2.375   2.385 -0.4308 -0.0504 -0.7299
17662TIP3    H174477   6.927   2.357   2.394 -0.4356 -0.4144 -1.3580
17662TIP3    H274478   6.797   2.357   2.472  0.0279 -0.2457 -0.5749
17663TIP3   OH274479   2.506   7.117   3.214  0.1192  0.3238 -0.6162
17663TIP3    H174480   2.445   7.048   3.188 -0.1403  0.3373 -0.0553
17663TIP3    H274481   2.507   7.114   3.310  1.4927 -0.0964 -0.6254
17664TIP3   OH274482   5.850   4.218   0.291 -0.2465  0.4188 -0.1383
17664TIP3    H174483   5.907   4.294   0.289 -1.3126  1.2561  0.2135
17664TIP3    H274484   5.909   4.144   0.310  0.7106  1.2378  0.1676
17665TIP3   OH274485   4.505   5.588   0.785  0.1989 -0.1782  0.3979
17665TIP3    H174486   4.470   5.600   0.697  0.0166  0.3142  0.5382
17665TIP3    H274487   4.429   5.563   0.837  0.7405 -3.4075 -0.1408
17666TIP3   OH274488   2.147   0.631   4.006  0.0900 -0.2898 -0.3086
17666TIP3    H174489   2.195   0.605   4.084 -0.7760  1.1747  0.7628
17666TIP3    H274490   2.159   0.726   4.000 -0.5025 -0.2666 -1.5104
17667TIP3   OH274491   5.888   7.098   1.872  0.6306 -0.6947 -0.1123
17667TIP3    H174492   5.817   7.056   1.920 -0.8337 -0.1097 -1.6807
17667TIP3    H274493   5.890   7.187   1.905  0.5950 -0.6938 -0.1118
17668TIP3   OH274494   1.070   3.894  11.201  0.4615  0.2013 -0.7279
17668TIP3    H174495   0.999   3.831  11.191 -0.2707  1.0850 -1.1530
17668TIP3    H274496   1.038   3.974  11.161  0.4541  1.5660  1.7868
17669TIP3   OH274497   5.465   4.549   3.152 -0.1845  0.2031 -0.1529
17669TIP3    H174498   5.489   4.460   3.124  0.6104  0.7521 -1.3251
17669TIP3    H274499   5.548   4.596   3.157 -0.5141  0.6655  1.3170
17670TIP3   OH274500   1.592   5.898   3.876 -0.2338  0.2429 -0.4681
17670TIP3    H174501   1.513   5.903   3.929  1.3439  2.4718  1.9703
17670TIP3    H274502   1.618   5.989   3.863  2.1410 -0.4047 -0.8097
17671TIP3   OH274503   1.069   1.077   1.922 -0.0899 -0.1135  0.1095
17671TIP3    H174504   1.118   1.083   2.004  1.5112 -0.1953 -0.7876
17671TIP3    H274505   1.134   1.048   1.858 -1.7883 -2.2200 -0.7734
17672TIP3   OH274506   2.370   3.360  15.485 -0.6704  0.5217 -0.2175
17672TIP3    H174507   2.428   3.289  15.458 -0.4559  0.5625  0.1323
17672TIP3    H274508   2.389   3.431  15.423 -0.5660  0.4298 -0.2910
17673TIP3   OH274509   1.257   0.133   3.784 -0.3603  0.4712  0.9865
17673TIP3    H174510   1.204   0.054   3.790 -0.0920  0.1309 -0.6447
17673TIP3    H274511   1.339   0.104   3.743 -0.5001  1.6918 -0.2269
17674TIP3   OH274512   5.728   4.085   3.382 -0.3661  0.5124  0.0324
17674TIP3    H174513   5.765   4.145   3.317 -0.8037  1.4489  0.6264
17674TIP3    H274514   5.804   4.043   3.422 -0.0836  0.1578 -0.8707
17675TIP3   OH274515   5.691   3.282   4.007 -0.6227  0.5827  0.1085
17675TIP3    H174516   5.661   3.320   3.925 -0.4842  3.1045  1.1263
17675TIP3    H274517   5.768   3.230   3.983 -1.0488  0.6175 -1.4300
17676TIP3   OH274518   1.649   3.777   0.558  0.0905  0.3703 -0.4866
17676TIP3    H174519   1.658   3.866   0.524 -0.1945  1.4062  1.9527
17676TIP3    H274520   1.555   3.764   0.569  0.1497 -0.1160 -0.4890
17677TIP3   OH274521   2.859   5.797  15.252  0.1240 -0.1332 -0.3988
17677TIP3    H174522   2.885   5.889  15.247  0.2729 -0.0229  1.7368
17677TIP3    H274523   2.778   5.792  15.200  0.3951  1.0677 -0.9748
17678TIP3   OH274524   3.347   7.114   5.074  0.0532 -0.6249  0.6038
17678TIP3    H174525   3.309   7.037   5.115  1.6028 -2.2892 -0.9467
17678TIP3    H274526   3.420   7.139   5.131  0.2260 -0.9753  0.5362
17679TIP3   OH274527   6.604   6.179  10.536 -0.1673 -0.1932 -0.0227
17679TIP3    H174528   6.689   6.216  10.513 -0.7621  0.2193 -1.7312
17679TIP3    H274529   6.547   6.254  10.546 -1.0083 -0.5230 -1.9095
17680TIP3   OH274530   1.674   4.981   4.822  0.0133 -0.0549  0.1624
17680TIP3    H174531   1.673   4.914   4.754 -0.6994  0.3443 -0.2421
17680TIP3    H274532   1.766   4.994   4.842  0.1345 -1.6297  0.7477
17681TIP3   OH274533   5.236   4.900   4.612 -0.5905  0.7934 -0.3924
17681TIP3    H174534   5.284   4.982   4.629 -0.4468  0.9976 -1.7074
17681TIP3    H274535   5.160   4.905   4.670  0.0470  1.2797  0.4381
17682TIP3   OH274536   0.039   4.596  14.357  0.2402  0.1647  0.0764
17682TIP3    H174537   0.014   4.528  14.294 -0.3635 -0.5884  1.0906
17682TIP3    H274538   0.044   4.676  14.305  2.0433 -0.8025 -1.3603
17683TIP3   OH274539   0.359   4.810  11.854 -0.2206  0.0599 -0.0318
17683TIP3    H174540   0.361   4.781  11.763  2.3329  0.5526 -0.2130
17683TIP3    H274541   0.302   4.887  11.854 -0.4207 -0.0749 -1.1694
17684TIP3   OH274542   6.982   5.470   5.997  0.5041  0.3436  0.0432
17684TIP3    H174543   7.038   5.510   6.063  0.3877  0.4138  0.0994
17684TIP3    H274544   6.934   5.543   5.959  2.4256  0.6764 -1.9348
17685TIP3   OH274545   5.292   3.490   2.881 -0.2144 -0.0445  0.0449
17685TIP3    H174546   5.294   3.530   2.794  1.4124  1.5172  0.7392
17685TIP3    H274547   5.367   3.430   2.882 -0.6420 -0.5854  0.1486
17686TIP3   OH274548   6.102   5.852   4.542 -0.3167 -0.1415 -0.3337
17686TIP3    H174549   6.081   5.824   4.453 -0.5638 -2.2318  0.3260
17686TIP3    H274550   6.027   5.904   4.570 -0.6368 -0.2288 -1.0217
17687TIP3   OH274551   4.977   0.248   4.870  0.0690  0.2013 -0.5995
17687TIP3    H174552   4.913   0.219   4.805  2.5275 -2.3286 -2.1351
17687TIP3    H274553   4.957   0.195   4.948 -1.2617  1.3426 -0.1286
17688TIP3   OH274554   2.687   3.962   1.512  0.0197  0.6371  0.2371
17688TIP3    H174555   2.782   3.952   1.504 -0.0529  0.7428 -0.9810
17688TIP3    H274556   2.670   3.953   1.606  1.1182 -0.2976  0.3740
17689TIP3   OH274557   6.554   5.198   3.394 -0.6145 -0.4746  0.0729
17689TIP3    H174558   6.625   5.174   3.454 -0.0058  0.8034 -0.1035
17689TIP3    H274559   6.502   5.262   3.444 -0.7466 -0.2398 -0.3644
17690TIP3   OH274560   2.376   2.930   3.757  1.1635 -0.3337  0.0724
17690TIP3    H174561   2.401   3.011   3.712  1.8571 -1.1143 -1.0106
17690TIP3    H274562   2.458   2.880   3.761  1.2783 -0.0653  2.7844
17691TIP3   OH274563   4.805   5.581  13.587  0.0936  0.2931  0.1624
17691TIP3    H174564   4.767   5.661  13.550 -0.9384 -1.2704 -2.3506
17691TIP3    H274565   4.896   5.604  13.606  0.0952  1.7776 -1.4667
17692TIP3   OH274566   6.549   0.861   1.594 -0.2838 -0.4539 -0.2161
17692TIP3    H174567   6.463   0.904   1.596  0.0285  0.2569 -1.5066
17692TIP3    H274568   6.601   0.908   1.660 -0.6151 -0.3103 -0.0536
17693TIP3   OH274569   2.402   4.486   0.774  0.7091 -0.6680 -0.2952
17693TIP3    H174570   2.445   4.515   0.694  0.1291 -0.4020 -0.5247
17693TIP3    H274571   2.370   4.568   0.814  0.6429 -0.8341 -0.0066
17694TIP3   OH274572   3.614   3.643  15.727  0.0558  0.6076 -0.5033
17694TIP3    H174573   3.708   3.661  15.728  0.3507 -0.8239  1.1537
17694TIP3    H274574   3.575   3.721  15.686  1.9436  1.1896 -1.2895
17695TIP3   OH274575   3.383   0.471   4.763  0.0922  0.0976  0.7644
17695TIP3    H174576   3.385   0.532   4.836 -0.4643 -1.0664  1.7939
17695TIP3    H274577   3.377   0.526   4.685  2.1807  1.4282  1.4710
17696TIP3   OH274578   1.354   1.557   5.137  0.2058 -0.4452  0.6198
17696TIP3    H174579   1.269   1.518   5.158  0.0615 -0.3110  0.2837
17696TIP3    H274580   1.415   1.513   5.195 -0.2104  0.0079  1.4235
17697TIP3   OH274581   6.199   0.408   3.572 -0.7171  0.0344  0.7490
17697TIP3    H174582   6.180   0.322   3.611  0.3027 -0.4252  0.2630
17697TIP3    H274583   6.237   0.387   3.486 -0.8466  0.9835  0.4555
17698TIP3   OH274584   2.663   4.101  14.191  0.2479 -0.4425 -0.6147
17698TIP3    H174585   2.585   4.046  14.186  0.4911 -0.8831  0.1909
17698TIP3    H274586   2.730   4.050  14.145  0.4358 -0.7605  0.0025
17699TIP3   OH274587   0.022   5.830  14.470 -0.2466 -0.0179 -0.0158
17699TIP3    H174588   0.067   5.814  14.387 -1.3275  0.0317 -0.6279
17699TIP3    H274589   0.083   5.797  14.537  0.7061  0.0899 -0.8089
17700TIP3   OH274590   1.817   6.197   4.157  0.2665 -0.2970 -0.0341
17700TIP3    H174591   1.727   6.226   4.146  0.5021  1.3557  1.6863
17700TIP3    H274592   1.811   6.123   4.217  0.0106 -0.5107 -0.3243
17701TIP3   OH274593   4.600   2.254   1.470  0.4326  0.3653  0.4092
17701TIP3    H174594   4.541   2.228   1.540  0.4955  0.4256  0.4848
17701TIP3    H274595   4.655   2.176   1.455  0.7882  0.5369  0.8097
17702TIP3   OH274596   2.820   5.766   5.894  0.5939  0.5455 -0.2075
17702TIP3    H174597   2.757   5.695   5.903  0.6523  0.1717 -2.2073
17702TIP3    H274598   2.768   5.842   5.872  0.5645  1.0959  1.6011
17703TIP3   OH274599   2.742   3.276  10.560 -0.0146  0.2453  0.3395
17703TIP3    H174600   2.776   3.264  10.649 -0.1056  0.0549  0.3501
17703TIP3    H274601   2.775   3.361  10.533 -0.4409  0.5503  0.7604
17704TIP3   OH274602   2.781   3.496   5.253  0.8200  0.0425 -0.0822
17704TIP3    H174603   2.847   3.564   5.269 -2.6767  3.6472  0.7186
17704TIP3    H274604   2.730   3.529   5.179 -0.7196 -2.0743 -0.0624
17705TIP3   OH274605   5.916   4.946  12.924 -0.4678 -0.0639  0.0661
17705TIP3    H174606   5.914   4.881  12.853 -0.0348 -0.9398  0.8358
17705TIP3    H274607   5.850   4.915  12.986 -0.4181  0.3599  0.3295
17706TIP3   OH274608   4.762   6.450   2.577 -0.4992 -0.2104 -0.3861
17706TIP3    H174609   4.831   6.469   2.513  0.3923 -1.9356  0.0043
17706TIP3    H274610   4.683   6.489   2.539  0.5903  1.5110 -1.0127
17707TIP3   OH274611   3.436   3.870   4.109  0.1939  0.6890 -0.4154
17707TIP3    H174612   3.408   3.940   4.050  2.7108  0.6482 -1.7909
17707TIP3    H274613   3.463   3.916   4.189  0.5081  1.1557 -0.7851
17708TIP3   OH274614   0.889   5.289   2.303  0.4209  0.2301  0.7661
17708TIP3    H174615   0.960   5.234   2.271  0.2907  0.5879 -0.1572
17708TIP3    H274616   0.931   5.371   2.329  0.1435  1.3145 -1.8673
17709TIP3   OH274617   0.997   2.704   0.135 -0.7563 -0.3706  0.4418
17709TIP3    H174618   1.001   2.618   0.094  1.1703 -0.5257  0.8517
17709TIP3    H274619   1.041   2.762   0.073 -0.8842  0.0608  0.7521
17710TIP3   OH274620   1.589   4.212  13.889 -0.0148 -0.1353  0.1260
17710TIP3    H174621   1.498   4.241  13.892  0.0407  0.5526 -2.3579
17710TIP3    H274622   1.631   4.271  13.825  1.8902 -1.1432  0.3704
17711TIP3   OH274623   1.819   0.766   1.298 -0.4425  0.4676 -0.3648
17711TIP3    H174624   1.737   0.814   1.293 -0.2871  0.7402 -0.2943
17711TIP3    H274625   1.842   0.746   1.207  0.2824  1.8629 -0.5103
17712TIP3   OH274626   1.175   0.435   0.614 -0.1097  0.0680  0.6923
17712TIP3    H174627   1.253   0.473   0.654 -0.2405 -0.3640  1.3907
17712TIP3    H274628   1.105   0.497   0.634 -0.2681 -0.3717  1.5821
17713TIP3   OH274629   3.906   3.193  13.320 -0.4172 -0.3043  0.3517
17713TIP3    H174630   3.830   3.181  13.262  0.9215 -0.3046 -1.5023
17713TIP3    H274631   3.920   3.107  13.360 -0.1200 -0.8988 -0.9800
17714TIP3   OH274632   0.666   3.354   1.165  0.3166  0.1160 -0.3995
17714TIP3    H174633   0.651   3.311   1.249 -0.6749  0.6325 -0.3058
17714TIP3    H274634   0.758   3.379   1.167 -0.3052  2.5772  1.6827
17715TIP3   OH274635   2.423   5.978   2.541 -0.6211  0.4702  0.1733
17715TIP3    H174636   2.383   6.028   2.470  0.9580  0.0052 -1.0780
17715TIP3    H274637   2.487   6.038   2.580 -0.0977  0.0617 -0.0628
17716TIP3   OH274638   3.897   2.719   4.939  0.3421 -0.3347 -0.0521
17716TIP3    H174639   3.814   2.694   4.898 -1.2003  1.7190  1.6229
17716TIP3    H274640   3.885   2.699   5.032  2.0209 -0.6565  0.1213
17717TIP3   OH274641   0.488   6.523  12.832  0.0858  0.0543  0.4811
17717TIP3    H174642   0.522   6.438  12.804 -0.6755 -0.1020  0.0147
17717TIP3    H274643   0.546   6.587  12.791  0.2325 -0.2212  0.2513
17718TIP3   OH274644   1.291   4.717   4.433 -0.2903  0.0008 -0.2907
17718TIP3    H174645   1.347   4.780   4.479 -0.5689  1.1607 -1.4818
17718TIP3    H274646   1.208   4.720   4.480  0.0044 -0.2084  0.2492
17719TIP3   OH274647   1.998   3.347   5.298  0.5206  0.1064  0.2263
17719TIP3    H174648   2.002   3.318   5.389  2.5769 -0.0828  0.1291
17719TIP3    H274649   2.064   3.417   5.293 -1.0107  1.5496 -0.6570
17720TIP3   OH274650   6.122   6.902   4.931 -0.1391 -0.4410  0.0339
17720TIP3    H174651   6.156   6.881   4.843 -1.6429  0.3097 -0.7643
17720TIP3    H274652   6.040   6.948   4.914  0.6154  1.7310  1.7825
17721TIP3   OH274653   0.453   6.041  15.174 -0.0642 -0.5333  0.3384
17721TIP3    H174654   0.545   6.016  15.180 -0.3991 -1.8024  0.5456
17721TIP3    H274655   0.444   6.082  15.088  0.6807 -0.4228  0.3063
17722TIP3   OH274656   0.056   1.793   2.894 -0.2984 -0.2454 -0.0475
17722TIP3    H174657   0.144   1.784   2.932  0.1164 -1.6942 -1.2719
17722TIP3    H274658   0.065   1.863   2.830 -0.1783 -0.0192  0.2140
17723TIP3   OH274659   6.784   6.218   5.393  0.7846 -0.0729  0.6451
17723TIP3    H174660   6.854   6.173   5.440  0.6135 -0.5156  0.4711
17723TIP3    H274661   6.709   6.215   5.453  0.4735 -0.9118  0.2255
17724TIP3   OH274662   3.887   3.398   4.025 -0.3518 -0.4804 -0.6226
17724TIP3    H174663   3.792   3.410   4.031 -0.6163 -2.4087 -0.4626
17724TIP3    H274664   3.914   3.374   4.113  0.4065  0.6282 -0.5321
17725TIP3   OH274665   7.045   2.595  13.066 -0.5603  0.5716  0.3634
17725TIP3    H174666   7.003   2.514  13.095 -0.8619  0.0916 -1.3461
17725TIP3    H274667   6.990   2.627  12.995 -0.0988  1.9601  0.6097
17726TIP3   OH274668   3.663   4.306   4.496 -0.7217  1.0085 -0.3510
17726TIP3    H174669   3.731   4.345   4.550  0.7835 -1.3558 -0.4149
17726TIP3    H274670   3.706   4.234   4.450 -3.0208  0.0677 -1.1977
17727TIP3   OH274671   5.271   0.929   1.344  0.1220  0.5796  0.0026
17727TIP3    H174672   5.296   0.858   1.404  0.3379  1.2645  0.7441
17727TIP3    H274673   5.333   0.923   1.272  1.5765  1.3705  1.1347
17728TIP3   OH274674   0.926   1.085   6.157 -0.0899  0.9296 -0.3597
17728TIP3    H174675   0.893   1.163   6.113  2.6351  1.0313 -2.4539
17728TIP3    H274676   1.020   1.103   6.171  0.0096 -0.8088  1.8162
17729TIP3   OH274677   1.597   4.624   4.810 -0.2381 -0.2653 -0.5219
17729TIP3    H174678   1.582   4.641   4.903 -1.5353 -0.9386 -0.5893
17729TIP3    H274679   1.649   4.543   4.808  1.9634  1.0561 -0.3479
17730TIP3   OH274680   2.484   2.015  13.606 -0.2236  0.1904 -0.6924
17730TIP3    H174681   2.421   1.943  13.610  1.0140 -0.8798  1.4701
17730TIP3    H274682   2.445   2.084  13.659 -0.0035 -0.1448 -0.0783
17731TIP3   OH274683   5.222   0.706   2.547  0.1290 -0.0665  0.0698
17731TIP3    H174684   5.287   0.709   2.476  0.0064  0.6340 -0.0230
17731TIP3    H274685   5.138   0.699   2.501 -0.2370  3.3584 -0.0702
17732TIP3   OH274686   3.764   6.119   0.559  0.1179  0.4634 -0.3277
17732TIP3    H174687   3.727   6.199   0.595  0.1991  0.8177 -1.0132
17732TIP3    H274688   3.713   6.103   0.480 -0.9256 -1.0108  0.5925
17733TIP3   OH274689   6.912   5.361  15.453 -0.1471 -0.0074  0.7294
17733TIP3    H174690   6.821   5.390  15.466  0.1770  0.6557  1.6669
17733TIP3    H274691   6.943   5.412  15.378 -0.5259 -0.1853  0.4481
17734TIP3   OH274692   1.648   0.245   1.197 -0.1645 -0.9152  0.0065
17734TIP3    H174693   1.685   0.279   1.278  1.1617 -2.4930  0.1081
17734TIP3    H274694   1.605   0.163   1.223 -0.2766 -1.1119 -0.7777
17735TIP3   OH274695   3.205   4.135   2.726  0.1310  0.6254  0.1651
17735TIP3    H174696   3.235   4.142   2.635  1.1401  0.9227  0.5009
17735TIP3    H274697   3.284   4.113   2.775 -0.8898 -2.6532  0.6129
17736TIP3   OH274698   6.740   2.967   2.798  0.3139 -0.1908 -0.0119
17736TIP3    H174699   6.712   2.876   2.808 -0.9650  0.1718 -0.0589
17736TIP3    H274700   6.659   3.017   2.803  0.7582  0.8092 -1.9385
17737TIP3   OH274701   5.549   3.806   0.706 -0.6066 -0.0944  0.5850
17737TIP3    H174702   5.603   3.881   0.731  0.0051 -0.5398  0.6199
17737TIP3    H274703   5.537   3.815   0.612  1.1549 -1.0101  0.2246
17738TIP3   OH274704   0.430   5.153   2.861 -0.1384  0.5080  0.3117
17738TIP3    H174705   0.516   5.196   2.861  0.2615 -0.1316 -2.0626
17738TIP3    H274706   0.447   5.067   2.899  0.4261  0.1936 -0.6071
17739TIP3   OH274707   4.022   1.320  12.674  0.2337 -0.5543  0.8027
17739TIP3    H174708   3.968   1.374  12.733  0.2038  2.6943 -1.9010
17739TIP3    H274709   3.961   1.292  12.606  1.4719  2.1293 -1.6218
17740TIP3   OH274710   4.450   6.057   1.920 -0.4402 -0.1499  0.4735
17740TIP3    H174711   4.365   6.066   1.963 -0.6243 -0.7907  0.2598
17740TIP3    H274712   4.492   5.984   1.966  0.7368  1.2567  1.7538
17741TIP3   OH274713   5.614   6.068   5.312 -0.0832 -0.0484 -0.0478
17741TIP3    H174714   5.674   5.998   5.336 -0.0098  0.6087  1.8647
17741TIP3    H274715   5.571   6.037   5.232 -0.4461 -2.5276  1.0088
17742TIP3   OH274716   4.197   2.521  13.189  0.9658  0.4157  0.7061
17742TIP3    H174717   4.133   2.593  13.188  0.1343 -0.3200  0.2967
17742TIP3    H274718   4.196   2.486  13.100 -1.2136 -2.3046  1.6500
17743TIP3   OH274719   6.412   5.895  11.748  0.4922 -0.1340 -0.2137
17743TIP3    H174720   6.358   5.875  11.672 -0.5164 -0.2278  0.5120
17743TIP3    H274721   6.480   5.954  11.715 -1.2847  1.7228 -0.7354
17744TIP3   OH274722   1.473   6.509   5.004  0.4545  0.8053  0.0989
17744TIP3    H174723   1.426   6.494   4.922  0.6245  1.0648 -0.0471
17744TIP3    H274724   1.410   6.556   5.059  0.6848  1.5297 -0.2496
17745TIP3   OH274725   1.540   0.024   3.955 -0.4609  0.5327 -0.8499
17745TIP3    H174726   1.483   0.032   4.032 -0.6881 -1.2295 -0.7883
17745TIP3    H274727   1.619  -0.019   3.989 -1.4465 -2.3833 -1.9078
17746TIP3   OH274728   2.539   2.070   4.409 -0.9849 -0.1999  0.2933
17746TIP3    H174729   2.583   2.154   4.417 -1.8811  0.1403  2.3585
17746TIP3    H274730   2.516   2.064   4.316 -1.5498  2.2030  0.1994
17747TIP3   OH274731   5.045   4.676  15.569 -0.4173 -0.6715  0.1766
17747TIP3    H174732   5.065   4.640  15.656 -0.9611  1.2126  1.1450
17747TIP3    H274733   5.017   4.601  15.517 -1.4582 -1.6601  2.0630
17748TIP3   OH274734   0.939   1.907  14.360  0.2247  0.0649 -0.5490
17748TIP3    H174735   0.913   1.942  14.275 -0.6500  0.6108 -0.0685
17748TIP3    H274736   0.922   1.813  14.354 -1.4195  0.3207 -0.4389
17749TIP3   OH274737   0.296   1.742  15.407 -0.1218 -0.1692 -0.7640
17749TIP3    H174738   0.337   1.827  15.421  1.8262 -1.0970 -0.5275
17749TIP3    H274739   0.292   1.732  15.312 -0.2413  0.1115 -0.7904
17750TIP3   OH274740   4.275   6.128   3.470  0.5159 -0.2749 -0.1842
17750TIP3    H174741   4.243   6.120   3.560 -2.6923 -0.9001 -1.2548
17750TIP3    H274742   4.267   6.222   3.451  0.1899 -0.2919 -0.1403
17751TIP3   OH274743   2.504   2.425  10.631 -0.4585  0.1855  0.5363
17751TIP3    H174744   2.521   2.478  10.709  0.5065  1.0147 -0.2072
17751TIP3    H274745   2.588   2.384  10.611 -1.0228 -1.0620  0.6752
17752TIP3   OH274746   3.415   2.529   2.754  0.8736  0.3087  0.0020
17752TIP3    H174747   3.364   2.604   2.786 -0.4066  0.6624 -2.5979
17752TIP3    H274748   3.358   2.454   2.765  0.2570  0.4894 -1.5868
17753TIP3   OH274749   0.004   0.168   6.285 -0.2332 -0.6505  0.3623
17753TIP3    H174750  -0.082   0.208   6.285 -0.1441 -0.4511  0.6857
17753TIP3    H274751   0.063   0.235   6.250 -0.2096 -0.7823  0.1503
17754TIP3   OH274752   5.367   3.363   5.034 -0.4460  0.0721 -0.1795
17754TIP3    H174753   5.327   3.428   5.090 -1.9894  0.0178 -1.1491
17754TIP3    H274754   5.293   3.317   4.994  0.5407  0.4134 -2.5815
17755TIP3   OH274755   1.270   1.836   1.512 -0.2525 -0.0182  0.1912
17755TIP3    H174756   1.317   1.763   1.552 -0.1651 -0.8974 -1.4013
17755TIP3    H274757   1.276   1.819   1.418  1.5383  3.1366 -0.4218
17756TIP3   OH274758   3.571   0.027   2.331 -0.1872  0.2495  0.1792
17756TIP3    H174759   3.508  -0.026   2.282 -1.0608  1.2522  0.1813
17756TIP3    H274760   3.633   0.058   2.264  0.1526 -0.5191  0.1325
17757TIP3   OH274761   1.698   5.527   4.479 -0.1327  0.2064 -0.4403
17757TIP3    H174762   1.622   5.527   4.421 -0.0729  0.0759 -0.5183
17757TIP3    H274763   1.772   5.504   4.423  0.1205  1.2850 -0.5703
17758TIP3   OH274764   1.962   5.437   4.402 -0.0965  0.9490  0.7578
17758TIP3    H174765   1.995   5.447   4.313  0.7827  2.5360  1.2126
17758TIP3    H274766   2.038   5.451   4.458 -0.5559 -0.3925  1.7805
17759TIP3   OH274767   5.999   3.418   0.110 -0.4863  0.0316 -0.0672
17759TIP3    H174768   6.084   3.418   0.066  0.4457  1.7314  1.5751
17759TIP3    H274769   5.953   3.494   0.074 -0.6767  0.0436  0.1979
17760TIP3   OH274770   6.118   3.153  14.914  0.5329 -0.2918  0.3226
17760TIP3    H174771   6.090   3.131  15.003 -0.3929  0.2952  0.1868
17760TIP3    H274772   6.214   3.153  14.919  0.5049 -1.0093  1.1303
17761TIP3   OH274773   3.520   6.978  15.572 -0.4715 -0.1649  0.1153
17761TIP3    H174774   3.542   6.917  15.502  0.2163  0.1626  0.0343
17761TIP3    H274775   3.442   7.024  15.541 -0.6447 -0.5883 -0.0797
17762TIP3   OH274776   0.958   2.568   1.755 -0.1960  0.7268  0.0754
17762TIP3    H174777   0.956   2.550   1.849 -1.4746  1.4645  0.2126
17762TIP3    H274778   1.008   2.495   1.718 -1.1695 -0.5384  1.1338
17763TIP3   OH274779   4.775   5.301  13.582  0.5634  0.1064  0.6627
17763TIP3    H174780   4.757   5.391  13.556 -0.0978  0.0868  1.0373
17763TIP3    H274781   4.731   5.291  13.667 -0.1464 -0.8497  0.1997
17764TIP3   OH274782   5.037   6.555   3.915  0.3515  0.2395 -0.1872
17764TIP3    H174783   4.982   6.585   3.987  0.3743  1.0600 -0.4974
17764TIP3    H274784   4.996   6.593   3.837 -0.0764 -1.2058 -0.6970
17765TIP3   OH274785   2.083   2.649   9.900 -0.3431 -0.2438  0.0592
17765TIP3    H174786   2.109   2.560   9.874 -1.3284 -0.4190 -0.3957
17765TIP3    H274787   1.995   2.659   9.862 -0.8654  0.3593  1.3861
17766TIP3   OH274788   2.120   5.880   4.753  0.5877 -0.2120  0.0535
17766TIP3    H174789   2.095   5.950   4.694  1.2330  0.4110  0.4975
17766TIP3    H274790   2.049   5.817   4.748  0.4691 -0.0013 -1.1137
17767TIP3   OH274791   4.881   4.261  11.970 -0.6868  0.0322 -0.4042
17767TIP3    H174792   4.854   4.311  11.893 -0.2196 -1.0691 -1.3086
17767TIP3    H274793   4.976   4.273  11.975 -0.8638  1.1866  0.8157
17768TIP3   OH274794   4.788   1.432   1.113  0.0638 -0.2273 -0.0299
17768TIP3    H174795   4.711   1.385   1.082 -0.4973  1.0058 -0.5798
17768TIP3    H274796   4.853   1.363   1.131 -0.9293 -1.2336 -0.1965
17769TIP3   OH274797   3.608   0.763   1.803 -0.2438  0.1130  0.3661
17769TIP3    H174798   3.543   0.791   1.739 -1.7092 -2.4123  0.5816
17769TIP3    H274799   3.556   0.740   1.881  0.7879 -2.2752  0.4576
17770TIP3   OH274800   5.380   0.284  14.927  0.5106 -0.4449  0.3999
17770TIP3    H174801   5.461   0.255  14.969  2.3299  2.3691 -0.8800
17770TIP3    H274802   5.383   0.379  14.931 -1.2089 -0.1495 -2.4825
17771TIP3   OH274803   3.834   4.542  15.662  0.5307 -0.2597 -0.3700
17771TIP3    H174804   3.828   4.499  15.577  0.2712  0.4484 -0.7089
17771TIP3    H274805   3.768   4.611  15.660  0.8033  0.0297  0.2499
17772TIP3   OH274806   3.634   3.976  11.649  0.6388  0.3907 -0.1624
17772TIP3    H174807   3.718   3.941  11.618  1.6600  2.3281  0.2714
17772TIP3    H274808   3.629   3.949  11.741  1.2561  1.0701  0.0777
17773TIP3   OH274809   5.710   6.800   3.561  0.1952  0.7996  0.0450
17773TIP3    H174810   5.698   6.706   3.574 -1.1732  1.1445  1.7444
17773TIP3    H274811   5.745   6.831   3.645  0.2872  1.8585 -0.3747
17774TIP3   OH274812   4.651   0.308   0.617 -0.2116  0.0392  0.4749
17774TIP3    H174813   4.743   0.322   0.642 -0.1731 -0.9974  0.9838
17774TIP3    H274814   4.654   0.291   0.523 -0.0109  1.0685  0.2873
17775TIP3   OH274815   2.100   3.302  11.881  0.5683 -0.2546  0.2063
17775TIP3    H174816   2.170   3.275  11.820  1.5854 -0.8549  1.5859
17775TIP3    H274817   2.135   3.379  11.925 -0.7555  1.0662 -0.9273
17776TIP3   OH274818   0.998   4.481   4.159  0.1653  0.5919  0.1472
17776TIP3    H174819   1.056   4.415   4.121 -0.9578 -0.4676  0.1852
17776TIP3    H274820   1.049   4.562   4.159  0.9519  0.1387 -1.5855
17777TIP3   OH274821   4.872   2.319   1.197  0.4956 -0.1185 -0.0215
17777TIP3    H174822   4.783   2.353   1.207  0.9434  1.1332 -0.1404
17777TIP3    H274823   4.869   2.270   1.115  0.1198  0.6151 -0.4572
17778TIP3   OH274824   5.895   0.645   4.995 -0.2164 -0.0648 -0.4245
17778TIP3    H174825   5.877   0.730   4.957 -0.4995 -0.5343 -1.3764
17778TIP3    H274826   5.985   0.651   5.029 -1.1192  1.4609  1.9799
17779TIP3   OH274827   3.555   3.013  15.482  0.8659 -0.0731  0.0716
17779TIP3    H174828   3.635   2.970  15.512  0.3954 -0.5077  0.7296
17779TIP3    H274829   3.504   3.029  15.562  1.2835  2.2887 -0.0622
17780TIP3   OH274830   5.531   3.564   1.498  0.4107 -1.0159 -0.1485
17780TIP3    H174831   5.596   3.514   1.547  1.3070  0.8429  0.6595
17780TIP3    H274832   5.472   3.598   1.565  0.8653  0.4316 -0.4360
17781TIP3   OH274833   6.628   0.735  13.801  0.0180 -0.1809 -0.5845
17781TIP3    H174834   6.674   0.651  13.801  0.3411 -0.0453  0.9310
17781TIP3    H274835   6.684   0.793  13.751  0.1026 -0.7153 -1.1216
17782TIP3   OH274836   6.898   5.962  14.242  0.4147  0.1603 -0.2271
17782TIP3    H174837   6.939   5.876  14.228  0.3926 -0.2116  1.7208
17782TIP3    H274838   6.837   5.972  14.168  1.2738 -0.9546 -1.1201
17783TIP3   OH274839   3.005   3.777   4.210  0.4033 -0.2803 -0.2843
17783TIP3    H174840   3.101   3.767   4.209  0.7241  1.8554 -2.8154
17783TIP3    H274841   2.972   3.696   4.170  1.2470 -0.5979 -0.3597
17784TIP3   OH274842   4.697   1.876   2.911 -0.6119 -0.1582 -0.2605
17784TIP3    H174843   4.789   1.879   2.885 -0.5766 -1.2129 -0.2935
17784TIP3    H274844   4.671   1.785   2.896 -1.1548 -0.3172  1.5033
17785TIP3   OH274845   2.270   2.090   6.020  0.2537 -0.4329 -0.3028
17785TIP3    H174846   2.362   2.117   6.017  0.2155 -0.3640 -2.4279
17785TIP3    H274847   2.256   2.061   6.110  2.2997 -0.2612  0.1133
17786TIP3   OH274848   6.083   2.157   4.925 -0.3216 -0.4720  0.1592
17786TIP3    H174849   6.010   2.172   4.866  0.3347 -0.3076 -0.6206
17786TIP3    H274850   6.161   2.155   4.869  0.3271 -0.2204  1.0183
17787TIP3   OH274851   0.100   6.246   4.386 -0.0513  0.2124  0.2794
17787TIP3    H174852   0.043   6.171   4.368  0.8947 -0.5599  0.4370
17787TIP3    H274853   0.041   6.313   4.421 -0.5444 -1.4049  2.8343
17788TIP3   OH274854   1.285   3.944   4.886 -0.0986 -0.0033  0.6811
17788TIP3    H174855   1.229   3.921   4.812  0.2504  0.3345  0.3043
17788TIP3    H274856   1.262   3.881   4.954 -1.0508  0.2313  0.5934
17789TIP3   OH274857   3.577   0.144   0.061 -0.3080  0.1429  0.0598
17789TIP3    H174858   3.656   0.090   0.063  0.2571  0.9041  2.9564
17789TIP3    H274859   3.586   0.203   0.136 -4.0460 -0.3719  1.1134
17790TIP3   OH274860   1.896   3.144   4.814  0.3699  0.2627 -0.4136
17790TIP3    H174861   1.812   3.126   4.856  0.7052  0.5654  0.4216
17790TIP3    H274862   1.951   3.176   4.885  0.4685  2.4149 -1.3568
17791TIP3   OH274863   5.616   1.112   3.655  0.0846 -0.1184  0.1535
17791TIP3    H174864   5.653   1.133   3.741  1.1607 -1.9408  0.1754
17791TIP3    H274865   5.681   1.145   3.593  0.4690 -0.9114  0.1222
17792TIP3   OH274866   5.259   4.415   3.318  0.2906  0.7134  0.1438
17792TIP3    H174867   5.282   4.495   3.271 -0.4173  1.2510  0.6804
17792TIP3    H274868   5.259   4.346   3.252  1.1307  1.1093 -0.2833
17793TIP3   OH274869   6.392   2.825   1.605  0.5689 -0.8570  0.6166
17793TIP3    H174870   6.487   2.827   1.613  0.9578  1.1107 -2.6106
17793TIP3    H274871   6.364   2.913   1.627 -0.1806 -0.7009 -0.8389
17794TIP3   OH274872   5.151   4.930   5.132  0.1952  0.8770 -0.2729
17794TIP3    H174873   5.221   4.940   5.066 -0.8379  1.1873 -1.3647
17794TIP3    H274874   5.192   4.957   5.214  1.5835  0.3020 -0.7441
17795TIP3   OH274875   2.347   0.636   5.089 -0.3599 -0.0800 -0.6094
17795TIP3    H174876   2.381   0.572   5.152 -0.2918  0.1502 -0.4086
17795TIP3    H274877   2.252   0.626   5.094 -0.4331  1.0493  0.7294
17796TIP3   OH274878   2.742   3.568   1.456 -0.5144  0.2867  0.1675
17796TIP3    H174879   2.717   3.636   1.393 -0.0683  0.7466  0.4685
17796TIP3    H274880   2.836   3.582   1.469 -0.2223 -0.9636 -0.4360
17797TIP3   OH274881   5.026   3.152  14.684 -0.1335 -0.4575  0.1564
17797TIP3    H174882   4.955   3.165  14.747 -0.5948  2.1668 -0.7420
17797TIP3    H274883   4.995   3.196  14.605  2.2479  0.2651 -0.4409
17798TIP3   OH274884   0.199   6.816   1.112 -0.0246 -0.2340 -0.0613
17798TIP3    H174885   0.161   6.904   1.115 -0.4560 -0.4139 -0.1363
17798TIP3    H274886   0.255   6.817   1.035 -0.6403 -0.2651 -0.5136
17799TIP3   OH274887   0.008   5.464   5.539  0.1729  0.6805 -0.4822
17799TIP3    H174888   0.005   5.415   5.456  0.5656  1.8040 -1.1770
17799TIP3    H274889   0.044   5.401   5.602  1.6834  0.3774 -1.5930
17800TIP3   OH274890   6.584   3.277   3.587  0.2821  0.7527  0.4703
17800TIP3    H174891   6.564   3.264   3.495  1.0664  1.1779  0.2390
17800TIP3    H274892   6.500   3.265   3.631 -0.1439  0.7998 -0.3163
17801TIP3   OH274893   4.961   0.806   3.543 -0.0538  0.7280  0.2713
17801TIP3    H174894   4.940   0.714   3.563  1.4006  0.7500  2.1030
17801TIP3    H274895   4.996   0.803   3.454  1.2856 -0.7440  0.7904
17802TIP3   OH274896   6.103   6.479   3.461 -0.1082 -0.4142  0.4251
17802TIP3    H174897   6.036   6.544   3.436  1.6010  0.8911 -0.9794
17802TIP3    H274898   6.136   6.511   3.545 -0.3632 -0.3490  0.5028
17803TIP3   OH274899   2.127   2.350   0.225 -0.0164  0.9769 -0.6471
17803TIP3    H174900   2.187   2.284   0.190  1.0483  2.4493 -1.6861
17803TIP3    H274901   2.053   2.299   0.258  1.2426 -0.8036 -0.4319
17804TIP3   OH274902   5.672   2.276   4.355 -0.3454 -0.1111  0.3166
17804TIP3    H174903   5.742   2.224   4.315 -1.3099  0.1200 -1.7940
17804TIP3    H274904   5.662   2.239   4.443  1.4594 -1.0414  0.1850
17805TIP3   OH274905   6.165   4.167   5.469 -0.1443 -0.3683  0.4972
17805TIP3    H174906   6.204   4.170   5.381  0.8191  2.6046  0.9450
17805TIP3    H274907   6.125   4.080   5.473 -0.2559 -0.6302 -2.8788
17806TIP3   OH274908   6.470   4.007   0.478  0.3487  0.0051 -0.4632
17806TIP3    H174909   6.384   4.039   0.503  0.9852  0.8973  0.7185
17806TIP3    H274910   6.512   4.082   0.437  1.0664  0.0392  0.3015
17807TIP3   OH274911   2.656   3.969   2.297  0.3739 -0.1825 -0.2400
17807TIP3    H174912   2.735   3.915   2.308 -0.6957 -1.5273  1.3860
17807TIP3    H274913   2.617   3.938   2.216 -0.1834 -1.9114  0.6218
17808TIP3   OH274914   2.073   1.494   0.558 -0.0469 -0.5481  0.1369
17808TIP3    H174915   2.153   1.541   0.535 -0.7533  1.3951  1.3438
17808TIP3    H274916   2.081   1.409   0.515  2.1225  0.0211 -0.7023
17809TIP3   OH274917   7.115   4.269   0.423  0.3650 -0.4175 -0.2495
17809TIP3    H174918   7.055   4.286   0.497  2.5000  0.3953  1.3945
17809TIP3    H274919   7.067   4.302   0.346 -2.6386 -2.7621  0.4080
17810TIP3   OH274920   0.511   6.407   4.928  0.3730 -0.0596 -0.3254
17810TIP3    H174921   0.440   6.458   4.889  0.0268 -1.1095 -1.1304
17810TIP3    H274922   0.542   6.351   4.857  0.7676 -0.9254  0.5053
17811TIP3   OH274923   4.181   6.506  12.363  0.1544 -0.1147 -0.7270
17811TIP3    H174924   4.158   6.500  12.270 -0.6032  1.3057 -0.6696
17811TIP3    H274925   4.101   6.484  12.409  0.1030  0.5999 -0.4520
17812TIP3   OH274926   0.857   2.084   3.296 -0.1820 -0.5464 -0.5632
17812TIP3    H174927   0.893   2.025   3.229  2.6167 -0.5647  0.7839
17812TIP3    H274928   0.824   2.026   3.364 -0.8634 -0.5257 -0.8687
17813TIP3   OH274929   0.010   0.500   5.941  0.2375 -0.6833  0.2329
17813TIP3    H174930   0.060   0.448   6.003  0.7262  0.0648  0.4823
17813TIP3    H274931   0.053   0.484   5.857 -0.4419 -1.7172  0.0680
17814TIP3   OH274932   2.675   1.033   1.943 -0.4035 -0.2485  0.2213
17814TIP3    H174933   2.619   1.001   2.014 -0.0936 -0.5161  0.3469
17814TIP3    H274934   2.763   1.006   1.968 -0.3051 -0.4400 -0.3198
17815TIP3   OH274935   6.148   1.543   2.859  0.4599  0.0810  0.3052
17815TIP3    H174936   6.243   1.541   2.857  0.5291  1.9706 -0.6997
17815TIP3    H274937   6.121   1.467   2.808  1.4381 -0.1992  0.1951
17816TIP3   OH274938   5.469   6.611   2.217 -0.4897 -0.1000 -0.0497
17816TIP3    H174939   5.480   6.541   2.280  1.5226 -0.7737 -1.0608
17816TIP3    H274940   5.467   6.567   2.132  4.4703  1.0115 -1.0986
17817TIP3   OH274941   7.123   6.810   2.672 -0.7346 -0.4035  0.0456
17817TIP3    H174942   7.051   6.857   2.713  1.1418  1.7775  1.0663
17817TIP3    H274943   7.101   6.808   2.579 -2.1856  0.0232  0.3605
17818TIP3   OH274944   5.487   4.508   4.945  0.5743 -0.2833  0.4617
17818TIP3    H174945   5.460   4.459   4.867  0.1786  1.0167 -0.2552
17818TIP3    H274946   5.527   4.587   4.910  0.5337  0.2486  1.5877
17819TIP3   OH274947   4.268   1.837   5.578 -0.2436 -0.6635  0.9169
17819TIP3    H174948   4.303   1.906   5.635  0.7277  0.0178 -0.4457
17819TIP3    H274949   4.334   1.826   5.510 -2.1258 -0.1116 -1.1463
17820TIP3   OH274950   0.546   4.350   1.631  0.4359  0.5801 -0.4457
17820TIP3    H174951   0.463   4.302   1.628  1.6479 -1.7883  0.8821
17820TIP3    H274952   0.521   4.442   1.643 -2.0399  0.5429 -4.0027
17821TIP3   OH274953   1.941   2.126   2.319  0.3185  0.2338  0.0490
17821TIP3    H174954   1.888   2.074   2.380  0.2246 -0.3080 -0.4758
17821TIP3    H274955   1.921   2.217   2.340 -0.6348  0.0385  0.0217
17822TIP3   OH274956   0.243   1.752  13.997 -0.5898  0.0581 -0.5157
17822TIP3    H174957   0.149   1.738  14.013 -0.3617  0.3220  1.1997
17822TIP3    H274958   0.269   1.815  14.064  1.0940 -0.9427 -0.1920
17823TIP3   OH274959   5.375   1.611  14.262 -0.3049 -0.5247  0.6587
17823TIP3    H174960   5.374   1.600  14.357 -0.9114  0.3806  0.7757
17823TIP3    H274961   5.377   1.706  14.249  0.2181 -0.6461 -0.2401
17824TIP3   OH274962   2.109   1.271   3.670  0.2119 -0.2571  0.0041
17824TIP3    H174963   2.172   1.262   3.598  1.3067  0.0201  0.8976
17824TIP3    H274964   2.025   1.247   3.631  0.7828 -0.1654 -1.3496
17825TIP3   OH274965   3.002   1.841   3.694 -0.6664  0.8461  0.3982
17825TIP3    H174966   3.089   1.825   3.731 -0.7180  0.7812  0.4906
17825TIP3    H274967   3.005   1.798   3.608 -1.4973 -1.5710  1.4822
17826TIP3   OH274968   6.271   4.255  14.903 -0.4884  0.4949 -0.3027
17826TIP3    H174969   6.312   4.265  14.989 -0.2389 -1.2051 -0.1917
17826TIP3    H274970   6.192   4.203  14.919 -0.0832 -0.4238 -1.1757
17827TIP3   OH274971   6.328   1.292   2.084 -0.1907  0.9233  0.5113
17827TIP3    H174972   6.295   1.355   2.019  0.3482  1.4649  0.7553
17827TIP3    H274973   6.261   1.223   2.086  0.6487 -0.0739 -1.9778
17828TIP3   OH274974   1.899   2.757   0.243  0.3841 -0.6826 -0.3367
17828TIP3    H174975   1.838   2.790   0.177  1.6588  0.0305 -1.1965
17828TIP3    H274976   1.883   2.663   0.246 -0.0299 -0.6487 -1.3139
17829TIP3   OH274977   4.726   0.537   2.322 -0.1349  0.2855 -0.4043
17829TIP3    H174978   4.696   0.446   2.329  0.2254  0.1185 -0.9748
17829TIP3    H274979   4.766   0.542   2.236 -0.7919  1.1818 -0.6692
17830TIP3   OH274980   6.810   6.392   1.811 -0.2559 -0.1545 -0.1187
17830TIP3    H174981   6.885   6.337   1.834 -0.4697 -0.5713 -0.3942
17830TIP3    H274982   6.846   6.458   1.753  0.1126  0.3422  0.6599
17831TIP3   OH274983   1.476   6.673   0.131 -0.0155 -0.1907  0.1097
17831TIP3    H174984   1.417   6.647   0.060  0.8842 -2.0786 -0.0045
17831TIP3    H274985   1.542   6.728   0.087 -0.4607  0.1425 -0.1557
17832TIP3   OH274986   2.181   5.339   2.956 -0.1415  0.3900  0.9270
17832TIP3    H174987   2.107   5.300   3.003  0.4678 -0.9022  0.8496
17832TIP3    H274988   2.230   5.385   3.024 -0.4954  0.4520  1.1475
17833TIP3   OH274989   2.888   6.739   1.184 -0.2496 -0.2790 -0.1600
17833TIP3    H174990   2.838   6.657   1.194  0.1914 -0.4389  0.8807
17833TIP3    H274991   2.967   6.725   1.236 -0.7635  1.2906  1.1407
17834TIP3   OH274992   4.839   6.491   5.220  0.1078 -0.3065 -0.3054
17834TIP3    H174993   4.863   6.492   5.312  0.9546  1.0516 -0.5175
17834TIP3    H274994   4.923   6.481   5.174 -0.4066 -2.2955 -0.9320
17835TIP3   OH274995   0.268   2.128   4.492  0.1480  0.0523  0.4551
17835TIP3    H174996   0.284   2.196   4.427  0.9801 -1.2311 -0.7319
17835TIP3    H274997   0.348   2.124   4.543  0.2828 -0.3399  0.2192
17836TIP3   OH274998   5.288   0.005   4.424  0.6811  0.1299  0.0912
17836TIP3    H174999   5.305   0.089   4.382 -0.2714  0.3586  0.1408
17836TIP3    H275000   5.301  -0.060   4.354 -1.1650  0.5231 -0.6753
17837TIP3   OH275001   4.475   1.684   5.407 -0.3274 -0.0966 -0.1333
17837TIP3    H175002   4.543   1.750   5.422 -2.0207  1.9605 -1.0438
17837TIP3    H275003   4.509   1.605   5.449  3.9663 -0.0673 -2.9453
17838TIP3   OH275004   0.934   0.653  15.035 -0.0844 -0.2073  0.2223
17838TIP3    H175005   0.933   0.749  15.041 -2.1020 -0.1662 -0.0615
17838TIP3    H275006   0.843   0.627  15.050  0.4631 -2.1173  0.5372
17839TIP3   OH275007   4.532   6.009  13.884  0.7815 -0.0961  0.1912
17839TIP3    H175008   4.575   6.041  13.964  2.8151 -2.3609  0.1339
17839TIP3    H275009   4.472   5.941  13.915  0.7987 -0.2480 -0.1098
17840TIP3   OH275010   6.986   5.478   1.297  0.3928 -0.0249  0.2526
17840TIP3    H175011   6.964   5.386   1.280  0.1741  0.0324  0.2210
17840TIP3    H275012   6.920   5.506   1.360  1.9274 -0.6108  2.2608
17841TIP3   OH275013   5.520   4.932   2.833  0.4742 -0.2426 -0.0488
17841TIP3    H175014   5.595   4.905   2.781 -0.8149 -1.3721 -1.4518
17841TIP3    H275015   5.519   4.872   2.908  1.7366  0.6947  0.7415
17842TIP3   OH275016   5.668   0.638   0.020  0.4239 -0.4825 -0.3265
17842TIP3    H175017   5.708   0.677  -0.058 -0.0878 -0.3490 -0.5214
17842TIP3    H275018   5.599   0.699   0.046  2.1291  0.7182  1.6658
17843TIP3   OH275019   6.676   1.895  15.755  0.1462  0.2566 -0.2918
17843TIP3    H175020   6.659   1.923  15.665 -0.1074 -0.7273 -0.5686
17843TIP3    H275021   6.635   1.808  15.760  1.1713 -0.1951  0.4271
17844TIP3   OH275022   0.416   1.155   2.125  0.1236  0.0033 -0.4254
17844TIP3    H175023   0.395   1.062   2.114  0.6645 -0.0738 -0.8349
17844TIP3    H275024   0.432   1.187   2.036  0.1778  0.4321 -0.2631
17845TIP3   OH275025   2.551   6.735   0.984 -0.7254 -0.2583  0.3860
17845TIP3    H175026   2.507   6.806   1.030  0.5191  0.9998 -0.2737
17845TIP3    H275027   2.641   6.766   0.973  0.2834 -2.5846  1.3935
17846TIP3   OH275028   1.657   1.819   1.403  0.4889  0.1679  0.0365
17846TIP3    H175029   1.576   1.771   1.416  1.1280 -0.8854  0.2466
17846TIP3    H275030   1.711   1.797   1.479  1.4845 -0.2467 -0.7512
17847TIP3   OH275031   5.549   4.114  13.037 -0.0401 -0.5108  0.3331
17847TIP3    H175032   5.564   4.021  13.057 -1.2668 -1.1317 -1.4256
17847TIP3    H275033   5.597   4.161  13.105  0.1718 -2.4323  1.5819
17848TIP3   OH275034   2.110   4.225   3.458  0.6056  0.2905  0.1284
17848TIP3    H175035   2.165   4.149   3.480 -0.1823 -0.0374  1.0382
17848TIP3    H275036   2.092   4.266   3.542  0.3621  1.0310 -0.2823
17849TIP3   OH275037   1.881   3.129   1.629 -0.3655  0.0083  0.4743
17849TIP3    H175038   1.807   3.105   1.573 -0.7324  0.9774  0.5231
17849TIP3    H275039   1.945   3.166   1.569 -0.3789  0.1953  0.5752
17850TIP3   OH275040   3.490   2.606   5.679 -0.4457 -0.5758 -0.3823
17850TIP3    H175041   3.502   2.537   5.745  2.0610 -0.2616 -0.4154
17850TIP3    H275042   3.562   2.591   5.616 -0.5264  1.3838 -0.9897
17851TIP3   OH275043   5.075   5.631   4.804  0.4717  0.6470 -0.1582
17851TIP3    H175044   4.985   5.661   4.816  0.0801 -1.1217  2.4114
17851TIP3    H275045   5.116   5.644   4.890  2.8853  1.9030 -1.3982
17852TIP3   OH275046   2.734   3.230   5.304  0.0036 -0.6689 -0.1764
17852TIP3    H175047   2.767   3.183   5.228 -0.3307  0.2997 -0.9304
17852TIP3    H275048   2.756   3.322   5.288 -0.2759 -0.4163  0.7807
17853TIP3   OH275049   0.836   6.688   5.132 -0.6194 -0.0449 -0.5516
17853TIP3    H175050   0.767   6.746   5.100 -2.1919 -0.9274  1.0591
17853TIP3    H275051   0.837   6.615   5.070 -1.6965 -0.4023 -0.1676
17854TIP3   OH275052   6.147   5.688   0.997 -0.1177 -0.0871 -0.2154
17854TIP3    H175053   6.111   5.599   1.002 -0.8185  0.2098  0.2434
17854TIP3    H275054   6.204   5.695   1.073 -1.2626  0.3463  0.6475
17855TIP3   OH275055   1.731   6.278   4.472 -0.7134  0.3393  0.0547
17855TIP3    H175056   1.808   6.299   4.419  0.3539 -0.2557  1.3060
17855TIP3    H275057   1.684   6.362   4.481  1.8221  1.6731  2.3943
17856TIP3   OH275058   5.446   2.037   1.910  0.2408 -0.6575  0.1339
17856TIP3    H175059   5.383   1.979   1.954 -0.0861  0.6779  1.5275
17856TIP3    H275060   5.400   2.121   1.904  1.7785  0.2871  0.9893
17857TIP3   OH275061   1.139   6.560   0.205 -0.5196 -0.2219  0.1132
17857TIP3    H175062   1.085   6.522   0.136  0.3090 -0.2833 -0.5177
17857TIP3    H275063   1.229   6.549   0.174 -0.1921  0.8787  0.6162
17858TIP3   OH275064   4.696   4.159   5.523 -0.1522 -0.1402 -0.1278
17858TIP3    H175065   4.682   4.074   5.564 -1.1047  0.1837  0.2272
17858TIP3    H275066   4.789   4.178   5.539  0.1440 -1.2326 -0.4626
17859TIP3   OH275067   3.306   1.664   4.933 -0.8337 -0.1213  0.5700
17859TIP3    H175068   3.290   1.666   5.028  0.4514  0.0223  0.8026
17859TIP3    H275069   3.249   1.595   4.901 -2.2540  0.6852  1.2482
17860TIP3   OH275070   2.320   6.978   2.847  0.5196 -0.2354  0.0743
17860TIP3    H175071   2.410   6.946   2.851  0.1719 -1.2081  0.4297
17860TIP3    H275072   2.303   6.987   2.753  0.9776 -0.0635  0.0020
17861TIP3   OH275073   0.396   5.831   2.455 -0.1089 -0.3025  0.4515
17861TIP3    H175074   0.371   5.896   2.521 -0.2273  0.2995 -0.1625
17861TIP3    H275075   0.325   5.835   2.390  0.2740 -0.4759  0.0153
17862TIP3   OH275076   1.189   3.168  13.015 -0.4647  0.6053  0.1084
17862TIP3    H175077   1.226   3.079  13.018  1.1905  1.2689  0.6575
17862TIP3    H275078   1.226   3.206  12.935 -0.9416  0.8928  0.0268
17863TIP3   OH275079   5.294   4.931   2.497  0.6306 -0.5228 -0.6179
17863TIP3    H175080   5.344   4.930   2.578 -1.2914 -0.1524  0.6402
17863TIP3    H275081   5.300   4.841   2.465  0.1841 -1.0673  0.7575
17864TIP3   OH275082   2.226   6.959   6.243  0.3318 -0.1941 -0.6978
17864TIP3    H175083   2.270   6.896   6.300 -1.5070  0.1136  1.1958
17864TIP3    H275084   2.143   6.918   6.220 -0.6111  1.1959  0.0326
17865TIP3   OH275085   2.092   4.379  12.536 -0.0769 -0.4882 -0.3288
17865TIP3    H175086   2.017   4.386  12.477  0.1669 -3.3448 -1.1314
17865TIP3    H275087   2.165   4.354  12.479  1.5203  1.9920  0.4633
17866TIP3   OH275088   5.674   2.032   2.874 -0.2060  0.0520  0.0946
17866TIP3    H175089   5.768   2.012   2.881 -0.7484 -2.5421  0.9924
17866TIP3    H275090   5.655   2.086   2.950  0.1359 -1.5220  1.3585
17867TIP3   OH275091   5.661   4.972   1.186 -0.3186  0.1773 -0.5827
17867TIP3    H175092   5.660   4.877   1.195 -1.9609  0.0527 -1.6974
17867TIP3    H275093   5.737   4.991   1.131  0.3315 -0.4203  0.0902
17868TIP3   OH275094   6.816   3.446   0.565 -0.2544  0.1428 -0.0705
17868TIP3    H175095   6.842   3.498   0.489 -0.1037 -0.8792 -0.7473
17868TIP3    H275096   6.890   3.387   0.580  0.1462  1.0071  1.5227
17869TIP3   OH275097   1.618   6.162   2.664 -0.2474 -0.9340  0.3396
17869TIP3    H175098   1.544   6.114   2.702  0.4285 -2.8700 -0.6619
17869TIP3    H275099   1.669   6.095   2.618  1.9399  0.3922  0.6745
17870TIP3   OH275100   0.627   5.212   4.370  0.0053  0.4475  0.1412
17870TIP3    H175101   0.590   5.130   4.403  0.8769 -0.0950 -0.1998
17870TIP3    H275102   0.700   5.185   4.315  0.7656  1.4812  0.6040
17871TIP3   OH275103   1.288   7.029   2.995 -0.3774 -0.4238  0.2107
17871TIP3    H175104   1.202   7.057   3.027  0.7362  1.8217  1.5388
17871TIP3    H275105   1.334   7.111   2.976  1.8420 -1.4858  0.6317
17872TIP3   OH275106   6.374   1.451   4.373  0.4665 -0.0829 -0.0275
17872TIP3    H175107   6.374   1.546   4.386 -0.6328 -0.0321 -0.2997
17872TIP3    H275108   6.371   1.440   4.278  1.8418 -0.4141 -0.0560
17873TIP3   OH275109   2.321   2.202  13.776  0.5242 -0.1342 -0.2628
17873TIP3    H175110   2.260   2.267  13.810  0.0718 -0.4510 -0.4514
17873TIP3    H275111   2.273   2.159  13.705  0.5928 -1.0740  0.2434
17874TIP3   OH275112   6.645   0.982   5.086  0.0276  0.0723 -0.3360
17874TIP3    H175113   6.614   0.918   5.149  0.1074  1.2414  0.9270
17874TIP3    H275114   6.703   0.933   5.028  1.3127 -0.6988  1.5307
17875TIP3   OH275115   4.158   0.324  11.535 -0.6038  0.3396  0.1174
17875TIP3    H175116   4.210   0.333  11.615 -0.5944  0.3528  0.1097
17875TIP3    H275117   4.073   0.290  11.565 -0.2847 -0.5742  0.0384
17876TIP3   OH275118   4.354   4.653   4.814  0.2724 -0.3025 -0.1649
17876TIP3    H175119   4.389   4.741   4.800 -0.9878  0.3954  0.9114
17876TIP3    H275120   4.431   4.600   4.831  0.9331  0.9531  0.9576
17877TIP3   OH275121   2.418   4.649   2.840 -0.2482 -0.2742 -0.0482
17877TIP3    H175122   2.412   4.649   2.744  1.5892 -0.8245 -0.2023
17877TIP3    H275123   2.366   4.573   2.867  1.4729 -1.8110 -0.8485
17878TIP3   OH275124   6.247   2.465  11.430  0.0647 -0.3906  0.1963
17878TIP3    H175125   6.156   2.476  11.457  0.1095  1.8504 -0.3505
17878TIP3    H275126   6.274   2.552  11.400  2.2184 -1.1237 -0.1976
17879TIP3   OH275127   2.477   1.931   1.027 -0.3739 -0.0423 -0.3528
17879TIP3    H175128   2.459   1.875   0.952 -0.5543 -0.9685  0.3727
17879TIP3    H275129   2.479   2.020   0.990 -2.3541 -0.2727 -1.1414
17880TIP3   OH275130   3.806   6.385  10.391 -0.7022 -0.1936 -0.5070
17880TIP3    H175131   3.746   6.349  10.326  0.3625 -2.6427 -0.2338
17880TIP3    H275132   3.813   6.316  10.457  2.8105 -0.2779 -0.8035
17881TIP3   OH275133   6.796   0.785  12.950  0.3799 -0.2608  0.1415
17881TIP3    H175134   6.831   0.746  13.030  2.1357  1.9454  0.5502
17881TIP3    H275135   6.765   0.872  12.977 -1.4812 -0.4741 -1.0966
17882TIP3   OH275136   2.954   3.759   5.272 -0.2342  0.3730 -0.2732
17882TIP3    H175137   2.980   3.801   5.354 -0.4589 -0.1672  0.0792
17882TIP3    H275138   3.002   3.807   5.205 -1.9919  2.5081 -0.0941
17883TIP3   OH275139   5.577   3.078  12.357 -0.3798  0.4367  0.3721
17883TIP3    H175140   5.526   2.998  12.346  0.1328  0.1337  0.1174
17883TIP3    H275141   5.597   3.082  12.450  0.0577 -0.0305  0.3029
17884TIP3   OH275142   4.294   6.924   0.200  0.4579 -0.1543  0.2726
17884TIP3    H175143   4.334   6.925   0.113  3.0947 -0.1297  1.3892
17884TIP3    H275144   4.281   6.831   0.219  0.5773 -0.1973  0.1465
17885TIP3   OH275145   3.400   0.614  11.449 -0.2045 -0.4271 -0.1275
17885TIP3    H175146   3.421   0.691  11.396  1.8535 -2.6894 -2.9178
17885TIP3    H275147   3.306   0.620  11.465  0.0889  3.3242  1.1018
17886TIP3   OH275148   2.917   3.244   3.548  0.0889  0.2215  0.1947
17886TIP3    H175149   2.913   3.335   3.520 -0.2907 -0.9161 -4.1789
17886TIP3    H275150   2.844   3.234   3.609 -0.2163  2.6609  0.3200
17887TIP3   OH275151   4.932   5.175   2.823  0.0300  0.1346  0.4378
17887TIP3    H175152   4.915   5.129   2.906  0.9204  1.3069  1.3004
17887TIP3    H275153   5.013   5.136   2.790 -1.4640 -1.9405 -1.1266
17888TIP3   OH275154   7.016   4.784   1.443  1.1423  0.0421 -0.1235
17888TIP3    H175155   7.019   4.817   1.533  1.0292  0.3362 -0.2247
17888TIP3    H275156   7.016   4.689   1.452  0.9142  0.0709  0.1941
17889TIP3   OH275157   0.078   3.623  14.581 -0.4518 -0.0858  0.1064
17889TIP3    H175158   0.110   3.534  14.594 -0.5226 -0.3890 -1.5874
17889TIP3    H275159   0.148   3.679  14.616 -0.3618 -0.7766  1.0776
17890TIP3   OH275160   3.274   4.424   4.529  0.8624 -0.0113 -0.0184
17890TIP3    H175161   3.295   4.515   4.551 -0.1733 -0.0170  1.1016
17890TIP3    H275162   3.273   4.422   4.433  0.1799  1.3355 -0.0637
17891TIP3   OH275163   3.533   0.106   5.210 -0.1189  0.1813  0.3177
17891TIP3    H175164   3.567   0.117   5.121 -1.0054  0.0256 -0.0482
17891TIP3    H275165   3.586   0.035   5.246 -1.8250 -2.0513 -1.2332
17892TIP3   OH275166   3.858   2.540   6.326  0.4614  0.3075 -0.3306
17892TIP3    H175167   3.848   2.496   6.410 -1.0153 -1.2808 -1.2805
17892TIP3    H275168   3.953   2.539   6.310  0.7874  0.7350  1.3166
17893TIP3   OH275169   1.569   5.548   0.760 -0.3179 -0.0960 -0.3303
17893TIP3    H175170   1.655   5.524   0.725 -0.4829 -1.3272  0.0403
17893TIP3    H275171   1.566   5.643   0.753  1.4178  0.0553  0.4352
17894TIP3   OH275172   4.028   0.641  15.377  0.3766  0.0910  0.2479
17894TIP3    H175173   3.971   0.713  15.349  0.2086  0.0379  0.4570
17894TIP3    H275174   3.968   0.572  15.405  0.4965 -0.6784 -1.2664
17895TIP3   OH275175   6.328   2.776   3.853  0.7204  0.1808  0.2079
17895TIP3    H175176   6.250   2.731   3.819  0.5702 -1.4605  2.4748
17895TIP3    H275177   6.297   2.822   3.932  1.6036  1.4780 -0.1681
17896TIP3   OH275178   0.939   5.215  11.665 -0.6380 -0.0084  0.0634
17896TIP3    H175179   1.014   5.159  11.651  1.1273  2.3657 -0.6867
17896TIP3    H275180   0.863   5.157  11.657  1.0364 -2.2853 -0.2211
17897TIP3   OH275181   2.127   1.672   4.091 -0.2118  0.4432 -0.2868
17897TIP3    H175182   2.199   1.705   4.146 -1.5678  0.8538  1.3394
17897TIP3    H275183   2.160   1.679   4.002  0.8877  2.9073  0.2257
17898TIP3   OH275184   3.887   3.197   4.646  0.4129 -0.4996  0.1310
17898TIP3    H175185   3.913   3.107   4.628  0.0547 -0.4370 -0.7558
17898TIP3    H275186   3.963   3.236   4.690 -0.4350 -2.0169  3.2569
17899TIP3   OH275187   5.570   0.492  13.613  0.0263 -0.0477 -0.4666
17899TIP3    H175188   5.577   0.558  13.545  0.5160  0.0978 -0.2747
17899TIP3    H275189   5.659   0.478  13.643 -0.1398 -0.3879 -0.1149
17900TIP3   OH275190   4.100   4.109   4.467 -0.0469 -0.0736  0.1687
17900TIP3    H175191   4.046   4.102   4.546 -1.5232 -0.2812 -0.8242
17900TIP3    H275192   4.142   4.024   4.459  0.7347  0.1963  1.1318
17901TIP3   OH275193   1.112   1.933   2.488 -0.4926 -0.1360 -0.1681
17901TIP3    H175194   1.031   1.884   2.495  0.0277 -1.4222 -2.3161
17901TIP3    H275195   1.121   1.953   2.395  2.5748 -1.7404 -0.3398
17902TIP3   OH275196   1.853   3.526  13.623 -0.0050 -0.1099  0.1074
17902TIP3    H175197   1.932   3.559  13.666 -0.6220  1.9422 -0.2069
17902TIP3    H275198   1.876   3.527  13.530  0.0039 -0.6728  0.1064
17903TIP3   OH275199   2.966   4.912   1.289  0.4179 -0.1485  0.0356
17903TIP3    H175200   2.919   4.995   1.292 -1.3370 -1.0928  3.6488
17903TIP3    H275201   2.900   4.848   1.265  1.0663 -0.8973  0.2182
17904TIP3   OH275202   1.518   3.329   3.513 -0.2687  0.3089 -0.5454
17904TIP3    H175203   1.577   3.380   3.458 -1.4943  0.0026 -2.2604
17904TIP3    H275204   1.436   3.379   3.513 -0.4031  0.1246  0.7495
17905TIP3   OH275205   7.045   5.517  14.392 -0.2940 -0.1889 -0.0366
17905TIP3    H175206   6.986   5.457  14.347  0.2803 -1.2006  0.5429
17905TIP3    H275207   6.986   5.573  14.444 -1.0838  1.7693 -2.7695
17906TIP3   OH275208   6.415   4.294   5.366 -0.0674 -0.0135  0.3359
17906TIP3    H175209   6.435   4.214   5.414  2.1701  0.1670 -0.1927
17906TIP3    H275210   6.444   4.365   5.424  1.1389  0.2604 -0.5742
17907TIP3   OH275211   2.705   1.518   2.861  0.1385 -0.1768 -0.4412
17907TIP3    H175212   2.722   1.440   2.808  1.2004  0.0416 -0.4440
17907TIP3    H275213   2.657   1.485   2.938 -1.0307 -0.5563 -1.3041
17908TIP3   OH275214   3.107   1.812  13.667  0.2840 -0.5517  0.1583
17908TIP3    H175215   3.079   1.776  13.583  0.5686 -2.4375  0.8258
17908TIP3    H275216   3.055   1.765  13.732  2.0778 -1.2012  1.1912
17909TIP3   OH275217   5.018   1.831   4.353 -0.5058 -0.1053  0.4167
17909TIP3    H175218   5.006   1.860   4.444  1.0489 -1.6708  1.1866
17909TIP3    H275219   4.952   1.762   4.341  0.5576 -1.2727  1.0582
17910TIP3   OH275220   0.961   0.196   1.135 -0.6632  0.3564 -0.3065
17910TIP3    H175221   0.889   0.174   1.076 -0.4407  0.8446 -0.7796
17910TIP3    H275222   0.920   0.246   1.206 -0.8368  0.3439 -0.3969
17911TIP3   OH275223   2.749   4.384  15.120  0.1859  0.1036 -0.5152
17911TIP3    H175224   2.692   4.437  15.175 -0.1938 -0.0174 -0.7880
17911TIP3    H275225   2.800   4.330  15.181 -0.4959 -0.2993 -0.3006
17912TIP3   OH275226   6.971   6.018   3.909 -0.2242  0.7427 -0.6724
17912TIP3    H175227   6.876   6.012   3.895 -0.1917  2.0893 -1.6471
17912TIP3    H275228   6.987   6.109   3.932  0.8892  0.6691 -1.0685
17913TIP3   OH275229   1.155   3.998  12.335  0.2610  0.1091 -1.0246
17913TIP3    H175230   1.176   3.965  12.248  0.8863 -1.0593 -0.4611
17913TIP3    H275231   1.235   3.983  12.386 -0.2699  0.2836 -0.1215
17914TIP3   OH275232   1.649   4.343   4.742 -0.0170  0.7413  0.1252
17914TIP3    H175233   1.742   4.333   4.721  0.3875  2.5378  0.8780
17914TIP3    H275234   1.630   4.272   4.804  0.6560 -0.0487 -0.5514
17915TIP3   OH275235   6.325   3.769   5.360  0.3090 -0.0770  0.2156
17915TIP3    H175236   6.271   3.772   5.282  0.4136 -0.7660  0.1109
17915TIP3    H275237   6.342   3.675   5.375  1.3835  0.1131  0.2974
17916TIP3   OH275238   1.005   4.875  15.573 -0.8813  0.1442 -0.0850
17916TIP3    H175239   0.993   4.916  15.488 -1.4554  1.5346  0.6210
17916TIP3    H275240   1.039   4.945  15.629  0.1524 -0.9172  0.6650
17917TIP3   OH275241   0.352   1.406   3.366  0.1450  0.3786  0.3490
17917TIP3    H175242   0.421   1.409   3.300  0.5560  1.0387  0.7940
17917TIP3    H275243   0.376   1.333   3.424 -0.0751 -0.0322 -0.0721
17918TIP3   OH275244   4.296   5.754   6.006 -0.2200  0.3631 -0.4649
17918TIP3    H175245   4.300   5.690   5.936  0.5179  0.6390 -0.6950
17918TIP3    H275246   4.241   5.824   5.972 -1.4575 -0.3580 -0.0130
17919TIP3   OH275247   6.516   5.079  12.419 -0.3560  0.2386  0.0146
17919TIP3    H175248   6.555   4.993  12.404 -1.7600 -0.2750 -0.7736
17919TIP3    H275249   6.434   5.078  12.372 -0.6822  1.8224  0.4688
17920TIP3   OH275250   5.667   6.629   2.701 -0.1607 -0.3122  0.2548
17920TIP3    H175251   5.587   6.576   2.705 -0.3403 -0.4282 -2.8429
17920TIP3    H275252   5.737   6.565   2.683  0.4062 -0.0082  1.2891
17921TIP3   OH275253   1.304   1.624   3.020  0.6566  0.1815  0.2286
17921TIP3    H175254   1.247   1.665   2.955 -0.3833 -0.6714  0.5635
17921TIP3    H275255   1.297   1.682   3.097 -1.7940 -1.1513  1.1344
17922TIP3   OH275256   4.543   4.803   1.592 -0.7658 -0.4098 -0.1577
17922TIP3    H175257   4.568   4.714   1.565  0.0719 -0.6598  1.3017
17922TIP3    H275258   4.541   4.799   1.688 -0.5407  1.1871 -0.0552
17923TIP3   OH275259   4.761   0.469  13.170 -0.1579 -0.3393  0.2106
17923TIP3    H175260   4.841   0.494  13.125 -0.1455 -1.4662 -0.4214
17923TIP3    H275261   4.750   0.536  13.239  1.2514 -0.1142  0.2388
17924TIP3   OH275262   0.617   4.776   1.389  0.2708  0.2273 -0.3499
17924TIP3    H175263   0.522   4.787   1.386  0.1608 -0.7221 -0.6749
17924TIP3    H275264   0.652   4.864   1.378 -0.5318  0.3039 -2.6631
17925TIP3   OH275265   5.932   7.063  14.733  0.2727 -0.2519 -0.4243
17925TIP3    H175266   5.969   7.151  14.722 -0.6284 -0.0813 -2.4963
17925TIP3    H275267   5.865   7.073  14.800  0.7819  0.4234  0.0041
17926TIP3   OH275268   6.874   5.102   3.856 -0.4479  0.0883 -0.1687
17926TIP3    H175269   6.969   5.096   3.858 -0.3942  0.0771 -1.4981
17926TIP3    H275270   6.846   5.025   3.805 -1.1912 -0.0577  0.4324
17927TIP3   OH275271   3.895   2.219   5.160  0.0760 -0.2222 -0.0663
17927TIP3    H175272   3.836   2.286   5.194  0.5950 -0.0348  0.4979
17927TIP3    H275273   3.982   2.247   5.191  0.4237 -0.6167 -0.6773
17928TIP3   OH275274   3.163   2.136   6.021 -0.4845  0.1505  0.6976
17928TIP3    H175275   3.170   2.044   6.049 -0.3887  0.6733  2.5353
17928TIP3    H275276   3.081   2.167   6.060 -0.4700  0.8729  0.1729
17929TIP3   OH275277   5.501   6.251  15.642  0.1595  0.8429  0.5676
17929TIP3    H175278   5.455   6.270  15.560 -0.9863  1.4459  1.3259
17929TIP3    H275279   5.593   6.243  15.616 -0.2374  0.4926 -0.8529
17930TIP3   OH275280   2.700   3.333   4.614  0.2792  0.5337  0.5763
17930TIP3    H175281   2.658   3.377   4.688 -1.7162  0.0974 -0.2294
17930TIP3    H275282   2.728   3.248   4.650  0.2362  0.7223  1.0677
17931TIP3   OH275283   0.494   0.152   4.537 -0.1767  0.2072 -0.6462
17931TIP3    H175284   0.548   0.221   4.499 -0.6930  0.5641 -0.7281
17931TIP3    H275285   0.500   0.167   4.632  0.4110 -0.1661 -0.6152
17932TIP3   OH275286   1.048   3.691   1.863  0.0344  0.2355  0.1756
17932TIP3    H175287   1.079   3.636   1.791 -1.3585  1.2942 -1.3094
17932TIP3    H275288   0.963   3.654   1.887 -0.1268  0.6916  0.3242
17933TIP3   OH275289   7.017   2.221   0.786 -0.0348  0.2758  0.1050
17933TIP3    H175290   7.081   2.179   0.729 -1.8106 -1.6797 -0.5989
17933TIP3    H275291   7.045   2.198   0.875  0.3862 -0.3531 -0.1811
17934TIP3   OH275292   2.775   5.029   2.133  0.0158 -0.3048  0.1470
17934TIP3    H175293   2.866   5.058   2.144 -0.3389  0.6545  0.6442
17934TIP3    H275294   2.730   5.063   2.211 -1.3765  1.6724 -1.4134
17935TIP3   OH275295   7.152   3.934  11.930  0.1539  0.1955 -0.3687
17935TIP3    H175296   7.157   3.934  11.834  0.1186  4.0983 -0.5384
17935TIP3    H275297   7.066   3.974  11.949  0.5270  0.2906  1.2582
17936TIP3   OH275298   6.301   2.845   2.487 -0.6021 -0.1949 -0.7314
17936TIP3    H175299   6.395   2.863   2.491  0.0648 -3.2973  0.3805
17936TIP3    H275300   6.276   2.828   2.578 -2.1077 -0.0869 -1.0941
17937TIP3   OH275301   1.490   2.296  15.009  0.2380  0.1159  0.4165
17937TIP3    H175302   1.425   2.252  14.953  1.0729  0.5714 -0.9565
17937TIP3    H275303   1.477   2.389  14.992 -0.3885  0.3606  2.0414
17938TIP3   OH275304   1.453   5.898  12.187 -0.2468  0.1881  0.1041
17938TIP3    H175305   1.517   5.852  12.132 -0.1470  0.7718 -0.2760
17938TIP3    H275306   1.411   5.960  12.128 -0.7012  0.2732  0.5101
17939TIP3   OH275307   6.954   4.404   0.254 -0.3323 -0.4290 -0.1556
17939TIP3    H175308   6.938   4.426   0.163  2.1999 -0.2042 -0.6045
17939TIP3    H275309   6.873   4.430   0.299 -1.1186  0.7229 -2.1001
17940TIP3   OH275310   2.144   3.746   3.930  0.0512  0.0733  0.0824
17940TIP3    H175311   2.123   3.675   3.991  1.5005 -0.6734 -0.2439
17940TIP3    H275312   2.074   3.810   3.943 -0.5085 -0.7621  1.4222
17941TIP3   OH275313   2.309   1.653   0.479 -0.1623  0.1473  0.2063
17941TIP3    H175314   2.304   1.721   0.412  1.7608 -0.4148 -0.5590
17941TIP3    H275315   2.386   1.676   0.530 -0.8042 -0.2189  1.3801
17942TIP3   OH275316   6.830   5.009  11.292  0.2631 -0.3333  0.0781
17942TIP3    H175317   6.778   4.987  11.369  0.4205  0.4798  0.4220
17942TIP3    H275318   6.822   4.933  11.235 -0.8969 -0.4191  0.3427
17943TIP3   OH275319   6.317   0.596   4.937 -0.0559 -0.3281 -0.0437
17943TIP3    H175320   6.332   0.682   4.976  0.9282 -0.7869  0.6141
17943TIP3    H275321   6.389   0.542   4.970 -1.2416 -1.6847  0.4148
17944TIP3   OH275322   1.630   3.845  13.983  0.0107 -0.3279 -0.4850
17944TIP3    H175323   1.580   3.885  14.054 -1.7164  0.9507 -2.3126
17944TIP3    H275324   1.717   3.882  13.992 -0.0286 -0.5461  1.1944
17945TIP3   OH275325   3.463   6.756   1.535 -0.2978  0.1337  0.0184
17945TIP3    H175326   3.475   6.771   1.629 -0.8675 -0.7963  0.2540
17945TIP3    H275327   3.399   6.822   1.508 -0.9706 -0.2865  0.5319
17946TIP3   OH275328   4.622   5.540   4.575 -0.5170  0.2040 -0.7655
17946TIP3    H175329   4.622   5.445   4.559 -0.7125  0.3878 -1.9353
17946TIP3    H275330   4.560   5.552   4.647 -0.1651 -0.5966 -0.3124
17947TIP3   OH275331   3.035   4.855   3.127  0.2384 -0.1955 -0.4608
17947TIP3    H175332   2.966   4.791   3.116 -0.2104  0.1607  0.2123
17947TIP3    H275333   3.102   4.830   3.064 -1.5367  0.8888 -2.9135
17948TIP3   OH275334   0.285   5.969   4.738  0.4023 -0.1473 -0.1505
17948TIP3    H175335   0.293   6.061   4.761  0.2115 -0.0743 -0.3626
17948TIP3    H275336   0.350   5.955   4.669  0.3674 -0.1462 -0.1841
17949TIP3   OH275337   5.360   5.464   3.121 -0.1184 -0.1750  0.0206
17949TIP3    H175338   5.399   5.378   3.110  0.1505 -0.1203  0.5226
17949TIP3    H275339   5.382   5.511   3.041 -0.8176 -0.7797 -0.5377
17950TIP3   OH275340   0.775   1.085   2.251  0.2903  0.1820  0.2599
17950TIP3    H175341   0.808   1.021   2.187 -1.2931 -0.2548 -0.1539
17950TIP3    H275342   0.746   1.159   2.199  1.2639  0.8849  0.6789
17951TIP3   OH275343   0.903   6.695   0.216 -0.4366  0.0138 -0.3052
17951TIP3    H175344   0.981   6.640   0.225 -0.5216 -0.0898 -0.2085
17951TIP3    H275345   0.830   6.634   0.213 -0.3399 -0.0987 -3.2637
17952TIP3   OH275346   0.353   2.638   2.675 -0.2139  0.1985 -0.3769
17952TIP3    H175347   0.313   2.663   2.758 -2.2844 -1.0687 -0.9243
17952TIP3    H275348   0.298   2.679   2.608  0.7026  0.1929 -1.1702
17953TIP3   OH275349   7.099   3.642   0.551 -0.0668 -0.6459  0.2454
17953TIP3    H175350   7.017   3.606   0.585 -0.7629  0.8866  0.2654
17953TIP3    H275351   7.161   3.629   0.622 -0.7922 -0.0710  1.0103
17954TIP3   OH275352   1.113   2.163   4.879  0.5805  0.3963 -0.0561
17954TIP3    H175353   1.199   2.201   4.897  1.0635 -0.7566  0.1817
17954TIP3    H275354   1.097   2.181   4.787  1.6449 -0.4353 -0.4251
17955TIP3   OH275355   0.404   0.959   3.303  0.2581  0.2284  0.7064
17955TIP3    H175356   0.481   1.016   3.301  0.1115  0.4144  0.2506
17955TIP3    H275357   0.330   1.019   3.303  0.0936  0.0439 -0.3415
17956TIP3   OH275358   0.228   6.100   5.601  0.0310  0.1266  0.4211
17956TIP3    H175359   0.277   6.166   5.552 -0.9537 -0.1068 -0.9324
17956TIP3    H275360   0.265   6.017   5.573  0.4790  0.0380  1.2408
17957TIP3   OH275361   1.393   6.799   4.799  0.1629  0.0325  0.3198
17957TIP3    H175362   1.333   6.853   4.851  0.3670  2.3910 -1.6742
17957TIP3    H275363   1.447   6.863   4.752  0.3203 -1.9086 -2.3600
17958TIP3   OH275364   3.581   1.089   4.869 -0.1751 -0.1524 -0.5348
17958TIP3    H175365   3.565   1.169   4.920 -1.0768  0.3389 -1.5239
17958TIP3    H275366   3.626   1.120   4.791 -2.1406 -0.2966 -1.7910
17959TIP3   OH275367   2.584   5.136   3.928 -0.1991 -0.2606  0.0382
17959TIP3    H175368   2.643   5.065   3.902 -1.1259 -1.4720  1.1015
17959TIP3    H275369   2.577   5.128   4.023 -0.4266  1.2007  0.1637
17960TIP3   OH275370   0.606   5.521   5.029 -0.5449  0.2912  0.1720
17960TIP3    H175371   0.675   5.587   5.028  2.2688 -2.3460  2.0510
17960TIP3    H275372   0.572   5.523   5.118 -1.1799 -0.0942 -0.0551
17961TIP3   OH275373   5.285   3.692   0.822 -0.5746 -0.6074 -0.3058
17961TIP3    H175374   5.369   3.693   0.776  0.5216 -3.9075  1.3064
17961TIP3    H275375   5.307   3.669   0.912 -3.2349 -2.3169  0.0246
17962TIP3   OH275376   5.808   3.740   5.341 -0.2440  0.5349  0.1476
17962TIP3    H175377   5.717   3.770   5.344 -0.4072 -0.0131  1.1206
17962TIP3    H275378   5.808   3.672   5.273 -0.5988  0.4047  0.2770
17963TIP3   OH275379   5.824   0.919   5.005 -0.2926 -0.0119 -0.0656
17963TIP3    H175380   5.731   0.941   4.998 -0.7163 -1.1889  1.3510
17963TIP3    H275381   5.855   0.967   5.082  0.4990  1.0005 -0.9856
17964TIP3   OH275382   7.151   1.814   5.204 -0.1054  0.6291 -0.0956
17964TIP3    H175383   7.167   1.804   5.298  0.3963  2.8657  0.1214
17964TIP3    H275384   7.201   1.744   5.163  0.0499 -0.0882  1.2770
17965TIP3   OH275385   5.584   4.127  15.348 -1.0437  0.4374  0.0023
17965TIP3    H175386   5.609   4.181  15.423  0.7615 -1.1135  0.6075
17965TIP3    H275387   5.494   4.102  15.366 -1.6081  2.3875  0.1831
17966TIP3   OH275388   6.768   0.163   4.590 -0.2574  0.1678  0.1537
17966TIP3    H175389   6.713   0.093   4.556  0.5197 -0.2885 -0.1875
17966TIP3    H275390   6.813   0.124   4.665  0.2842  0.2465 -0.1243
17967TIP3   OH275391   1.252   2.919   6.061  0.0010  0.3822 -0.1832
17967TIP3    H175392   1.191   2.973   6.110  2.0021  1.3030  1.4017
17967TIP3    H275393   1.320   2.895   6.124  1.1146 -0.9015 -1.7807
17968TIP3   OH275394   5.192   4.770   0.809 -0.1744 -0.2695  0.1338
17968TIP3    H175395   5.125   4.801   0.749  1.2669 -0.6199 -1.7745
17968TIP3    H275396   5.207   4.679   0.783  0.7201 -0.3298  0.7987
17969TIP3   OH275397   6.800   3.124  15.179  0.1080 -0.0405 -0.1850
17969TIP3    H175398   6.713   3.088  15.194  0.6670 -1.4061 -0.1056
17969TIP3    H275399   6.784   3.209  15.139 -1.2598 -0.9724 -1.7434
17970TIP3   OH275400   1.171   4.365   3.646  0.6456 -0.1432 -0.0095
17970TIP3    H175401   1.175   4.339   3.554  1.2055 -0.5025  0.1112
17970TIP3    H275402   1.244   4.319   3.687  0.0010 -0.5161  0.7503
17971TIP3   OH275403   3.072   2.144  12.658  0.4065 -0.3099 -0.5486
17971TIP3    H175404   2.979   2.165  12.646  0.1213  0.5444  2.3644
17971TIP3    H275405   3.112   2.226  12.686  2.1244 -0.6275 -1.9108
17972TIP3   OH275406   6.341   4.556  15.219  0.2569  0.1352 -0.0843
17972TIP3    H175407   6.354   4.504  15.140  0.1449 -0.1124  0.0580
17972TIP3    H275408   6.246   4.565  15.227  0.1633 -1.2866  0.9338
17973TIP3   OH275409   5.537   1.709   2.198 -0.3167  0.0665 -0.3273
17973TIP3    H175410   5.464   1.648   2.185 -0.3733 -0.4832  2.1384
17973TIP3    H275411   5.532   1.733   2.290  1.2595  1.8536 -0.6459
17974TIP3   OH275412   3.144   6.320   4.968  0.2458  0.3342  0.5554
17974TIP3    H175413   3.169   6.256   5.034 -0.1135 -0.2171  0.1610
17974TIP3    H275414   3.063   6.358   5.001 -2.0811 -2.6064 -1.2732
17975TIP3   OH275415   6.218   6.686   4.127  0.3152  0.2652  0.4376
17975TIP3    H175416   6.253   6.684   4.038 -0.3543 -0.0934  0.1695
17975TIP3    H275417   6.253   6.607   4.168  3.1033  1.9388  1.5064
17976TIP3   OH275418   4.535   6.086   3.364 -0.3620  0.1433  0.2299
17976TIP3    H175419   4.464   6.110   3.423  0.2439  1.4307  0.4812
17976TIP3    H275420   4.535   6.155   3.298 -0.2664 -0.6350 -0.5995
17977TIP3   OH275421   2.667   2.273   3.697  0.5218 -0.3909 -0.4518
17977TIP3    H175422   2.672   2.368   3.699  1.0133 -0.4251  0.1778
17977TIP3    H275423   2.575   2.253   3.715  0.0134 -0.0012 -2.4327
17978TIP3   OH275424   7.152   5.958   4.754  0.2851  0.1224 -0.0602
17978TIP3    H175425   7.127   5.896   4.685 -1.1467 -0.4452  0.9154
17978TIP3    H275426   7.232   5.999   4.721  0.1461 -0.7728 -1.6486
17979TIP3   OH275427   0.058   2.600  15.358 -0.0118 -0.3743  0.5175
17979TIP3    H175428   0.140   2.649  15.363 -0.3031  0.0732  1.0139
17979TIP3    H275429   0.023   2.621  15.272 -0.6452  1.1289  1.1221
17980TIP3   OH275430   4.648   6.903  10.024 -0.2196  0.1994 -0.1438
17980TIP3    H175431   4.645   6.982   9.970 -0.4700  2.4626  2.9379
17980TIP3    H275432   4.616   6.834   9.966  0.4297  2.2125 -3.1409
17981TIP3   OH275433   6.137   1.895   4.497  0.2008  0.4422  0.4321
17981TIP3    H175434   6.095   1.936   4.421  1.2133  0.1171 -0.3237
17981TIP3    H275435   6.069   1.839   4.534  0.1818 -0.7367 -1.2694
17982TIP3   OH275436   2.594   5.505  13.765  0.5195  0.7779 -0.1953
17982TIP3    H175437   2.578   5.597  13.787  1.7524  1.8296 -3.1704
17982TIP3    H275438   2.685   5.503  13.735 -0.4090 -0.6120 -3.3901
17983TIP3   OH275439   5.632   5.412   5.800  0.0949 -0.8790 -0.0770
17983TIP3    H175440   5.642   5.328   5.845 -2.3773 -1.0614  0.2791
17983TIP3    H275441   5.596   5.471   5.866 -0.2210 -0.1572 -0.8636
17984TIP3   OH275442   3.273   1.432  15.200  0.5504 -0.3002 -0.0532
17984TIP3    H175443   3.310   1.516  15.228  1.5049 -0.5342 -0.5800
17984TIP3    H275444   3.308   1.418  15.112  0.2992 -1.1936 -0.0218
17985TIP3   OH275445   5.900   3.783  13.554 -0.0636 -0.1332 -0.0266
17985TIP3    H175446   5.905   3.780  13.458  2.7471 -0.6508  0.0437
17985TIP3    H275447   5.898   3.691  13.581 -0.7934  0.0094  0.4082
17986TIP3   OH275448   0.735   5.350   1.194  0.4344 -0.2353 -0.3812
17986TIP3    H175449   0.685   5.353   1.112  0.4466  2.8260 -0.4069
17986TIP3    H275450   0.820   5.386   1.171  0.6009  0.2128  0.8652
17987TIP3   OH275451   0.686   2.296  12.078 -0.4432 -0.0375 -0.4173
17987TIP3    H175452   0.743   2.368  12.053  1.5480 -1.0794  0.9052
17987TIP3    H275453   0.740   2.218  12.068 -1.8076 -1.1283  0.3991
17988TIP3   OH275454   6.290   4.330   4.459 -0.4289  0.4807 -0.3956
17988TIP3    H175455   6.302   4.311   4.552  0.3867  2.8873  0.0616
17988TIP3    H275456   6.347   4.267   4.415  0.0001 -0.0015  0.7973
17989TIP3   OH275457   4.227   0.412   1.433  0.6212  0.4021 -0.1297
17989TIP3    H175458   4.316   0.388   1.457 -0.1014 -0.9694  1.4200
17989TIP3    H275459   4.197   0.468   1.505  0.5578  1.7488 -1.1688
17990TIP3   OH275460   4.675   5.580   4.268  0.0917 -0.1582 -0.2764
17990TIP3    H175461   4.620   5.540   4.335 -2.1927  1.1244 -1.2687
17990TIP3    H275462   4.640   5.546   4.185  3.0486 -1.9673 -0.9035
17991TIP3   OH275463   7.151   5.832   3.221 -0.6036  0.2460 -0.2229
17991TIP3    H175464   7.092   5.767   3.261  0.9568 -0.5958  0.8047
17991TIP3    H275465   7.177   5.792   3.138 -0.6715  0.1674 -0.2068
17992TIP3   OH275466   6.639   5.469  15.465  0.7186  0.5866  0.8832
17992TIP3    H175467   6.687   5.552  15.470  0.9909  0.3542  3.6858
17992TIP3    H275468   6.550   5.491  15.494  0.8698 -0.1117  1.9359
17993TIP3   OH275469   1.932   0.797  10.394  0.0538 -0.1227  0.1263
17993TIP3    H175470   1.922   0.818  10.301 -1.0876 -1.7163 -0.1626
17993TIP3    H275471   1.918   0.702  10.398 -0.4448 -0.0070  1.9842
17994TIP3   OH275472   1.495   2.052  11.872  0.2086 -0.5002 -0.1754
17994TIP3    H175473   1.561   2.120  11.854 -0.4466 -0.3038 -2.1321
17994TIP3    H275474   1.441   2.089  11.942 -0.1974  1.0895 -1.2716
17995TIP3   OH275475   3.559   5.493   4.141 -0.3650 -0.0614  0.0244
17995TIP3    H175476   3.465   5.509   4.141 -0.6461 -1.3725 -1.6965
17995TIP3    H275477   3.568   5.402   4.171  0.1148 -0.7132 -1.9134
17996TIP3   OH275478   3.483   6.049   1.430  0.2746  0.1953  0.1922
17996TIP3    H175479   3.470   6.126   1.485  0.2105 -1.0009  1.9333
17996TIP3    H275480   3.565   6.066   1.383  1.3349  0.4978  2.0779
17997TIP3   OH275481   5.889   2.302   5.786 -0.3243  0.0722  0.1403
17997TIP3    H175482   5.968   2.251   5.765 -0.2120  0.2524  0.1217
17997TIP3    H275483   5.899   2.383   5.736 -0.6605 -0.0271 -0.0869
17998TIP3   OH275484   1.098   5.470  12.115  0.0983  0.3300 -0.4572
17998TIP3    H175485   1.106   5.380  12.083  1.2361 -0.0898  0.9367
17998TIP3    H275486   1.185   5.507  12.101 -0.2218  1.0571 -0.5330
17999TIP3   OH275487   7.017   5.471   4.875 -0.2001  0.4750  0.0758
17999TIP3    H175488   7.054   5.559   4.886  0.2414  0.1291  1.5290
17999TIP3    H275489   7.085   5.412   4.908 -0.9552 -0.3472  0.1956
18000TIP3   OH275490   0.242   0.282  13.639  0.3328 -0.2694 -0.1918
18000TIP3    H175491   0.230   0.281  13.544  1.4101 -0.1129 -0.3393
18000TIP3    H275492   0.337   0.287  13.651  0.1586  0.8688  0.8923
18001TIP3   OH275493   5.083   0.426   4.281  0.2887  0.5947  0.9462
18001TIP3    H175494   5.171   0.435   4.317  0.4300  2.8763  0.1500
18001TIP3    H275495   5.068   0.507   4.233 -2.1693  0.1656  0.8735
18002TIP3   OH275496   2.919   3.935  11.767  0.2669  0.0651 -0.1848
18002TIP3    H175497   2.854   3.878  11.726  0.1042 -1.1473  1.6206
18002TIP3    H275498   2.869   3.984  11.833  0.6621  1.3546 -0.8158
18003TIP3   OH275499   5.504   5.742   5.296  0.0190  0.4311  0.0358
18003TIP3    H175500   5.580   5.792   5.324  0.5534 -0.3034 -0.0967
18003TIP3    H275501   5.443   5.808   5.264  1.2839  0.9114 -1.4788
18004TIP3   OH275502   1.310   2.609   4.716 -0.1188  0.7695  0.2567
18004TIP3    H175503   1.254   2.668   4.766  1.5368  2.8301 -0.1221
18004TIP3    H275504   1.395   2.655   4.712  0.9698 -1.1968 -0.9603
18005TIP3   OH275505   1.181   0.167   5.445 -0.0156  0.5935 -0.1353
18005TIP3    H175506   1.188   0.255   5.407  1.3030 -0.4903 -2.6606
18005TIP3    H275507   1.263   0.156   5.494 -0.2239  0.7817  0.2627
18006TIP3   OH275508   0.797   5.113   1.911  0.3128 -0.2746 -0.8883
18006TIP3    H175509   0.742   5.037   1.892 -3.2090  1.1085  2.3181
18006TIP3    H275510   0.847   5.087   1.988  0.6432 -0.0217 -1.0160
18007TIP3   OH275511   3.825   0.087  13.790  0.3218 -0.5481  0.1574
18007TIP3    H175512   3.779   0.031  13.852 -1.0777 -0.3493 -0.6462
18007TIP3    H275513   3.897   0.033  13.757 -1.6007 -2.3525 -1.3769
18008TIP3   OH275514   1.766   0.489   1.775 -0.3844  0.2119  0.3764
18008TIP3    H175515   1.769   0.583   1.795 -0.9882  0.4586 -0.6525
18008TIP3    H275516   1.846   0.474   1.724  0.3590 -0.1069  1.5871
18009TIP3   OH275517   3.737   4.383   2.547  0.7063 -0.3309 -0.0914
18009TIP3    H175518   3.779   4.346   2.469 -1.4725  0.2071 -1.6196
18009TIP3    H275519   3.723   4.475   2.524  2.3998  0.5480  2.0469
18010TIP3   OH275520   1.733   5.623   3.951 -0.4449  0.8921  0.5945
18010TIP3    H175521   1.724   5.532   3.976  2.1692  0.3276 -0.2755
18010TIP3    H275522   1.707   5.625   3.859  0.1649  0.8866  0.4216
18011TIP3   OH275523   2.594   4.620  14.203 -0.1631 -0.3766 -0.4936
18011TIP3    H175524   2.597   4.528  14.178 -0.2507 -0.3224 -0.7006
18011TIP3    H275525   2.683   4.640  14.232  0.4458  0.0623 -2.5260
18012TIP3   OH275526   6.480   6.166   5.896 -0.7884  0.1423 -0.4427
18012TIP3    H175527   6.561   6.216   5.886 -0.7309 -0.0287 -0.8528
18012TIP3    H275528   6.489   6.093   5.835 -0.5030 -0.8646  0.7628
18013TIP3   OH275529   3.856   1.003   2.388  0.2004  0.0605  0.1473
18013TIP3    H175530   3.878   0.923   2.435  0.9852 -0.9222 -1.7798
18013TIP3    H275531   3.941   1.041   2.364 -0.1619  0.3068 -0.8145
18014TIP3   OH275532   4.446   5.666   3.753  0.1668 -0.6660 -0.3107
18014TIP3    H175533   4.455   5.754   3.788  0.2093 -0.3147 -1.1882
18014TIP3    H275534   4.497   5.611   3.813 -2.1760 -0.5787  1.9334
18015TIP3   OH275535   2.362   2.487   3.707  0.3441  0.0134 -0.4197
18015TIP3    H175536   2.359   2.395   3.682  1.0792 -0.2988  0.5593
18015TIP3    H275537   2.427   2.491   3.777 -1.3819  0.8577  1.2541
18016TIP3   OH275538   3.339   0.975   2.955  0.0381  0.1217 -0.2701
18016TIP3    H175539   3.307   0.938   3.036  1.3009 -0.1609  0.1282
18016TIP3    H275540   3.285   1.053   2.940 -0.9816 -0.4931  0.1966
18017TIP3   OH275541   4.972   1.670   0.663  0.0027  0.5437  0.0776
18017TIP3    H175542   5.034   1.743   0.658  1.0881 -0.3881 -0.4874
18017TIP3    H275543   5.011   1.602   0.610 -0.5997 -0.7394  1.2229
18018TIP3   OH275544   6.141   5.794   4.206 -0.6922  0.1214  0.6061
18018TIP3    H175545   6.170   5.874   4.251 -0.2576 -0.7728  1.9812
18018TIP3    H275546   6.221   5.745   4.191 -0.7959  0.4950 -1.4378
18019TIP3   OH275547   3.061   4.575   0.279 -0.1429 -0.0433  0.2443
18019TIP3    H175548   3.041   4.564   0.186 -0.0017 -1.0249  0.3249
18019TIP3    H275549   3.046   4.489   0.318 -1.0038  0.5447  1.2873
18020TIP3   OH275550   0.811   5.473  15.520  0.6116 -0.0209  0.2828
18020TIP3    H175551   0.847   5.440  15.438 -0.2820 -0.4240  0.0392
18020TIP3    H275552   0.728   5.427  15.531 -0.3841  1.6616  0.2622
18021TIP3   OH275553   7.041   6.742   4.970  0.3651 -0.5110 -0.2781
18021TIP3    H175554   7.024   6.824   4.925  1.3710  0.5066  1.0785
18021TIP3    H275555   7.020   6.761   5.062  1.9801 -1.2932  0.2924
18022TIP3   OH275556   2.155   5.440  13.953 -0.0285  0.3112 -0.6816
18022TIP3    H175557   2.100   5.433  13.875 -2.5221  0.2581  0.9656
18022TIP3    H275558   2.150   5.354  13.994  0.6960  0.5402 -0.0779
18023TIP3   OH275559   3.588   6.085  12.683 -0.1310  0.4221  0.4246
18023TIP3    H175560   3.628   6.012  12.636  0.5880 -0.1631  1.8744
18023TIP3    H275561   3.624   6.164  12.642 -0.1471 -0.0411 -0.5094
18024TIP3   OH275562   1.933   5.615   2.496 -0.1460  0.0136 -0.3147
18024TIP3    H175563   1.852   5.570   2.518  0.4165 -0.4497  0.8914
18024TIP3    H275564   1.998   5.545   2.486  0.1912  0.4020 -0.9152
18025TIP3   OH275565   3.200   6.800   4.211  0.2315 -0.1889 -0.0005
18025TIP3    H175566   3.124   6.859   4.214  0.1128 -0.3756  0.9657
18025TIP3    H275567   3.163   6.712   4.220  0.4125 -0.4245 -1.3925
18026TIP3   OH275568   0.832   1.004   9.996 -0.3037  0.0696  0.3784
18026TIP3    H175569   0.860   0.990   9.906  0.0770 -3.9154  0.9489
18026TIP3    H275570   0.912   0.997  10.048 -0.8248  0.0232  1.1969
18027TIP3   OH275571   0.352   0.677  15.502 -0.0758  0.0153  0.0909
18027TIP3    H175572   0.364   0.662  15.596 -0.1236 -0.1669  0.0688
18027TIP3    H275573   0.261   0.707  15.494 -0.6553 -1.6640 -0.0778
18028TIP3   OH275574   1.886   5.985   1.909  0.3021  0.1835  0.9948
18028TIP3    H175575   1.837   6.002   1.828  0.8369  1.2382  0.8733
18028TIP3    H275576   1.933   6.066   1.926  1.4383 -0.5603  1.5177
18029TIP3   OH275577   4.522   6.732   2.556 -0.3091 -0.0489 -0.3143
18029TIP3    H175578   4.606   6.759   2.593 -0.4321 -0.8871  0.6021
18029TIP3    H275579   4.493   6.808   2.505 -0.0876  1.1122  1.2246
18030TIP3   OH275580   5.662   3.393  12.141 -0.1684  0.2256  0.6790
18030TIP3    H175581   5.699   3.460  12.199  0.2934 -0.3944  1.1258
18030TIP3    H275582   5.682   3.423  12.053 -1.3554  1.4562  0.8026
18031TIP3   OH275583   4.522   0.858   5.218  0.1742  0.1100  0.0698
18031TIP3    H175584   4.566   0.899   5.293 -0.4471  0.0623  0.4698
18031TIP3    H275585   4.469   0.789   5.257  1.1195 -1.0117 -0.5853
18032TIP3   OH275586   1.928   4.566   4.955 -0.1761 -0.3776  0.5144
18032TIP3    H175587   1.994   4.510   4.996  1.1039  0.9558  0.3985
18032TIP3    H275588   1.959   4.577   4.865  0.8905  2.2293  1.0884
18033TIP3   OH275589   2.363   4.726  14.349 -0.4071 -0.1625  0.5449
18033TIP3    H175590   2.441   4.709  14.297  0.0043 -0.3740  1.2073
18033TIP3    H275591   2.333   4.639  14.376 -1.6159 -0.1701 -0.7472
18034TIP3   OH275592   4.900   6.057  11.363 -0.5681  0.4175 -0.9101
18034TIP3    H175593   4.863   5.991  11.305  1.1823 -2.7103  1.2303
18034TIP3    H275594   4.978   6.015  11.400  0.9354  3.9110  0.3003
18035TIP3   OH275595   6.770   4.421   4.506  0.0572 -0.1996  0.0841
18035TIP3    H175596   6.804   4.388   4.589 -0.1603  2.6990  1.4478
18035TIP3    H275597   6.680   4.388   4.501  0.5697 -1.6550  0.1976
18036TIP3   OH275598   5.613   4.625   5.210 -0.2672  0.6361  0.1093
18036TIP3    H175599   5.693   4.671   5.235  0.4312 -0.3457 -0.2853
18036TIP3    H275600   5.643   4.546   5.164 -1.4697  0.6393 -0.7262
18037TIP3   OH275601   6.304   2.023  12.638  0.1997  0.3765 -0.5611
18037TIP3    H175602   6.375   2.007  12.577  0.2171 -0.2504 -0.3825
18037TIP3    H275603   6.226   1.988  12.595  0.2918 -0.5111 -0.0267
18038TIP3   OH275604   5.706   2.431   1.011 -0.1217  0.3167  0.2730
18038TIP3    H175605   5.613   2.448   1.027 -0.0168 -0.5217  2.0490
18038TIP3    H275606   5.707   2.346   0.967 -0.2945  1.6374 -2.4681
18039TIP3   OH275607   1.573   2.163   2.746 -0.2625  0.9370 -0.6971
18039TIP3    H175608   1.572   2.258   2.755  0.0263  0.7441  2.0544
18039TIP3    H275609   1.664   2.142   2.724  0.1885  1.1932  0.8305
18040TIP3   OH275610   2.831   2.794  12.678  0.7142  0.2274 -0.1038
18040TIP3    H175611   2.886   2.776  12.601  1.7830  0.6818  0.5358
18040TIP3    H275612   2.813   2.888  12.673  0.8614  0.2751  0.2553
18041TIP3   OH275613   5.816   3.150  13.145 -0.4851 -0.0526  0.4454
18041TIP3    H175614   5.836   3.161  13.237 -0.0739  0.1412  0.3355
18041TIP3    H275615   5.730   3.108  13.143 -0.0461 -0.9863  0.9269
18042TIP3   OH275616   2.413   1.157  15.478 -0.1221 -0.1420 -0.7079
18042TIP3    H175617   2.467   1.211  15.420 -0.0263 -0.2487 -0.7197
18042TIP3    H275618   2.388   1.216  15.549 -1.6728  0.4734 -1.7074
18043TIP3   OH275619   2.591   4.841   5.771 -0.7500  0.2729  0.2568
18043TIP3    H175620   2.495   4.851   5.770 -1.0695 -2.2887 -0.0142
18043TIP3    H275621   2.606   4.756   5.812  1.4483  0.7118  0.4649
18044TIP3   OH275622   7.047   0.380  13.646 -0.2565 -0.0278  0.3573
18044TIP3    H175623   7.048   0.475  13.660 -1.1679 -0.2505  2.2226
18044TIP3    H275624   7.097   0.345  13.720 -0.3331 -1.0187 -0.0545
18045TIP3   OH275625   4.365   0.158   3.163  0.1380  1.0899 -0.6709
18045TIP3    H175626   4.308   0.215   3.214 -0.0112  0.9141 -0.6418
18045TIP3    H275627   4.343   0.069   3.192  0.1663  0.9994 -0.9240
18046TIP3   OH275628   0.739   3.956   2.240  0.3556 -0.8612  0.1479
18046TIP3    H175629   0.786   3.879   2.206 -0.1795 -0.8105 -0.7443
18046TIP3    H275630   0.772   4.029   2.188 -0.4809 -0.7797 -0.2811
18047TIP3   OH275631   1.304   2.521   1.720  0.5713  0.3746  0.2501
18047TIP3    H175632   1.282   2.613   1.706 -0.2531  0.1919  0.3146
18047TIP3    H275633   1.283   2.505   1.812  2.2002  0.5192  0.6920
18048TIP3   OH275634   6.577   2.610  14.074  0.4293  0.3022 -0.4865
18048TIP3    H175635   6.671   2.599  14.062  0.4242  1.3791 -1.7618
18048TIP3    H275636   6.554   2.549  14.144  2.0638  0.0048 -0.1721
18049TIP3   OH275637   3.750   5.482  14.845  0.2486 -0.6031  0.0117
18049TIP3    H175638   3.783   5.409  14.793  1.0057  0.1052 -0.5287
18049TIP3    H275639   3.826   5.511  14.895  0.4123  0.9181 -1.0823
18050TIP3   OH275640   2.040   4.338   3.694  0.1278  0.2979  0.3730
18050TIP3    H175641   1.958   4.290   3.703 -0.2101  0.7196 -0.3215
18050TIP3    H275642   2.059   4.371   3.782 -0.4500  0.1965  0.5401
18051TIP3   OH275643   1.181   0.516  13.336 -0.2155 -0.0379  0.1543
18051TIP3    H175644   1.259   0.478  13.294 -1.8218 -1.3077 -1.8995
18051TIP3    H275645   1.189   0.610  13.319  1.7685  0.1639  1.7055
18052TIP3   OH275646   4.875   5.841   5.171  0.0248  0.1106 -0.2784
18052TIP3    H175647   4.914   5.888   5.244  1.4476  0.0574 -0.9757
18052TIP3    H275648   4.785   5.824   5.199  0.4494  0.3466  1.3298
18053TIP3   OH275649   4.839   4.053  15.535  0.3157  0.5840  0.2209
18053TIP3    H175650   4.849   3.987  15.466 -0.8795 -0.2352  0.7975
18053TIP3    H275651   4.752   4.090  15.519 -1.0205 -1.2180  2.5573
18054TIP3   OH275652   1.133   0.222   5.084 -0.1743  0.1367  0.6686
18054TIP3    H175653   1.120   0.248   4.993 -0.3537 -1.2546  0.2781
18054TIP3    H275654   1.220   0.256   5.107  0.6617 -1.0364 -0.6138
18055TIP3   OH275655   5.065   0.821   4.418 -0.1339  0.4800  0.2744
18055TIP3    H175656   5.142   0.788   4.372  0.2238 -0.0046  1.1951
18055TIP3    H275657   5.072   0.917   4.412 -0.0523  0.4267 -0.5835
18056TIP3   OH275658   5.405   0.254   2.998 -0.4249 -0.1544 -0.3279
18056TIP3    H175659   5.378   0.230   3.086  0.0517  0.3172 -0.0466
18056TIP3    H275660   5.470   0.188   2.974  0.1368  0.2506  0.0479
18057TIP3   OH275661   3.362   6.601  15.278  0.2627  0.2756  0.7718
18057TIP3    H175662   3.292   6.607  15.213  0.2050  0.6349  0.8652
18057TIP3    H275663   3.424   6.538  15.241 -0.7422 -1.0479  1.2861
18058TIP3   OH275664   2.936   6.225   2.747 -0.3680 -0.4154 -0.1795
18058TIP3    H175665   2.990   6.199   2.822  0.1592 -1.1747 -0.8076
18058TIP3    H275666   2.964   6.167   2.676 -1.0789  0.0834 -0.8827
18059TIP3   OH275667   4.340   3.986   4.797 -0.3055  0.1768 -0.4201
18059TIP3    H175668   4.255   3.944   4.787  0.6033 -1.5224 -1.3198
18059TIP3    H275669   4.320   4.080   4.797 -2.2170 -0.1910 -0.0812
18060TIP3   OH275670   1.798   0.611   5.849 -0.2781 -0.3576 -0.6956
18060TIP3    H175671   1.757   0.673   5.909 -0.8331  0.3266 -1.7531
18060TIP3    H275672   1.741   0.534   5.851 -1.3111  0.3494 -1.6856
18061TIP3   OH275673   7.031   4.358  15.345 -0.7020  0.2927 -0.3145
18061TIP3    H175674   6.995   4.426  15.403 -2.8360  0.1175 -1.3237
18061TIP3    H275675   7.092   4.405  15.288 -2.4261  1.5226 -1.2542
18062TIP3   OH275676   2.452   7.137  14.459  0.6187  0.2161 -0.0991
18062TIP3    H175677   2.515   7.158  14.389 -0.7064  0.7930 -1.1560
18062TIP3    H275678   2.424   7.222  14.492  0.2535 -0.0362  0.2421
18063TIP3   OH275679   0.129   3.722   0.786  0.6402  0.0510 -0.0953
18063TIP3    H175680   0.186   3.794   0.759  0.8570 -0.5784 -1.4068
18063TIP3    H275681   0.122   3.731   0.881  2.9860  0.1031  0.1129
18064TIP3   OH275682   6.254   0.896  11.610 -0.4658  0.8138  0.5658
18064TIP3    H175683   6.266   0.896  11.705  0.8624 -3.7791  0.6420
18064TIP3    H275684   6.171   0.851  11.596  0.7174 -1.2826 -0.3102
18065TIP3   OH275685   0.180   0.010   0.718 -0.5991  0.3331 -0.3542
18065TIP3    H175686   0.274   0.025   0.728 -0.4639  0.5856 -1.7326
18065TIP3    H275687   0.147   0.088   0.673 -0.6728 -1.3691 -3.6310
18066TIP3   OH275688   0.457   5.130   2.560  0.4948  0.4816 -0.3533
18066TIP3    H175689   0.440   5.152   2.652  0.1255  0.6995 -0.4690
18066TIP3    H275690   0.546   5.162   2.544  0.2967  1.0887 -0.2671
18067TIP3   OH275691   2.948   2.744  15.064  0.5234 -0.6561  0.1378
18067TIP3    H175692   3.007   2.810  15.028  0.1142 -0.1471  0.3847
18067TIP3    H275693   2.937   2.769  15.156  1.6150 -1.9732  0.6645
18068TIP3   OH275694   4.275   1.635  13.871  0.1994 -0.1336  0.5624
18068TIP3    H175695   4.239   1.592  13.949 -0.9164  0.5981  0.4718
18068TIP3    H275696   4.286   1.564  13.808  0.4031 -0.6109  1.1152
18069TIP3   OH275697   3.731   7.049  14.666  0.4460 -0.3209 -0.0960
18069TIP3    H175698   3.749   7.086  14.580  1.9170  0.6840  0.5866
18069TIP3    H275699   3.780   6.967  14.668  0.3779 -0.3640 -0.2445
18070TIP3   OH275700   4.083   7.112   3.527 -0.1036  0.4716  0.3396
18070TIP3    H175701   4.023   7.038   3.532 -1.4636  1.4916 -0.2358
18070TIP3    H275702   4.039   7.182   3.575  0.7802  1.1501  0.1898
18071TIP3   OH275703   3.046   6.086  11.195 -0.2037 -0.0468  0.0287
18071TIP3    H175704   3.127   6.036  11.191  0.6737  1.3437 -0.5933
18071TIP3    H275705   2.984   6.029  11.240  0.4514 -2.0604 -1.4738
18072TIP3   OH275706   3.704   0.268  11.367 -0.2421 -0.8055  0.0721
18072TIP3    H175707   3.677   0.263  11.275 -1.3233  0.0902  0.3222
18072TIP3    H275708   3.791   0.228  11.369 -0.0824 -0.5626 -1.3910
18073TIP3   OH275709   6.421   6.742   3.515 -0.5285  0.0056 -1.0814
18073TIP3    H175710   6.444   6.692   3.436 -0.0988 -0.2081 -0.8228
18073TIP3    H275711   6.455   6.829   3.498  2.0818 -0.7046 -0.0103
18074TIP3   OH275712   4.937   1.663   2.655 -0.1280  0.1459  0.7786
18074TIP3    H175713   4.983   1.742   2.628  0.4314 -1.1240 -2.4760
18074TIP3    H275714   5.006   1.605   2.687 -0.1934  0.1016  0.8393
18075TIP3   OH275715   5.298   0.318   1.964  0.0471  0.4904  0.3967
18075TIP3    H175716   5.235   0.388   1.984  1.3825  1.8375  0.0698
18075TIP3    H275717   5.262   0.275   1.886 -0.2363  1.5580 -0.0812
18076TIP3   OH275718   0.274   6.479   1.377  0.3277  0.7460  0.2263
18076TIP3    H175719   0.234   6.564   1.359 -1.6961 -0.4445 -1.3183
18076TIP3    H275720   0.202   6.417   1.373  1.6373 -1.0192  1.9668
18077TIP3   OH275721   4.832   6.807   4.835  0.1656 -0.0863 -0.3788
18077TIP3    H175722   4.754   6.859   4.817  0.2985  0.3032  0.1652
18077TIP3    H275723   4.800   6.731   4.884  0.2535  0.5890  0.7478
18078TIP3   OH275724   6.667   0.297   5.287  0.0817  0.1374 -0.2744
18078TIP3    H175725   6.756   0.269   5.264  0.1926  0.4933 -0.2905
18078TIP3    H275726   6.650   0.255   5.372  0.4213  0.3886 -0.0792
18079TIP3   OH275727   4.290   3.398   1.405 -0.5999 -0.1096  0.9535
18079TIP3    H175728   4.334   3.466   1.456 -0.7161  0.8387 -0.1705
18079TIP3    H275729   4.311   3.316   1.450 -0.6938  0.6955  2.4930
18080TIP3   OH275730   3.000   6.858  15.401  0.1810 -0.0029 -0.6958
18080TIP3    H175731   3.071   6.810  15.443  0.3475  0.2406 -0.6987
18080TIP3    H275732   3.031   6.873  15.311 -1.5785 -3.6287 -2.1079
18081TIP3   OH275733   5.844   3.355  15.420 -0.2201 -0.4642  0.0074
18081TIP3    H175734   5.855   3.447  15.397  3.0152 -1.0150 -1.1524
18081TIP3    H275735   5.756   3.333  15.390 -0.7554  1.9992 -0.4544
18082TIP3   OH275736   0.196   5.033  11.042 -0.5160 -0.0844 -0.5286
18082TIP3    H175737   0.245   5.034  11.124 -0.8345  1.9948 -0.2929
18082TIP3    H275738   0.143   4.953  11.046 -0.6970  0.0827  1.4069
18083TIP3   OH275739   0.960   4.942   4.986  0.2143 -0.4499 -0.4312
18083TIP3    H175740   1.048   4.931   5.023  0.2223  0.8548 -0.0286
18083TIP3    H275741   0.964   4.896   4.902  1.3067 -0.3414 -0.4510
18084TIP3   OH275742   7.149   0.940   5.016  0.6332  0.4157  0.1250
18084TIP3    H175743   7.220   0.882   5.044 -0.0510 -0.5753 -0.1030
18084TIP3    H275744   7.125   0.908   4.929 -1.2980 -0.4908  0.9193
18085TIP3   OH275745   5.923   1.806  10.216  0.5719  0.3933 -0.1750
18085TIP3    H175746   5.957   1.773  10.299  2.4935  1.6506 -0.4015
18085TIP3    H275747   5.886   1.892  10.237 -0.1343  0.1561 -0.4114
18086TIP3   OH275748   1.631   2.172   0.421  0.2065 -0.0944  0.1414
18086TIP3    H175749   1.540   2.147   0.401 -0.0043  0.1421  0.7675
18086TIP3    H275750   1.636   2.169   0.517  0.3512  1.5897  0.2271
18087TIP3   OH275751   1.282   1.943   5.736  0.7573  0.6027 -0.4404
18087TIP3    H175752   1.220   2.006   5.699  0.6492  0.2695 -0.8302
18087TIP3    H275753   1.226   1.874   5.774  0.8585  1.0956  0.6268
18088TIP3   OH275754   6.289   3.728  12.851  0.3446  0.3288 -0.7053
18088TIP3    H175755   6.255   3.797  12.907  1.4641  0.7392 -0.5028
18088TIP3    H275756   6.344   3.774  12.787  2.2132 -0.4481  0.2541
18089TIP3   OH275757   2.792   3.986   4.290  0.3597  0.1212  0.3122
18089TIP3    H175758   2.713   3.947   4.327 -0.4290  2.5970  1.5050
18089TIP3    H275759   2.862   3.925   4.312 -1.1808 -2.3100 -1.0398
18090TIP3   OH275760   3.909   6.237   3.219 -0.0764 -0.5871 -0.0364
18090TIP3    H175761   3.969   6.169   3.189  0.0992 -0.1353 -0.7418
18090TIP3    H275762   3.858   6.195   3.288 -1.3040 -2.0605 -1.7507
18091TIP3   OH275763   1.722   6.261   1.704 -0.0008  0.1361  0.2990
18091TIP3    H175764   1.702   6.167   1.699 -1.3713  0.4284 -0.3978
18091TIP3    H275765   1.636   6.304   1.700  0.6322  1.4372  0.0345
18092TIP3   OH275766   3.430   0.838   1.532 -0.2322  0.1279  0.3667
18092TIP3    H175767   3.424   0.771   1.464 -1.6603  0.4003  0.1981
18092TIP3    H275768   3.491   0.903   1.496 -0.1661 -0.2393 -0.2051
18093TIP3   OH275769   4.294   7.086   3.304 -0.2772 -0.2682  0.0868
18093TIP3    H175770   4.239   7.054   3.232 -0.0961  1.9665 -1.1277
18093TIP3    H275771   4.234   7.089   3.379 -1.2442  0.0921 -0.6785
18094TIP3   OH275772   1.124   3.156   4.589 -0.3754 -0.0611  0.3187
18094TIP3    H175773   1.139   3.184   4.680 -0.5401  1.0064  0.0322
18094TIP3    H275774   1.059   3.086   4.596 -0.8076  0.3892  0.9932
18095TIP3   OH275775   2.428   4.900   2.366 -0.5191  0.4878 -0.3883
18095TIP3    H175776   2.502   4.921   2.423 -1.2648  0.8673  0.4622
18095TIP3    H275777   2.391   4.984   2.342 -0.5796  0.3063 -0.9638
18096TIP3   OH275778   1.318   4.285  14.036  0.3115  0.5780  0.3953
18096TIP3    H175779   1.268   4.310  13.958  0.7897  0.4695  0.0499
18096TIP3    H275780   1.327   4.367  14.085 -1.9114  0.2665  1.4856
18097TIP3   OH275781   1.351   5.053   5.803  0.2243 -0.3930 -0.2281
18097TIP3    H175782   1.360   5.106   5.882 -1.8804 -0.5760  0.1909
18097TIP3    H275783   1.412   4.980   5.815  0.0905 -0.2991  1.1423
18098TIP3   OH275784   0.024   0.290   1.695 -0.2932  0.6138  0.0729
18098TIP3    H175785   0.026   0.213   1.751  0.6293  1.2064  0.8955
18098TIP3    H275786   0.026   0.364   1.755  0.8295  1.2692 -0.7227
18099TIP3   OH275787   5.159   0.558   5.297 -0.1641  1.1242 -0.6937
18099TIP3    H175788   5.252   0.581   5.297 -0.3999  2.1686  0.2444
18099TIP3    H275789   5.134   0.561   5.390 -0.5889 -1.5308 -0.6503
18100TIP3   OH275790   1.515   6.222   6.043  0.6044  0.3079 -0.2724
18100TIP3    H175791   1.498   6.184   6.129 -1.0607  0.9965 -0.2637
18100TIP3    H275792   1.596   6.272   6.055  0.4740  0.2790  0.8537
18101TIP3   OH275793   5.463   5.696   5.620  0.0604 -0.1169 -0.0742
18101TIP3    H175794   5.550   5.662   5.603  0.3806  0.8744 -0.4761
18101TIP3    H275795   5.467   5.731   5.709  0.2080  0.3550 -0.2673
18102TIP3   OH275796   3.912   7.151   0.595  0.3179  0.0430 -0.6642
18102TIP3    H175797   3.868   7.159   0.510  0.5580 -1.3838 -0.9590
18102TIP3    H275798   3.863   7.208   0.654 -0.4724  0.2762 -1.5356
18103TIP3   OH275799   2.949   1.922   1.382 -0.2424  0.0683  0.3511
18103TIP3    H175800   2.899   1.919   1.464  0.2321  1.0405  0.6894
18103TIP3    H275801   3.017   1.987   1.397  0.9531 -1.0008 -0.2235
18104TIP3   OH275802   5.164   2.930   2.027  0.0624  0.0615 -0.5388
18104TIP3    H175803   5.195   3.007   1.979  1.7733  0.7229  1.4481
18104TIP3    H275804   5.229   2.862   2.008  0.8862  0.3979  0.9198
18105TIP3   OH275805   7.143   3.051  14.087 -0.4110  0.5182 -0.3661
18105TIP3    H175806   7.102   2.999  14.156  0.4613 -0.5611 -0.6202
18105TIP3    H275807   7.237   3.041  14.102 -0.2153  0.7861 -1.3314
18106TIP3   OH275808   0.299   5.864   3.688 -0.1591 -0.9489 -0.2154
18106TIP3    H175809   0.293   5.937   3.749  1.8786  0.1492 -1.2273
18106TIP3    H275810   0.218   5.868   3.637 -0.4502  0.0812  0.3063
18107TIP3   OH275811   5.890   4.382   5.857 -0.7117  0.3433 -0.2745
18107TIP3    H175812   5.885   4.289   5.834  2.6212 -0.0423  0.1580
18107TIP3    H275813   5.868   4.385   5.950 -1.0924  0.0371 -0.3518
18108TIP3   OH275814   2.019   1.283   3.135 -0.2503  0.3356 -0.5177
18108TIP3    H175815   2.075   1.222   3.183 -1.2805  1.3508  2.1749
18108TIP3    H275816   1.945   1.229   3.105 -1.1745  0.1331  1.8629
18109TIP3   OH275817   7.005   3.667   3.698  0.4703 -0.4644 -0.7109
18109TIP3    H175818   6.998   3.619   3.615 -1.7568  0.2514 -1.0316
18109TIP3    H275819   6.986   3.758   3.674  0.2891 -0.1631  0.4961
18110TIP3   OH275820   1.322   5.255   3.133  0.0727 -0.3463 -0.3269
18110TIP3    H175821   1.409   5.220   3.151 -0.6505 -3.7747 -2.4893
18110TIP3    H275822   1.264   5.207   3.192 -0.6849 -0.5080 -1.1861
18111TIP3   OH275823   7.038   1.205  14.408  0.0747  0.1631  0.2337
18111TIP3    H175824   7.032   1.212  14.313 -1.0978  0.3919  0.3094
18111TIP3    H275825   7.130   1.221  14.428  0.6166 -1.2912 -0.9647
18112TIP3   OH275826   3.365   3.469  14.332  0.4489  0.3169 -0.0269
18112TIP3    H175827   3.438   3.418  14.298  1.2424  0.2262  1.7020
18112TIP3    H275828   3.347   3.430  14.417 -2.5148 -0.5161 -0.9213
18113TIP3   OH275829   2.028   0.312   5.302  0.9910  0.0052  0.0738
18113TIP3    H175830   2.001   0.307   5.394  1.4354  2.3309  0.3827
18113TIP3    H275831   2.104   0.255   5.296  0.6802 -0.5343  1.0253
18114TIP3   OH275832   7.152   4.087   5.420 -0.3063  0.5017  0.2102
18114TIP3    H175833   7.141   4.087   5.515  1.8241  1.9058  0.5155
18114TIP3    H275834   7.243   4.112   5.406 -0.0466 -1.4244 -2.1869
18115TIP3   OH275835   2.648   2.329   4.465  0.1486 -0.1739  0.4238
18115TIP3    H175836   2.732   2.362   4.434  0.4343 -1.4093 -0.1962
18115TIP3    H275837   2.652   2.336   4.560  1.1171 -0.5886  0.4191
18116TIP3   OH275838   6.356   2.197   2.311 -0.5642 -0.7973 -0.5179
18116TIP3    H175839   6.261   2.184   2.315 -0.4403 -2.5309 -1.7887
18116TIP3    H275840   6.387   2.179   2.399 -1.3325 -1.1043 -0.3013
18117TIP3   OH275841   6.929   2.194   4.868 -0.4562  0.5468 -0.0247
18117TIP3    H175842   6.900   2.121   4.814 -1.0591  0.7749 -0.0199
18117TIP3    H275843   6.990   2.155   4.931  1.1000  0.4588 -1.5345
18118TIP3   OH275844   0.323   6.088   2.843 -0.5562  0.3088 -0.0647
18118TIP3    H175845   0.292   6.176   2.867 -0.6209  0.3705 -0.3637
18118TIP3    H275846   0.346   6.096   2.750  2.2147  0.8069  0.5578
18119TIP3   OH275847   0.978   4.415   3.361  0.3819  0.5401  0.0728
18119TIP3    H175848   0.925   4.360   3.303  0.8500  0.5861 -0.4050
18119TIP3    H275849   1.065   4.373   3.360  0.2659  0.2529  1.1306
18120TIP3   OH275850   2.494   5.260  13.044 -0.3157 -0.0079 -0.1204
18120TIP3    H175851   2.497   5.271  12.948  0.9500 -0.0887 -0.1049
18120TIP3    H275852   2.447   5.338  13.075  0.5482  0.7834 -0.7142
18121TIP3   OH275853   1.847   2.191   2.698  0.1339 -0.1437 -0.2422
18121TIP3    H175854   1.865   2.101   2.727  1.5077  0.1949  0.0383
18121TIP3    H275855   1.934   2.227   2.677 -0.2199  1.5684  1.0077
18122TIP3   OH275856   4.791   3.770   2.704  0.1318  0.1982  0.5344
18122TIP3    H175857   4.752   3.805   2.624 -0.5669 -1.2278  0.2160
18122TIP3    H275858   4.885   3.775   2.689  0.0540  1.6886  0.4236
18123TIP3   OH275859   6.103   0.865  14.148 -0.3199  0.8192  0.3913
18123TIP3    H175860   6.154   0.930  14.100 -0.6281  1.5248  1.0028
18123TIP3    H275861   6.043   0.916  14.202  0.0950  0.0642  1.6159
18124TIP3   OH275862   3.219   0.885  13.896 -0.6602 -0.2198 -0.1938
18124TIP3    H175863   3.146   0.898  13.955 -0.2524  0.0493  0.2578
18124TIP3    H275864   3.243   0.793  13.906  0.1286  0.0894  0.9109
18125TIP3   OH275865   0.513   3.484   1.569 -0.2532  1.1147  0.3118
18125TIP3    H175866   0.593   3.511   1.523  0.7194 -2.7680 -0.6942
18125TIP3    H275867   0.543   3.460   1.657 -0.0215 -1.2444 -0.3550
18126TIP3   OH275868   7.012   5.592   2.902 -0.4174 -0.3322 -0.3059
18126TIP3    H175869   7.037   5.543   2.980 -1.9712 -0.9166 -0.1438
18126TIP3    H275870   6.920   5.571   2.888 -0.2309 -0.1156 -2.2136
18127TIP3   OH275871   5.168   4.617   1.965 -0.0717 -0.2677  0.0091
18127TIP3    H175872   5.160   4.676   1.890 -1.3264  1.1590  1.1822
18127TIP3    H275873   5.095   4.556   1.955  0.4224 -0.7898 -0.4910
18128TIP3   OH275874   5.594   6.045   0.051 -0.0978 -0.0905  0.2912
18128TIP3    H175875   5.562   6.120  -0.000  5.2121  2.3495 -0.1236
18128TIP3    H275876   5.623   5.982  -0.015 -0.3358 -0.4648  0.5411
18129TIP3   OH275877   5.271   4.180   2.234 -0.0620  0.3808  0.4985
18129TIP3    H175878   5.218   4.208   2.160  0.2167 -1.5677 -0.5084
18129TIP3    H275879   5.355   4.155   2.196  1.3030  2.4943  1.9447
18130TIP3   OH275880   2.686   5.622  12.657 -0.0224 -0.3659 -0.1913
18130TIP3    H175881   2.769   5.668  12.674 -1.2222  1.5393  0.9109
18130TIP3    H275882   2.641   5.622  12.741 -1.4521 -0.7052 -0.9251
18131TIP3   OH275883   1.893   4.366   5.836 -0.3559 -0.1286  0.6823
18131TIP3    H175884   1.862   4.277   5.850 -1.5617  0.2080  0.3323
18131TIP3    H275885   1.813   4.418   5.829  0.3216  0.9911  0.9277
18132TIP3   OH275886   5.919   3.116   3.953  0.5111 -0.2334  0.0881
18132TIP3    H175887   5.907   3.025   3.927 -1.5039  0.1455 -0.5124
18132TIP3    H275888   5.951   3.159   3.874  1.7817 -0.4532  0.4640
18133TIP3   OH275889   1.253   1.566  15.541  0.7755  0.2432  0.4690
18133TIP3    H175890   1.239   1.494  15.480  0.1269  1.3429 -0.7385
18133TIP3    H275891   1.205   1.540  15.620  0.8936 -0.8103  0.2089
18134TIP3   OH275892   0.759   6.822   2.651  0.2569 -0.0712  0.2571
18134TIP3    H175893   0.694   6.856   2.712 -1.0566 -1.9975  0.0388
18134TIP3    H275894   0.842   6.855   2.683 -0.7904  2.8079  0.3362
18135TIP3   OH275895   5.808   1.317  12.491 -0.0244 -0.1125  0.5367
18135TIP3    H175896   5.879   1.350  12.437 -1.7741 -0.7852 -2.3882
18135TIP3    H275897   5.773   1.395  12.535  0.2067  0.8549 -0.9208
18136TIP3   OH275898   4.152   6.168   3.733  0.0512 -0.1191 -0.0877
18136TIP3    H175899   4.155   6.229   3.807 -1.6932  0.3948 -0.3860
18136TIP3    H275900   4.092   6.099   3.762 -0.1970 -0.2078 -0.7899
18137TIP3   OH275901   4.972   3.992   3.894 -0.0719 -0.1645  0.1770
18137TIP3    H175902   5.025   4.038   3.829 -0.1694 -2.2483 -1.4921
18137TIP3    H275903   4.910   3.941   3.842 -0.5853 -1.4214  1.9341
18138TIP3   OH275904   4.743   4.916   3.649  0.3425  0.1086 -0.4141
18138TIP3    H175905   4.709   4.976   3.583  3.1078  0.6328 -1.4934
18138TIP3    H275906   4.773   4.972   3.721  2.1841  0.0480 -1.0725
18139TIP3   OH275907   5.904   3.803   0.596 -0.4225  0.2721 -0.6024
18139TIP3    H175908   5.862   3.776   0.514  1.4785 -1.7844 -0.9964
18139TIP3    H275909   5.901   3.725   0.651 -0.4290  1.2168  0.7799
18140TIP3   OH275910   4.571   6.357   0.229 -0.3046 -0.2406  0.1797
18140TIP3    H175911   4.591   6.346   0.136  0.2715  0.9012  0.1444
18140TIP3    H275912   4.475   6.360   0.233 -0.3289 -0.2565 -0.3863
18141TIP3   OH275913   2.677   2.570   1.736  0.4042  0.0763 -0.3241
18141TIP3    H175914   2.767   2.595   1.713  0.4186 -0.8020 -1.3112
18141TIP3    H275915   2.657   2.497   1.677 -1.3830  1.0243 -0.9640
18142TIP3   OH275916   3.969   2.677   3.305  0.4581 -0.1389  0.3175
18142TIP3    H175917   4.029   2.705   3.236  0.5445  0.0646  0.4759
18142TIP3    H275918   3.882   2.697   3.271  0.3333 -2.2270 -0.7656
18143TIP3   OH275919   0.717   5.996   4.326  0.2887 -0.4239  0.1784
18143TIP3    H175920   0.703   5.907   4.358  1.5204 -1.1244 -1.1275
18143TIP3    H275921   0.667   6.001   4.245  0.9734 -0.2625 -0.2458
18144TIP3   OH275922   1.098   2.702   3.587  0.5730 -0.1844  0.1077
18144TIP3    H175923   1.160   2.772   3.567  0.1824 -0.2874 -1.5539
18144TIP3    H275924   1.095   2.648   3.508 -0.8141 -0.8064  0.5457
18145TIP3   OH275925   0.007   4.908  12.116  0.4596 -0.0534 -0.0339
18145TIP3    H175926  -0.074   4.957  12.105  0.1841 -0.1699  1.3263
18145TIP3    H275927   0.004   4.841  12.048 -1.1174 -0.7492  0.6702
18146TIP3   OH275928   0.447   2.140  13.362  0.1265  0.3432 -0.0658
18146TIP3    H175929   0.362   2.167  13.395  0.0998 -0.4793  0.5735
18146TIP3    H275930   0.484   2.087  13.432 -0.4286 -2.4595 -1.7539
18147TIP3   OH275931   5.897   4.385   1.650  0.2834 -0.7915  0.1173
18147TIP3    H175932   5.848   4.382   1.568  1.2273 -0.0458 -0.4945
18147TIP3    H275933   5.969   4.446   1.633  0.2705 -0.3200  1.6265
18148TIP3   OH275934   6.854   1.526   0.210  0.3049 -0.0935 -0.5609
18148TIP3    H175935   6.881   1.435   0.222 -0.1516 -0.4266 -1.8275
18148TIP3    H275936   6.826   1.555   0.297 -1.3645 -1.7834 -0.4618
18149TIP3   OH275937   2.719   4.386   5.113  0.1763 -0.5691  0.3240
18149TIP3    H175938   2.803   4.341   5.123 -0.5057 -2.0278 -0.1786
18149TIP3    H275939   2.653   4.319   5.133 -0.8848  0.7040  1.3512
18150TIP3   OH275940   6.635   0.324  11.709 -0.2077 -0.4744 -0.3432
18150TIP3    H175941   6.676   0.410  11.704  0.4554 -0.7991 -0.6584
18150TIP3    H275942   6.575   0.321  11.634 -0.1319 -0.3387 -0.4091
18151TIP3   OH275943   0.965   6.792   2.170  0.1663  0.2420 -0.4466
18151TIP3    H175944   1.024   6.838   2.228 -0.9624  0.2130  0.7684
18151TIP3    H275945   0.896   6.856   2.149  0.4916  0.2173 -1.6672
18152TIP3   OH275946   2.624   2.255  13.840  0.2546  0.2510 -0.2416
18152TIP3    H175947   2.530   2.247  13.821  0.4260 -2.2565 -0.3548
18152TIP3    H275948   2.652   2.332  13.791 -1.8714  1.5575  0.4536
18153TIP3   OH275949   3.022   2.845   0.957 -0.6170 -0.2174  0.1457
18153TIP3    H175950   3.052   2.924   1.001 -0.9026  0.4780 -0.8813
18153TIP3    H275951   3.071   2.774   0.998  0.9164  0.6748 -0.0824
18154TIP3   OH275952   3.691   3.298   4.246  0.3340 -0.0759  0.1776
18154TIP3    H175953   3.691   3.378   4.298  0.3805 -0.1438  0.2845
18154TIP3    H275954   3.763   3.246   4.283  0.5089 -0.0330 -0.0990
18155TIP3   OH275955   2.015   0.558   2.670 -0.3185 -0.0850  0.2567
18155TIP3    H175956   2.054   0.537   2.754 -0.3857 -1.4239 -0.0223
18155TIP3    H275957   2.021   0.477   2.619  0.8130  1.0132 -1.4723
18156TIP3   OH275958   5.105   4.794   5.384  0.3932  0.0081  0.3896
18156TIP3    H175959   5.189   4.808   5.427 -0.7539  2.7250  2.0270
18156TIP3    H275960   5.128   4.776   5.293  2.7559  0.3930  0.8467
18157TIP3   OH275961   4.271   0.997   1.501  0.2119 -0.1971 -0.4656
18157TIP3    H175962   4.222   0.939   1.559  0.7202  1.2717  1.5464
18157TIP3    H275963   4.338   0.940   1.462 -0.5861 -1.3798 -0.1653
18158TIP3   OH275964   2.643   5.866   3.364 -0.2489  0.3177 -0.3820
18158TIP3    H175965   2.697   5.937   3.330  0.0334  0.4270  0.2799
18158TIP3    H275966   2.570   5.860   3.302  1.4119 -1.0397 -2.3407
18159TIP3   OH275967   4.412   3.535   3.169  0.4474 -0.1747 -0.3062
18159TIP3    H175968   4.473   3.607   3.178 -0.1683  0.2319  0.7602
18159TIP3    H275969   4.425   3.482   3.247 -0.4301 -0.1757 -0.1510
18160TIP3   OH275970   4.935   3.106   1.290  0.1513  0.4081 -0.2269
18160TIP3    H175971   4.876   3.140   1.223 -2.0754 -1.8720  0.4413
18160TIP3    H275972   5.002   3.174   1.299 -1.8194  2.7280 -1.7010
18161TIP3   OH275973   0.507   4.369   0.560 -0.2710  0.2120  0.2964
18161TIP3    H175974   0.412   4.378   0.556 -0.4373 -1.0839  0.7845
18161TIP3    H275975   0.537   4.391   0.472 -1.2274 -1.2897 -0.4477
18162TIP3   OH275976   0.774   3.428  10.620 -0.4793  0.2984  0.5823
18162TIP3    H175977   0.714   3.460  10.553 -0.3273 -0.1715  0.2105
18162TIP3    H275978   0.720   3.374  10.677 -0.0314 -2.1688 -1.1411
18163TIP3   OH275979   3.083   5.069   2.345  0.5052  1.0223 -0.0907
18163TIP3    H175980   3.086   5.089   2.251  2.2146  1.5847  0.0461
18163TIP3    H275981   3.174   5.074   2.373  0.5269 -2.5078  0.9371
18164TIP3   OH275982   0.904   6.762  12.094  0.5138  0.7197 -1.1448
18164TIP3    H175983   0.852   6.833  12.055  1.6588  1.7468 -0.8840
18164TIP3    H275984   0.960   6.807  12.157  0.7984 -0.5333 -0.4839
18165TIP3   OH275985   6.034   3.106   5.943  0.3821 -0.2343 -0.8217
18165TIP3    H175986   6.103   3.049   5.978  0.1459  0.1721  0.3532
18165TIP3    H275987   6.057   3.193   5.976 -1.4277 -0.3052  0.7865
18166TIP3   OH275988   1.145   0.781   3.321 -0.3497 -0.4509  0.8104
18166TIP3    H175989   1.202   0.808   3.392 -1.2964  0.5395  1.2277
18166TIP3    H275990   1.064   0.753   3.364 -0.3553 -1.4289  0.2072
18167TIP3   OH275991   6.680   4.564   4.254  0.2501 -0.1820 -0.5468
18167TIP3    H175992   6.695   4.575   4.160  1.5219  0.1601 -0.3158
18167TIP3    H275993   6.757   4.517   4.286  0.2304  0.4317  0.4553
18168TIP3   OH275994   2.901   1.881  11.835  0.0021 -0.0412  0.6322
18168TIP3    H175995   2.910   1.896  11.930  0.8549  1.8346  0.3023
18168TIP3    H275996   2.991   1.887  11.802 -0.0094 -2.6304 -0.1156
18169TIP3   OH275997   4.616   0.881   3.311  0.1198 -0.3033  0.3375
18169TIP3    H175998   4.537   0.912   3.354  0.1435 -1.0484  0.9452
18169TIP3    H275999   4.675   0.858   3.382  0.1076 -1.6742 -0.0575
18170TIP3   OH276000   5.785   1.177   3.432  0.1015  0.0641 -0.0294
18170TIP3    H176001   5.754   1.215   3.349 -1.0243 -0.4196  0.1462
18170TIP3    H276002   5.871   1.141   3.412  0.7424  1.7374 -0.4700
18171TIP3   OH276003   3.628   0.217   4.344 -0.2281 -0.1309  0.1487
18171TIP3    H176004   3.712   0.252   4.376 -0.8771  0.2092  1.5416
18171TIP3    H276005   3.562   0.276   4.379 -1.0459  0.0901 -1.6163
18172TIP3   OH276006   2.664   2.450   5.941 -0.4640 -0.2320 -0.2869
18172TIP3    H176007   2.702   2.445   5.853 -0.3088 -1.0686 -0.1776
18172TIP3    H276008   2.705   2.527   5.980 -1.2929  0.7636 -1.2923
18173TIP3   OH276009   6.225   4.102  13.855  0.1121 -0.0266  0.1975
18173TIP3    H176010   6.271   4.051  13.921 -0.5229  0.5067  1.0709
18173TIP3    H276011   6.176   4.038  13.804  1.4637 -0.5616 -0.4892
18174TIP3   OH276012   4.665   3.678   3.892 -0.0492 -0.1305 -0.1315
18174TIP3    H176013   4.625   3.763   3.874 -2.2732 -0.5612  2.1833
18174TIP3    H276014   4.671   3.675   3.987  0.3938 -2.3867 -0.1892
18175TIP3   OH276015   6.521   4.245   4.372  0.0992  0.4896  0.6567
18175TIP3    H176016   6.566   4.182   4.428  1.3002  0.6953 -0.0500
18175TIP3    H276017   6.521   4.205   4.285  1.5253  1.7272  0.0400
18176TIP3   OH276018   0.305   1.779   3.001 -0.5161  0.0328  0.4354
18176TIP3    H176019   0.360   1.840   3.051 -0.7372  0.0903  0.6094
18176TIP3    H276020   0.355   1.763   2.921  0.5191 -1.1870  1.2924
18177TIP3   OH276021   6.098   4.981   1.392 -0.1456 -0.5887 -0.2724
18177TIP3    H176022   6.038   4.944   1.328 -1.3665  1.3532 -0.3298
18177TIP3    H276023   6.166   4.914   1.402 -0.9185 -1.7553 -2.1531
18178TIP3   OH276024   3.838   6.887   1.314 -0.3499  0.2213 -0.2265
18178TIP3    H176025   3.823   6.953   1.247  2.4605  0.7663 -0.4719
18178TIP3    H276026   3.851   6.806   1.265  1.1741  0.5185 -0.3754
18179TIP3   OH276027   2.242   3.197   1.110 -0.8376 -0.3543 -0.2903
18179TIP3    H176028   2.296   3.195   1.189  0.9325  1.0108 -1.3703
18179TIP3    H276029   2.285   3.137   1.050 -2.0735 -1.2513 -0.3100
18180TIP3   OH276030   6.446   3.378  15.528  0.3892  0.0249 -0.3901
18180TIP3    H176031   6.425   3.431  15.452  1.3444  0.6892 -0.2100
18180TIP3    H276032   6.540   3.390  15.540  0.5795 -1.4968 -0.1739
18181TIP3   OH276033   4.337   3.390   3.775 -0.1879  1.0277 -0.1109
18181TIP3    H176034   4.267   3.394   3.710  1.8371  1.8744 -2.4007
18181TIP3    H276035   4.418   3.392   3.724  1.5725 -0.5215  2.3540
18182TIP3   OH276036   2.465   0.633   4.701 -0.0067 -0.0536 -0.0313
18182TIP3    H176037   2.517   0.659   4.777  0.8318 -0.4721 -0.4508
18182TIP3    H276038   2.375   0.630   4.734  0.2565  0.4521  0.7635
18183TIP3   OH276039   4.012   6.582   4.038  0.2068  0.6420 -0.4128
18183TIP3    H176040   4.095   6.566   3.995  1.1948  1.2290  1.1856
18183TIP3    H276041   4.013   6.525   4.115 -2.0069 -1.2495 -1.6535
18184TIP3   OH276042   2.607   4.734   3.735 -0.5915 -0.5454 -0.0325
18184TIP3    H176043   2.637   4.644   3.729  0.6118 -0.1819  0.2312
18184TIP3    H276044   2.642   4.766   3.818 -2.1458 -0.2221  0.5431
18185TIP3   OH276045   5.482   6.519  13.740  0.4502  0.1242  0.9507
18185TIP3    H176046   5.473   6.608  13.773  0.6016  0.5267 -0.0488
18185TIP3    H276047   5.395   6.481  13.750 -0.8554  1.7797 -2.4116
18186TIP3   OH276048   2.364   5.098   5.156  0.0219 -0.4945 -0.1721
18186TIP3    H176049   2.331   5.174   5.205 -1.3407 -0.9038 -0.4227
18186TIP3    H276050   2.353   5.123   5.064  1.3966 -0.2355 -0.2889
18187TIP3   OH276051   6.785   5.952   1.306 -0.3197 -0.5096 -0.1682
18187TIP3    H176052   6.793   6.005   1.386 -1.7017 -2.5567  1.4331
18187TIP3    H276053   6.832   6.002   1.239 -0.1208  1.8815  1.6216
18188TIP3   OH276054   0.585   1.084  11.362 -0.3583 -0.3932  0.0347
18188TIP3    H176055   0.630   1.048  11.438 -2.6037 -0.8700  1.2548
18188TIP3    H276056   0.544   1.008  11.321 -3.0761  0.3049  1.1847
18189TIP3   OH276057   4.375   1.808   1.477 -0.4838  0.8796  0.5997
18189TIP3    H176058   4.438   1.771   1.416  1.3931  1.5824  2.0432
18189TIP3    H276059   4.304   1.744   1.480 -0.1878  0.3820 -1.5458
18190TIP3   OH276060   1.973   0.897   1.508 -0.0833  0.5489 -0.6263
18190TIP3    H176061   1.931   0.866   1.428  1.6443 -0.7253 -1.0858
18190TIP3    H276062   2.031   0.967   1.479  0.4810  0.1432 -0.4768
18191TIP3   OH276063   0.613   6.108   0.110 -0.3184  0.6107 -0.0864
18191TIP3    H176064   0.618   6.018   0.080  1.0410 -0.1888  2.2731
18191TIP3    H276065   0.539   6.146   0.062 -1.4772 -1.9865 -0.4829
18192TIP3   OH276066   3.107   2.696   4.570  0.4544  0.2970 -0.0388
18192TIP3    H176067   3.162   2.774   4.577  0.0346  1.0660 -3.3827
18192TIP3    H276068   3.168   2.623   4.561  1.0111  0.9323 -1.9199
18193TIP3   OH276069   3.614   2.639  12.743 -0.0099 -0.1137  0.2107
18193TIP3    H176070   3.631   2.720  12.790  0.6327  0.6721 -1.3361
18193TIP3    H276071   3.698   2.616  12.703 -1.0228  0.4520 -2.3865
18194TIP3   OH276072   6.416   3.965   0.139  0.4443  0.3094 -0.3492
18194TIP3    H176073   6.344   3.960   0.076  0.9783  1.3784 -1.0757
18194TIP3    H276074   6.389   4.033   0.201  0.2536 -0.2218  0.1661
18195TIP3   OH276075   6.804   5.999   5.049  0.3892  0.0657 -0.1053
18195TIP3    H176076   6.837   5.934   5.110  0.2809  0.7020  0.6526
18195TIP3    H276077   6.747   6.055   5.102 -2.4000 -1.3196 -1.4566
18196TIP3   OH276078   5.338   5.129   4.747  0.1975 -0.6950  0.2018
18196TIP3    H176079   5.308   5.209   4.791 -0.9790 -0.7184 -0.5134
18196TIP3    H276080   5.353   5.067   4.818  0.5645 -0.0268  0.7230
18197TIP3   OH276081   6.590   5.572   2.232  0.1250  0.3843  0.6551
18197TIP3    H176082   6.598   5.666   2.245  1.1126  0.2414  1.2185
18197TIP3    H276083   6.670   5.536   2.272  0.0844 -0.6298 -0.1491
18198TIP3   OH276084   2.937   1.580   0.321  0.4960  0.0389  0.0496
18198TIP3    H176085   3.021   1.594   0.364 -0.4338 -0.7132  2.2241
18198TIP3    H276086   2.930   1.485   0.313  1.5510  0.0759 -3.8777
18199TIP3   OH276087   4.103   5.355   0.305 -0.1952 -0.2194 -0.2372
18199TIP3    H176088   4.185   5.358   0.354 -0.3436 -0.5542  0.0342
18199TIP3    H276089   4.035   5.362   0.371 -0.4793 -3.2000 -0.0792
18200TIP3   OH276090   0.096   5.419   1.281  0.0282 -0.8368  0.1971
18200TIP3    H176091   0.004   5.443   1.280  0.0913 -0.3261  2.0252
18200TIP3    H276092   0.110   5.370   1.200 -1.3996  0.6581 -1.0225
18201TIP3   OH276093   6.193   3.258  14.378 -0.0873  0.7232 -0.3750
18201TIP3    H176094   6.160   3.315  14.447 -3.0365  1.4347 -2.1615
18201TIP3    H276095   6.248   3.194  14.423 -1.1744  1.6344  2.4800
18202TIP3   OH276096   3.135   0.167   2.067 -0.1378  0.0223  0.1425
18202TIP3    H176097   3.092   0.231   2.122 -0.1362 -0.9583  1.3295
18202TIP3    H276098   3.066   0.132   2.011 -0.4221  0.0286  0.4932
18203TIP3   OH276099   3.805   0.617   4.858 -0.7302  0.0461 -0.4820
18203TIP3    H176100   3.752   0.686   4.818 -1.4234 -0.0203  0.3020
18203TIP3    H276101   3.750   0.539   4.854 -0.3022 -0.2581 -0.5346
18204TIP3   OH276102   4.621   1.662   0.217  1.0948  0.7086  0.1603
18204TIP3    H176103   4.669   1.683   0.137  1.5389 -0.1637  0.1801
18204TIP3    H276104   4.578   1.578   0.197  1.5341  0.2863  0.9631
18205TIP3   OH276105   1.057   2.979   1.518 -0.4343  0.2446 -0.1656
18205TIP3    H176106   1.092   2.916   1.582  0.4968  0.3209 -0.5828
18205TIP3    H276107   1.134   3.027   1.488 -1.0022  0.8817 -0.6180
18206TIP3   OH276108   6.910   5.909   4.479  0.1957  0.6826 -0.3369
18206TIP3    H176109   6.821   5.924   4.513  0.6332  0.3062  1.0353
18206TIP3    H276110   6.935   5.824   4.516  0.9128  0.5111 -1.1919
18207TIP3   OH276111   4.146   2.177   1.247  0.5139  0.2230 -0.2174
18207TIP3    H176112   4.206   2.104   1.260  0.6092  0.5427  1.2880
18207TIP3    H276113   4.061   2.136   1.231  0.9505 -0.2184 -1.5423
18208TIP3   OH276114   3.371   4.331   1.190  0.2606 -0.6522  0.1775
18208TIP3    H176115   3.361   4.317   1.096  0.2728  0.5433 -0.0148
18208TIP3    H276116   3.398   4.423   1.198 -2.8972  0.2833  1.5261
18209TIP3   OH276117   3.891   2.058   1.256 -0.1611 -0.3319 -0.6183
18209TIP3    H176118   3.811   2.017   1.289 -2.5262  1.3894 -3.6948
18209TIP3    H276119   3.932   1.991   1.203 -0.8076 -0.5790 -0.8221
18210TIP3   OH276120   2.592   7.155   2.760  0.2576 -0.5479  0.5589
18210TIP3    H176121   2.521   7.197   2.712  0.8327 -0.5461 -0.3075
18210TIP3    H276122   2.648   7.227   2.789  1.4090 -0.6907 -1.1889
18211TIP3   OH276123   4.914   0.711   2.796 -0.1245 -0.2558  0.0018
18211TIP3    H176124   4.976   0.679   2.862 -1.1934  0.8909  1.6327
18211TIP3    H276125   4.968   0.762   2.736  0.5606  0.7806  1.4326
18212TIP3   OH276126   0.171   4.463   4.993  0.3772 -0.1718  0.4351
18212TIP3    H176127   0.227   4.473   5.069  1.5296 -1.1346 -0.2632
18212TIP3    H276128   0.091   4.421   5.027  0.6621 -0.1132  1.1874
18213TIP3   OH276129   2.813   5.499  10.944  0.2107  0.6948  0.0147
18213TIP3    H176130   2.853   5.544  11.018 -1.0908  0.7544  0.7012
18213TIP3    H276131   2.732   5.462  10.978  0.6968 -1.2777 -0.7997
18214TIP3   OH276132   6.479   3.612  14.707  0.1406 -0.0609 -0.1155
18214TIP3    H176133   6.414   3.681  14.721  1.8585  1.6907 -0.3539
18214TIP3    H276134   6.439   3.555  14.642 -2.1097 -0.4239  1.4401
18215TIP3   OH276135   3.240   5.687   1.243  0.5108 -0.6118 -0.0782
18215TIP3    H176136   3.179   5.758   1.223  1.3610  0.1153 -0.1201
18215TIP3    H276137   3.213   5.615   1.186 -1.2322 -0.8246  0.9439
18216TIP3   OH276138   3.977   1.803   4.479 -0.8753 -0.4618 -0.2260
18216TIP3    H176139   3.952   1.815   4.388  0.5743  1.3221 -0.4312
18216TIP3    H276140   3.940   1.878   4.525 -0.1429 -0.4454  0.3510
18217TIP3   OH276141   5.944   3.370   1.511  0.4957  0.4384  0.1960
18217TIP3    H176142   5.937   3.370   1.415  2.0284  0.0733  0.0691
18217TIP3    H276143   5.972   3.459   1.532  1.3841  0.1729  0.1848
18218TIP3   OH276144   0.810   6.345  12.941  0.4805 -0.0796 -0.6065
18218TIP3    H176145   0.862   6.294  12.879  2.0735  2.0322 -1.1390
18218TIP3    H276146   0.727   6.361  12.896  0.8431 -0.2751 -1.3534
18219TIP3   OH276147   0.198   4.755   5.957 -0.7265 -0.5306  0.5572
18219TIP3    H176148   0.283   4.745   5.913  0.0888 -1.1305  2.1679
18219TIP3    H276149   0.206   4.837   6.006 -2.7459  1.7945 -2.6509
18220TIP3   OH276150   6.789   6.107   2.524 -0.1088  0.4311  0.0936
18220TIP3    H176151   6.706   6.107   2.476 -0.4880 -0.9540  0.6981
18220TIP3    H276152   6.779   6.175   2.590 -1.4771 -0.8601  1.2870
18221TIP3   OH276153   6.297   6.267   0.354  0.4787 -0.5621  0.3104
18221TIP3    H176154   6.254   6.190   0.393 -0.4398 -0.4690 -0.4676
18221TIP3    H276155   6.336   6.233   0.273  0.0892 -0.2263 -0.0238
18222TIP3   OH276156   3.811   1.778   3.575 -0.4046 -0.2239  0.8183
18222TIP3    H176157   3.820   1.799   3.482 -2.9727 -0.7108  0.3831
18222TIP3    H276158   3.889   1.815   3.616  0.0492  1.3759 -1.3112
18223TIP3   OH276159   6.006   1.191   0.853  0.5159  0.1264  0.1706
18223TIP3    H176160   5.925   1.204   0.802  0.4590  2.0813  0.6681
18223TIP3    H276161   6.003   1.099   0.880 -1.6771  0.1962  0.3812
18224TIP3   OH276162   3.238   5.537  14.659 -0.3338 -0.3861  0.2392
18224TIP3    H176163   3.321   5.515  14.703  0.6457 -0.4650 -1.5568
18224TIP3    H276164   3.248   5.503  14.570 -1.1083  2.1689 -0.9157
18225TIP3   OH276165   5.199   4.728  12.201 -0.1198 -0.0437 -1.0307
18225TIP3    H176166   5.275   4.678  12.173  1.9326  0.9646  2.2483
18225TIP3    H276167   5.233   4.816  12.219 -1.7624  0.1839  1.5114
18226TIP3   OH276168   3.348   4.021   2.232 -0.4667  0.1009 -0.1160
18226TIP3    H176169   3.369   3.965   2.157 -0.1848 -0.4385  0.3627
18226TIP3    H276170   3.339   4.109   2.194 -0.4675 -0.1904 -0.8026
18227TIP3   OH276171   6.492   2.516  15.490 -0.7049  0.2829  0.3648
18227TIP3    H176172   6.405   2.507  15.450 -0.5485  0.0473  0.0707
18227TIP3    H276173   6.493   2.452  15.561  0.9914 -3.5332 -2.7365
18228TIP3   OH276174   6.445   1.596   5.827 -0.2735 -0.3862 -0.4375
18228TIP3    H176175   6.431   1.660   5.897 -1.4650 -1.0330 -0.0612
18228TIP3    H276176   6.443   1.648   5.746 -3.7421 -0.1571 -0.3459
18229TIP3   OH276177   3.596   0.180  14.254 -0.0774  0.2293 -0.0175
18229TIP3    H176178   3.526   0.238  14.284  0.8587  1.0204  0.7372
18229TIP3    H276179   3.552   0.101  14.224 -1.1722 -0.0775  2.2169
18230TIP3   OH276180   2.288   3.151   0.544  0.1966  0.4660  0.4255
18230TIP3    H176181   2.373   3.137   0.504 -0.3063  2.0359 -1.3465
18230TIP3    H276182   2.228   3.162   0.470 -1.1689  1.4332  1.6138
18231TIP3   OH276183   6.771   2.016  11.798 -0.3895  0.1484  0.2791
18231TIP3    H176184   6.686   2.059  11.785  0.4299  1.3003 -1.7291
18231TIP3    H276185   6.814   2.021  11.713  2.1826  0.6620  1.5085
18232TIP3   OH276186   5.975   1.411   0.053  0.4998  0.1149 -0.1686
18232TIP3    H176187   5.882   1.416   0.030  0.9784 -0.2010 -2.3704
18232TIP3    H276188   5.991   1.490   0.104 -0.5301  1.2767 -1.5486
18233TIP3   OH276189   6.324   3.036  15.462  0.7082  0.0553  0.3811
18233TIP3    H176190   6.403   3.084  15.487  1.1733  0.1985 -1.2416
18233TIP3    H276191   6.254   3.102  15.464  0.5994 -0.0692  1.8079
18234TIP3   OH276192   1.591   1.242   4.688 -0.2008 -0.3356 -0.1316
18234TIP3    H176193   1.653   1.220   4.619  1.2603  0.3239  0.9375
18234TIP3    H276194   1.626   1.201   4.767 -0.6068  0.8352  0.6859
18235TIP3   OH276195   7.014   2.643   0.458  0.1211  0.1865  0.2203
18235TIP3    H176196   6.955   2.569   0.472  1.1407 -0.8389 -0.7108
18235TIP3    H276197   7.001   2.698   0.535  0.2204 -1.5881  1.5855
18236TIP3   OH276198   7.070   3.956   2.073  0.5762  0.1970  0.7734
18236TIP3    H176199   7.035   4.002   1.996 -0.9799 -0.9839  0.7216
18236TIP3    H276200   7.003   3.968   2.141  0.4799 -1.3067  0.9830
18237TIP3   OH276201   3.228   3.626  13.043  0.5570  0.4743 -0.1616
18237TIP3    H176202   3.221   3.595  13.133  0.3058 -2.0008 -0.9525
18237TIP3    H276203   3.226   3.721  13.050 -0.3731  0.3495  2.3662
18238TIP3   OH276204   6.928   5.081  10.676 -0.1268 -0.0090  0.6187
18238TIP3    H176205   6.972   5.041  10.751 -0.8247 -0.7923  0.6230
18238TIP3    H276206   6.855   5.130  10.715  0.6864  1.2652  0.6099
18239TIP3   OH276207   6.522   0.248   2.557  0.2602 -0.1826 -0.2413
18239TIP3    H176208   6.542   0.317   2.620 -0.4509  1.2379 -1.5060
18239TIP3    H276209   6.522   0.293   2.472 -1.0097 -1.5639 -1.0187
18240TIP3   OH276210   3.300   3.751   1.207 -0.1679 -0.0443 -0.2008
18240TIP3    H176211   3.214   3.784   1.233  0.2048  0.5969  0.2513
18240TIP3    H276212   3.360   3.823   1.228  0.1269  0.6921 -3.1463
18241TIP3   OH276213   4.301   5.661   5.364 -0.3814 -0.4251 -0.7200
18241TIP3    H176214   4.394   5.657   5.386 -0.2751 -1.0307 -1.2401
18241TIP3    H276215   4.274   5.570   5.355 -1.3903 -0.3237  0.8276
18242TIP3   OH276216   3.435   5.698   5.689 -0.6568  0.5525 -0.5799
18242TIP3    H176217   3.370   5.744   5.742 -0.1228  0.8307 -0.1464
18242TIP3    H276218   3.457   5.760   5.619  1.1012  1.6054  0.7971
18243TIP3   OH276219   5.288   2.785  14.783  0.5483 -0.4927  0.0720
18243TIP3    H176220   5.297   2.872  14.743  0.3653 -1.2385 -1.6767
18243TIP3    H276221   5.377   2.750  14.785  0.3589 -1.1800 -1.4964
18244TIP3   OH276222   2.154   5.394   3.743  0.0507 -0.1174 -0.1483
18244TIP3    H176223   2.240   5.427   3.719  0.1450  1.4212  2.0981
18244TIP3    H276224   2.128   5.339   3.668  2.6876 -0.1630 -1.1276
18245TIP3   OH276225   2.160   2.886  13.168 -0.0582 -0.4605 -0.5751
18245TIP3    H176226   2.090   2.825  13.145 -1.1254  0.9224 -1.2257
18245TIP3    H276227   2.121   2.944  13.234  0.2416  0.7058 -1.3805
18246TIP3   OH276228   6.651   3.813   4.250 -0.0601 -0.0919  0.4567
18246TIP3    H176229   6.701   3.834   4.329  0.2650 -1.0972  0.5364
18246TIP3    H276230   6.705   3.749   4.203 -0.9547 -0.6954  0.2084
18247TIP3   OH276231   6.897   4.293  15.029  0.1326  0.2224 -0.1906
18247TIP3    H176232   6.982   4.327  15.056  0.2885  0.2877 -0.7438
18247TIP3    H276233   6.844   4.294  15.108  0.6370  0.2150  0.1492
18248TIP3   OH276234   1.330   2.312  14.217  0.1054  0.3879 -0.6692
18248TIP3    H176235   1.271   2.312  14.141  0.4438  1.1066 -0.9400
18248TIP3    H276236   1.416   2.332  14.180  0.4151 -0.0474 -0.1966
18249TIP3   OH276237   0.555   6.804  14.022 -0.1257 -1.0931  0.4275
18249TIP3    H176238   0.550   6.803  14.118  2.1287  0.3017  0.6395
18249TIP3    H276239   0.464   6.815  13.993 -0.7151 -0.1669  2.4604
18250TIP3   OH276240   6.487   6.784   4.446  0.0675  0.7356 -0.2987
18250TIP3    H176241   6.401   6.757   4.478  0.4313 -0.6246 -0.3711
18250TIP3    H276242   6.500   6.871   4.482 -1.2435  0.8777 -0.1006
18251TIP3   OH276243   6.005   5.115  12.146  0.9804 -0.7939  0.0646
18251TIP3    H176244   6.007   5.125  12.051  1.5412 -1.7365 -0.0297
18251TIP3    H276245   5.913   5.124  12.169  1.0410  1.4302 -0.3330
18252TIP3   OH276246   4.090   0.827   0.329  0.5601 -0.4616 -0.7141
18252TIP3    H176247   4.037   0.833   0.249 -1.1605 -0.5114  0.3624
18252TIP3    H276248   4.129   0.913   0.339  1.3437 -0.6581 -1.9636
18253TIP3   OH276249   0.593   2.117   1.256 -0.0482  0.7861 -0.6577
18253TIP3    H176250   0.540   2.037   1.253  1.3471 -0.1373 -2.6260
18253TIP3    H276251   0.536   2.184   1.219 -0.4142  0.1535 -1.2717
18254TIP3   OH276252   5.921   2.745   5.426 -0.5593  0.0409 -0.0762
18254TIP3    H176253   5.827   2.744   5.406 -0.6819  1.6137  0.2902
18254TIP3    H276254   5.926   2.725   5.519 -1.0853  5.2547  1.3784
18255TIP3   OH276255   6.242   4.123   5.186 -0.6395 -0.4722 -0.6036
18255TIP3    H176256   6.283   4.071   5.117 -1.6741 -0.5930 -1.1366
18255TIP3    H276257   6.314   4.176   5.221  0.0274 -0.8620 -1.3430
18256TIP3   OH276258   7.102   3.222   1.560 -0.2341 -0.5080  0.0117
18256TIP3    H176259   7.185   3.186   1.591  0.2647  1.1508  0.7121
18256TIP3    H276260   7.106   3.212   1.465 -0.4333 -2.8704  0.2111
18257TIP3   OH276261   4.854   5.238   3.465  0.2351 -0.7808 -0.3443
18257TIP3    H176262   4.835   5.244   3.558 -0.9571 -1.1165 -0.5517
18257TIP3    H276263   4.939   5.193   3.461  0.2982 -0.7575  0.5744
18258TIP3   OH276264   4.491   1.699  11.865  0.1571  0.2742 -0.7666
18258TIP3    H176265   4.470   1.651  11.785  2.0930 -2.0501  0.0060
18258TIP3    H276266   4.450   1.648  11.935 -1.0742  1.9939 -0.1681
18259TIP3   OH276267   1.716   6.549   0.871 -1.1570 -1.0539 -0.0867
18259TIP3    H176268   1.699   6.620   0.809  4.6512  1.1763  0.2433
18259TIP3    H276269   1.757   6.481   0.819  2.4563  0.2516  0.7636
18260TIP3   OH276270   4.589   4.111   0.050 -0.2112 -0.0779  0.3251
18260TIP3    H176271   4.569   4.189  -0.001  1.2428  0.6544  0.8306
18260TIP3    H276272   4.670   4.132   0.096  0.6049 -2.1341 -0.0634
18261TIP3   OH276273   6.480   5.101   5.610  0.1881 -0.3266 -0.3499
18261TIP3    H176274   6.570   5.069   5.610 -0.0847 -1.1528 -1.2287
18261TIP3    H276275   6.466   5.136   5.698  1.7278  0.8774 -0.5535
18262TIP3   OH276276   2.878   5.808   3.513  0.0474  0.0473  0.0075
18262TIP3    H176277   2.857   5.901   3.508 -0.9423  0.0207  2.4173
18262TIP3    H276278   2.954   5.797   3.455  0.3212  2.3768 -0.1554
18263TIP3   OH276279   1.047   5.310   0.877 -0.3544  0.2939 -0.3556
18263TIP3    H176280   1.043   5.253   0.954 -1.8376 -1.8227 -1.8672
18263TIP3    H276281   1.134   5.348   0.880  1.0640 -2.6840  0.3971
18264TIP3   OH276282   3.054   4.633  15.751 -0.1825  0.3266 -0.2495
18264TIP3    H176283   3.033   4.709  15.805 -0.6024 -0.7817  1.2148
18264TIP3    H276284   3.005   4.647  15.670 -1.2297  1.0337  0.4777
18265TIP3   OH276285   1.750   0.423  11.222  0.4166  0.2709 -0.1213
18265TIP3    H176286   1.677   0.367  11.193  0.9441  0.0161 -1.0030
18265TIP3    H276287   1.716   0.512  11.216  0.1710  0.1529 -0.5132
18266TIP3   OH276288   5.833   0.763  13.600  0.2101 -0.8402 -0.2521
18266TIP3    H176289   5.875   0.714  13.671  1.6078  0.7433  0.0517
18266TIP3    H276290   5.844   0.855  13.623 -2.0308 -0.3082 -1.0004
18267TIP3   OH276291   2.464   5.334   5.898 -0.6237 -0.0337  0.4752
18267TIP3    H176292   2.402   5.271   5.933 -0.4902 -0.1425  0.5146
18267TIP3    H276293   2.456   5.326   5.803 -2.3964  1.6275  0.4339
18268TIP3   OH276294   2.096   0.280   2.601 -0.2947  0.5320  0.0725
18268TIP3    H176295   2.099   0.292   2.696  0.0326  0.1260  0.1153
18268TIP3    H276296   2.019   0.225   2.586  0.5162 -0.6988  0.2533
18269TIP3   OH276297   5.327   3.011   3.523 -0.0909  0.4236  0.0926
18269TIP3    H176298   5.323   3.103   3.550  0.5128  1.5649 -3.2784
18269TIP3    H276299   5.286   2.963   3.595 -1.4662  3.4270  1.4742
18270TIP3   OH276300   5.667   3.875   2.694 -0.3120 -0.3094 -0.5097
18270TIP3    H176301   5.592   3.822   2.719 -0.6642  1.1728  1.9486
18270TIP3    H276302   5.742   3.817   2.704 -0.5131 -0.1666  3.6523
18271TIP3   OH276303   0.786   2.485  13.878 -0.5396  0.0653  0.0414
18271TIP3    H176304   0.711   2.432  13.904 -0.3338 -0.9657 -1.3323
18271TIP3    H276305   0.776   2.494  13.783 -0.4697  2.3673  0.2113
18272TIP3   OH276306   5.399   5.778   2.668  0.1357 -0.0426 -0.2591
18272TIP3    H176307   5.381   5.696   2.715  0.2152  0.4686  0.6984
18272TIP3    H276308   5.462   5.824   2.724  0.3547  0.5245 -0.9583
18273TIP3   OH276309   5.151   0.476   1.436  0.5247 -0.3489  0.0553
18273TIP3    H176310   5.174   0.432   1.355  0.5502 -0.9156  0.3705
18273TIP3    H276311   5.057   0.461   1.446  0.8589 -1.9012  1.0992
18274TIP3   OH276312   1.080   4.244   0.923 -0.6161 -0.5968  0.2370
18274TIP3    H176313   1.044   4.256   1.011  0.1647 -1.5939  0.7306
18274TIP3    H276314   1.168   4.209   0.939  0.4211  1.3415 -0.9189
18275TIP3   OH276315   1.261   1.797  13.738 -0.2427 -0.1824  0.2309
18275TIP3    H176316   1.294   1.843  13.816  0.0972 -1.7150  1.0227
18275TIP3    H276317   1.172   1.832  13.726  0.4336  1.5696  0.0526
18276TIP3   OH276318   1.863   3.321   4.278  0.3423 -0.2679 -0.6267
18276TIP3    H176319   1.846   3.307   4.185  1.0895  2.6416 -1.3037
18276TIP3    H276320   1.953   3.290   4.291  0.2623 -0.6156 -0.9026
18277TIP3   OH276321   4.287   3.696  13.786  0.1839  0.3001  0.3470
18277TIP3    H176322   4.339   3.735  13.856  0.8945 -0.4840  0.2742
18277TIP3    H276323   4.350   3.646  13.734 -0.4684  0.2242 -0.3851
18278TIP3   OH276324   6.833   0.010   1.579 -0.3632 -0.9184  0.4161
18278TIP3    H176325   6.860   0.042   1.493  0.1404  1.1876  1.3104
18278TIP3    H276326   6.914  -0.022   1.619  0.0073  0.8611  1.1999
18279TIP3   OH276327   1.432   4.794   2.894  0.4722  1.0061 -0.1457
18279TIP3    H176328   1.469   4.724   2.840 -0.3995  2.0124 -2.1351
18279TIP3    H276329   1.471   4.780   2.980  1.2273 -1.2089 -0.7687
18280TIP3   OH276330   5.471   0.568  14.648 -0.1317 -0.4234 -0.2567
18280TIP3    H176331   5.541   0.510  14.620  0.9587  0.9246 -0.4092
18280TIP3    H276332   5.508   0.620  14.719 -0.3281  1.5463 -1.4942
18281TIP3   OH276333   1.387   5.797  10.657 -0.2582 -0.2895  0.3700
18281TIP3    H176334   1.392   5.709  10.693 -0.2340 -0.2958  0.3510
18281TIP3    H276335   1.440   5.851  10.716  0.2171 -0.3974  0.0458
18282TIP3   OH276336   3.992   6.136  11.824 -0.3215 -0.5024  0.2067
18282TIP3    H176337   3.949   6.055  11.798  0.5737 -1.0433  0.3859
18282TIP3    H276338   4.067   6.144  11.765 -0.5763  0.3711 -0.0239
18283TIP3   OH276339   1.060   4.162   1.366 -0.3362  0.1903 -0.3572
18283TIP3    H176340   1.071   4.149   1.460  1.0099  0.3581 -0.4656
18283TIP3    H276341   1.140   4.125   1.328 -0.0646  1.6568 -1.2864
18284TIP3   OH276342   0.983   4.651  14.144  0.6494 -0.3621 -0.3138
18284TIP3    H176343   0.971   4.663  14.050  1.5168 -1.9855 -0.6609
18284TIP3    H276344   0.960   4.560  14.160  1.3716 -0.3584  0.9040
18285TIP3   OH276345   4.654   4.587  12.372  0.1824 -0.3114  0.6368
18285TIP3    H176346   4.617   4.506  12.406  0.3716  0.1915  2.0728
18285TIP3    H276347   4.696   4.560  12.290 -2.7494 -1.0250 -0.7794
18286TIP3   OH276348   3.008   1.424   4.567  0.0511  0.2205 -0.3454
18286TIP3    H176349   2.958   1.345   4.590  0.1821  0.6324  1.5938
18286TIP3    H276350   2.965   1.458   4.489 -0.2292 -1.5627 -1.0195
18287TIP3   OH276351   6.024   6.946   3.617 -0.6518  0.0092 -0.4163
18287TIP3    H176352   6.098   6.979   3.668 -0.4241 -0.3044 -0.5501
18287TIP3    H276353   6.038   6.980   3.529 -0.3253 -0.5982 -0.5953
18288TIP3   OH276354   1.460   6.292  15.319  0.0708 -0.3302 -0.5518
18288TIP3    H176355   1.444   6.200  15.341 -1.7414  0.1852  0.4925
18288TIP3    H276356   1.445   6.297  15.225 -0.8490 -0.9242 -0.4514
18289TIP3   OH276357   2.310   4.122   1.168  0.0526 -0.2232  0.3542
18289TIP3    H176358   2.292   4.117   1.262  1.4280 -4.1890  0.6208
18289TIP3    H276359   2.393   4.167   1.162 -0.0782  0.1211  1.0437
18290TIP3   OH276360   1.528   2.764   3.696 -0.5519  0.4013 -0.1852
18290TIP3    H176361   1.512   2.858   3.705  0.5566  0.7886 -1.8752
18290TIP3    H276362   1.470   2.736   3.625  0.1217  0.0965 -0.6202
18291TIP3   OH276363   7.051   2.611  13.384 -0.2084 -0.0735 -0.3500
18291TIP3    H176364   7.045   2.628  13.290  1.6196  0.5657 -0.3875
18291TIP3    H276365   7.007   2.686  13.424  0.3534  0.4536 -0.6914
18292TIP3   OH276366   2.714   6.666  11.949  0.1062 -0.0395 -0.0107
18292TIP3    H176367   2.746   6.729  12.013 -0.1948 -0.6484  0.7568
18292TIP3    H276368   2.632   6.703  11.917 -0.0754 -0.0479  0.4453
18293TIP3   OH276369   5.135   3.008   1.061  0.6270 -0.1737 -0.2748
18293TIP3    H176370   5.210   3.065   1.081  0.5940  0.1586 -1.0519
18293TIP3    H276371   5.118   2.961   1.142  0.5425  1.0676  0.4506
18294TIP3   OH276372   1.813   2.672   5.233 -0.4231 -0.3938  0.2093
18294TIP3    H176373   1.840   2.734   5.165 -0.9435  1.9790  1.9954
18294TIP3    H276374   1.805   2.588   5.189 -0.8032  1.0335 -2.6335
18295TIP3   OH276375   5.329   3.283  12.076  0.4249 -0.2311  0.2937
18295TIP3    H176376   5.322   3.352  12.011 -0.3822  0.5158  1.1337
18295TIP3    H276377   5.342   3.329  12.159  0.0837 -1.0856  0.8459
18296TIP3   OH276378   5.481   5.069   5.676 -0.0895  0.4697  0.1168
18296TIP3    H176379   5.515   4.982   5.657  0.3254  0.8549 -1.0090
18296TIP3    H276380   5.453   5.065   5.767  2.1151 -0.1300  0.8100
18297TIP3   OH276381   2.153   0.318   0.818 -0.1626 -0.5174 -0.8025
18297TIP3    H176382   2.154   0.266   0.737  1.6491 -2.7423  0.5164
18297TIP3    H276383   2.069   0.297   0.858  0.0138 -1.5043 -0.9104
18298TIP3   OH276384   3.895   5.250   1.005 -0.3826 -0.0522  0.6767
18298TIP3    H176385   3.899   5.169   1.056  2.2817 -0.8363 -0.6119
18298TIP3    H276386   3.903   5.319   1.070 -1.7024 -0.8127  1.7053
18299TIP3   OH276387   4.529   4.459   4.894  0.5005 -0.4268  0.6582
18299TIP3    H176388   4.551   4.503   4.976 -0.5088  1.1984  0.1150
18299TIP3    H276389   4.479   4.382   4.920 -2.1688  1.4660  1.5827
18300TIP3   OH276390   2.103   2.313   2.569 -0.1002  0.7017  0.9836
18300TIP3    H176391   2.155   2.392   2.585  1.1354  0.1378 -0.0865
18300TIP3    H276392   2.168   2.244   2.555 -1.1444 -0.1808  0.3733
18301TIP3   OH276393   0.890   1.634   3.635  0.0704  0.3433  0.5749
18301TIP3    H176394   0.946   1.556   3.633 -1.8614 -1.1576  1.5080
18301TIP3    H276395   0.820   1.614   3.573  0.3677  2.0592 -0.3663
18302TIP3   OH276396   5.592   0.625   3.538 -0.0717 -0.5978  0.8702
18302TIP3    H176397   5.593   0.554   3.602  0.8698 -1.9415 -0.5404
18302TIP3    H276398   5.580   0.580   3.454  0.6427  0.9180 -0.0810
18303TIP3   OH276399   4.290   0.034   2.260  0.4490 -0.1746  0.0680
18303TIP3    H176400   4.222   0.040   2.192  0.8933  0.2974 -0.3403
18303TIP3    H276401   4.245  -0.006   2.334 -0.1290 -0.4074 -0.3949
18304TIP3   OH276402   0.363   6.980   2.707  0.5874  0.1003  0.4767
18304TIP3    H176403   0.442   6.998   2.759  1.7675 -1.0270 -0.8238
18304TIP3    H276404   0.297   7.039   2.742  1.1451 -0.8901  3.5996
18305TIP3   OH276405   4.456   5.141  13.489 -0.0023 -0.1085 -0.0530
18305TIP3    H176406   4.523   5.087  13.446  0.2920  1.2713 -1.4133
18305TIP3    H276407   4.483   5.144  13.580  1.5786  0.0793 -0.5009
18306TIP3   OH276408   3.763   6.586   2.864 -0.3526  0.2707  0.4633
18306TIP3    H176409   3.854   6.602   2.843 -0.3691  0.0644  0.2298
18306TIP3    H276410   3.714   6.648   2.810 -0.4095 -0.4543 -0.3365
18307TIP3   OH276411   5.771   3.852  15.262  0.3754  1.0418  0.3540
18307TIP3    H176412   5.755   3.890  15.349 -4.0901 -0.1515  0.3311
18307TIP3    H276413   5.745   3.921  15.201  1.5261  1.1537 -0.0374
18308TIP3   OH276414   4.075   4.931  14.019 -0.1572  0.3706 -0.0566
18308TIP3    H176415   4.016   4.866  13.980  0.7530 -0.1761 -0.5814
18308TIP3    H276416   4.036   4.951  14.104 -0.1183 -1.4048  0.4305
18309TIP3   OH276417   5.745   3.393   5.552 -0.2079 -0.3245  0.2856
18309TIP3    H176418   5.681   3.433   5.493 -0.1867 -1.1292 -0.2906
18309TIP3    H276419   5.772   3.313   5.508 -2.6082 -2.7351  2.8038
18310TIP3   OH276420   0.315   6.427  14.071  0.6998 -0.1313 -0.6079
18310TIP3    H176421   0.367   6.378  14.135 -0.2147  0.6118  0.7458
18310TIP3    H276422   0.258   6.360  14.031  0.2766 -0.3916  0.3906
18311TIP3   OH276423   1.022   4.804   3.299 -0.1527  0.1021  0.4657
18311TIP3    H176424   1.049   4.821   3.389 -0.4508 -0.1743  0.6101
18311TIP3    H276425   0.937   4.760   3.307 -2.2913  3.6767 -0.0109
18312TIP3   OH276426   1.185   0.692  10.702 -0.2450 -0.2703 -0.1160
18312TIP3    H176427   1.138   0.640  10.637 -1.4960  0.7279 -0.0463
18312TIP3    H276428   1.178   0.782  10.670 -0.0193  0.1184  0.8977
18313TIP3   OH276429   7.079   5.035   5.070 -0.2983 -0.5672  0.3486
18313TIP3    H176430   6.995   4.990   5.060 -0.9032  0.6019  0.0469
18313TIP3    H276431   7.079   5.066   5.161 -0.5750  0.1799  0.0957
18314TIP3   OH276432   6.536   1.283   1.630  0.2291  0.7446  0.1038
18314TIP3    H176433   6.598   1.327   1.571  0.1011  0.7176 -0.0527
18314TIP3    H276434   6.521   1.347   1.700 -2.3247  2.2523 -1.6766
18315TIP3   OH276435   3.546   2.669   2.165 -0.1070  0.7693 -0.0777
18315TIP3    H176436   3.461   2.684   2.207 -1.0830  0.3901 -1.8076
18315TIP3    H276437   3.578   2.757   2.143  0.4905  0.9810  1.5342
18316TIP3   OH276438   2.982   6.794   4.835  0.4002  0.0714 -0.3302
18316TIP3    H176439   2.963   6.771   4.744 -0.1852 -0.8133  0.0007
18316TIP3    H276440   3.040   6.870   4.829  0.7198 -0.2393 -1.4427
18317TIP3   OH276441   2.683   6.562  13.372 -0.0452 -0.4957  0.0428
18317TIP3    H176442   2.726   6.489  13.415  0.1998  1.0017  2.5168
18317TIP3    H276443   2.594   6.531  13.354  0.1150 -1.4700  0.8512
18318TIP3   OH276444   1.162   3.271  11.730 -0.2181  0.0304  0.2133
18318TIP3    H176445   1.114   3.353  11.720 -1.3025 -0.5107  0.8262
18318TIP3    H276446   1.181   3.244  11.640  2.1081  2.0115 -0.0006
18319TIP3   OH276447   4.232   0.121   3.845  0.4166 -0.6356  0.0587
18319TIP3    H176448   4.187   0.053   3.896 -0.2786 -0.1385  0.1281
18319TIP3    H276449   4.165   0.154   3.785  0.8785 -0.3351 -0.2997
18320TIP3   OH276450   1.324   5.962   0.423  0.5200 -0.6228  0.2863
18320TIP3    H176451   1.361   5.894   0.366  1.6655 -0.8734  1.2812
18320TIP3    H276452   1.232   5.937   0.434  0.8147 -1.7727  0.2731
18321TIP3   OH276453   2.893   2.536   4.648 -0.5044  0.0479  0.5657
18321TIP3    H176454   2.974   2.568   4.609 -0.5810  0.4359  0.7140
18321TIP3    H276455   2.826   2.599   4.619 -0.4514  0.7185  1.8225
18322TIP3   OH276456   5.418   5.954  13.609  0.0080  0.0932  0.6513
18322TIP3    H176457   5.501   5.995  13.634 -0.9260  1.6060  1.4515
18322TIP3    H276458   5.423   5.865  13.644  1.2345  0.2034  0.7901
18323TIP3   OH276459   6.453   1.476   1.787  0.0715  0.3132  0.6612
18323TIP3    H176460   6.512   1.526   1.844 -0.5610  0.0170  1.6021
18323TIP3    H276461   6.368   1.518   1.799 -0.0432  0.3202 -0.1717
18324TIP3   OH276462   1.467   6.967  14.215  0.2100  0.6704  0.1607
18324TIP3    H176463   1.484   7.059  14.236 -1.5341  1.5924 -2.0542
18324TIP3    H276464   1.372   6.957  14.224  0.1513 -0.4371 -1.3345
18325TIP3   OH276465   1.170   2.514   5.536 -0.1104  0.1964  0.3823
18325TIP3    H176466   1.100   2.498   5.473 -1.4068 -1.6192  2.1388
18325TIP3    H276467   1.243   2.548   5.484 -1.3484 -0.5184 -1.9423
18326TIP3   OH276468   5.411   4.034   4.293  0.2155  0.3315  0.4663
18326TIP3    H176469   5.347   4.089   4.247  0.8634  1.0396  0.3755
18326TIP3    H276470   5.495   4.078   4.277  0.4959  0.4658  2.1362
18327TIP3   OH276471   4.873   7.136  15.006 -0.4403  0.3307 -0.2386
18327TIP3    H176472   4.904   7.108  14.920 -0.1113  0.3348 -0.1234
18327TIP3    H276473   4.888   7.230  15.008  2.8737 -0.0954  1.1251
18328TIP3   OH276474   1.485   2.293   4.026  0.4955 -0.0983 -0.2953
18328TIP3    H176475   1.442   2.335   4.101  0.8005  0.1702 -0.2684
18328TIP3    H276476   1.542   2.361   3.990  1.7354 -0.7516  0.3268
18329TIP3   OH276477   2.434   0.060   5.580  0.3983  0.6792  0.3923
18329TIP3    H176478   2.413  -0.033   5.581  0.7041  0.5880 -0.4852
18329TIP3    H276479   2.461   0.080   5.670  0.2335 -0.0479  0.6081
18330TIP3   OH276480   3.639   4.073  10.691 -0.6364 -0.2421  0.2202
18330TIP3    H176481   3.551   4.041  10.710 -0.8408 -0.0562 -0.3975
18330TIP3    H276482   3.675   4.009  10.629  0.0826 -0.9378  1.3308
18331TIP3   OH276483   2.528   3.731   0.853 -0.5085 -0.0051  0.6647
18331TIP3    H176484   2.580   3.747   0.931  1.2542 -2.3717  0.1104
18331TIP3    H276485   2.439   3.721   0.885 -0.0402  0.4504  2.1744
18332TIP3   OH276486   5.410   4.590  12.120 -0.0053 -0.0765  0.1455
18332TIP3    H176487   5.438   4.518  12.177 -1.0613 -0.5322  0.1106
18332TIP3    H276488   5.477   4.595  12.053  0.4252 -0.5938  0.5260
18333TIP3   OH276489   1.804   2.025   3.581  0.2724  0.1824  0.0089
18333TIP3    H176490   1.786   1.971   3.659  0.9245 -1.7629 -1.1269
18333TIP3    H276491   1.883   2.074   3.604  0.4297 -0.3284  0.5902
18334TIP3   OH276492   6.440   0.681   5.312  0.4230 -0.3446  0.2927
18334TIP3    H176493   6.384   0.630   5.371  0.1510 -1.4278 -0.8490
18334TIP3    H276494   6.528   0.674   5.349 -0.0212  0.5900  1.5871
18335TIP3   OH276495   1.836   6.814  12.780  0.8705  0.6210 -0.1087
18335TIP3    H176496   1.905   6.766  12.826  2.6863  3.5938  0.4732
18335TIP3    H276497   1.756   6.789  12.827  1.6474 -1.8985  0.0361
18336TIP3   OH276498   3.966   3.579   2.771 -0.1533  0.1472  0.4276
18336TIP3    H176499   3.976   3.485   2.783 -1.0723  0.0918  0.8257
18336TIP3    H276500   4.054   3.615   2.786  0.0690 -0.5761  0.8937
18337TIP3   OH276501   3.187   4.542   3.550 -0.6193  0.0964  0.3279
18337TIP3    H176502   3.098   4.513   3.571  0.2089 -1.4981  1.9141
18337TIP3    H276503   3.204   4.612   3.613 -0.8613  0.6384 -0.2037
18338TIP3   OH276504   4.031   4.375  13.378 -0.6982 -0.5872 -0.7863
18338TIP3    H176505   4.076   4.459  13.388  0.6577 -1.3456 -0.2022
18338TIP3    H276506   4.064   4.339  13.295  2.1693 -2.4510  0.9786
18339TIP3   OH276507   5.265   2.223  12.239 -0.4044 -0.0377  0.2514
18339TIP3    H176508   5.347   2.218  12.287 -0.2083  2.4447  0.3051
18339TIP3    H276509   5.290   2.247  12.150 -1.0367  0.1588  0.1194
18340TIP3   OH276510   5.197   6.433  13.706  0.2703  0.4534 -0.2563
18340TIP3    H176511   5.220   6.403  13.794 -0.1309 -3.4351 -1.2834
18340TIP3    H276512   5.103   6.416  13.698  0.3709  0.3621 -1.5380
18341TIP3   OH276513   6.171   6.454  12.753 -0.2588  0.3520 -0.6277
18341TIP3    H176514   6.128   6.505  12.685 -0.7262  0.4313 -0.2765
18341TIP3    H276515   6.192   6.371  12.711 -0.1652  0.5579 -0.9890
18342TIP3   OH276516   3.787   4.158   0.090 -0.6707 -0.0560 -0.7410
18342TIP3    H176517   3.826   4.245   0.092 -0.7362 -0.0170 -1.2674
18342TIP3    H276518   3.801   4.127   0.001 -3.6017  0.7518 -1.5561
18343TIP3   OH276519   2.542   0.702   5.564  0.4438 -0.7675  0.0916
18343TIP3    H176520   2.616   0.643   5.553  2.3522  1.0989  2.0506
18343TIP3    H276521   2.487   0.660   5.631 -0.8888 -2.6072 -2.0205
18344TIP3   OH276522   6.643   7.042   4.007  0.3833  0.2472 -0.6697
18344TIP3    H176523   6.655   7.129   3.969  1.1896  0.3245 -0.2648
18344TIP3    H276524   6.730   7.019   4.042  0.2597 -0.8461 -1.0379
18345TIP3   OH276525   0.128   0.685   2.676  0.4844  0.4546  0.1352
18345TIP3    H176526   0.088   0.610   2.631  0.3233 -0.0256  1.0440
18345TIP3    H276527   0.063   0.710   2.742  1.6535 -0.3976  1.7088
18346TIP3   OH276528   2.583   5.750   1.041  0.1288 -0.3262  0.0168
18346TIP3    H176529   2.599   5.801   1.121 -0.8856  1.6871 -1.0022
18346TIP3    H276530   2.670   5.731   1.007  0.6357  3.3444 -1.1103
18347TIP3   OH276531   4.649   5.024  15.239 -0.0280 -0.1333 -0.1800
18347TIP3    H176532   4.565   5.059  15.208  0.8627  2.0159 -0.3455
18347TIP3    H276533   4.693   5.099  15.277  1.2119 -1.5644  1.3237
18348TIP3   OH276534   3.593   6.358   4.098 -0.3056  0.5915 -0.3690
18348TIP3    H176535   3.603   6.450   4.124  0.7282  0.1493  0.8524
18348TIP3    H276536   3.642   6.351   4.016  1.7547  0.5919  0.7977
18349TIP3   OH276537   5.424   6.157   4.227 -0.2852  0.1942  0.3089
18349TIP3    H176538   5.335   6.128   4.206 -0.1219  0.6105 -0.9856
18349TIP3    H276539   5.412   6.217   4.301 -1.0003 -0.2290  0.5546
18350TIP3   OH276540   1.496   2.025   5.388  0.1849 -0.3070 -0.2218
18350TIP3    H176541   1.542   2.082   5.326  1.0713 -0.9380 -0.1576
18350TIP3    H276542   1.454   1.960   5.333 -0.5801  0.2173 -0.2737
18351TIP3   OH276543   7.126   0.201  15.095  0.3881  0.0515  0.0581
18351TIP3    H176544   7.050   0.240  15.050  1.8586  0.0932 -2.6240
18351TIP3    H276545   7.156   0.269  15.155 -0.8528  0.5835  0.1043
18352TIP3   OH276546   5.026   2.317  14.625 -0.3426  0.2702  0.0813
18352TIP3    H176547   4.991   2.383  14.685  0.8160  0.3486  0.6951
18352TIP3    H276548   5.118   2.307  14.651 -0.0896 -0.4436 -1.0249
18353TIP3   OH276549   3.577   5.711  12.258  0.3534 -0.3322  0.4502
18353TIP3    H176550   3.520   5.666  12.320  0.5385  1.7900  2.3215
18353TIP3    H276551   3.664   5.674  12.273 -0.0453 -1.7189 -0.5209
18354TIP3   OH276552   6.338   0.156   3.330  0.4604  0.1313 -0.1731
18354TIP3    H176553   6.316   0.063   3.323 -0.1362  0.2578 -0.0620
18354TIP3    H276554   6.269   0.200   3.281  0.9153  0.4999 -0.4924
18355TIP3   OH276555   6.931   6.964   2.738 -0.2896  0.0852 -0.0130
18355TIP3    H176556   6.935   7.031   2.669 -0.0196 -1.4091 -1.5324
18355TIP3    H276557   6.837   6.953   2.754 -0.3226  2.6467  2.2187
18356TIP3   OH276558   4.238   1.331   1.766  0.0964  0.2390  0.8518
18356TIP3    H176559   4.265   1.386   1.839 -0.1600 -0.7690  1.7216
18356TIP3    H276560   4.257   1.241   1.794  0.0708 -0.1646 -0.3449
18357TIP3   OH276561   6.447   2.291   1.771 -0.4503 -0.5926 -0.0865
18357TIP3    H176562   6.380   2.352   1.801 -1.0177 -0.1334 -2.1364
18357TIP3    H276563   6.490   2.336   1.699  0.7197 -1.6976 -0.1152
18358TIP3   OH276564   6.576   3.255   3.909 -0.6465  0.1143 -0.0650
18358TIP3    H176565   6.644   3.233   3.845 -1.7827 -0.0359 -1.2608
18358TIP3    H276566   6.494   3.236   3.864 -1.4885  0.1372  1.4106
18359TIP3   OH276567   1.532   3.592   6.002  0.3049 -0.6039  0.5375
18359TIP3    H176568   1.514   3.500   5.984 -0.2531 -0.7473  1.7245
18359TIP3    H276569   1.457   3.639   5.966  0.0509 -0.7294  0.8885
18360TIP3   OH276570   5.004   1.293   4.851  0.0142 -0.2746  0.3537
18360TIP3    H176571   5.006   1.323   4.941  2.2499 -1.7492  0.8865
18360TIP3    H276572   4.959   1.362   4.803 -3.5820 -0.5562  2.8973
18361TIP3   OH276573   4.933   3.743  14.651 -0.2222 -0.1215  0.5425
18361TIP3    H176574   4.998   3.792  14.702 -0.1444 -0.8665  1.1802
18361TIP3    H276575   4.873   3.810  14.618  1.4601  0.7048 -0.9668
18362TIP3   OH276576   1.729   2.051  14.357  0.3453 -0.3411 -0.5634
18362TIP3    H176577   1.770   2.121  14.306  2.3110 -0.4989  0.6884
18362TIP3    H276578   1.803   2.002  14.394 -0.7690  0.9061  3.9975
18363TIP3   OH276579   5.706   6.083   3.745  0.5955 -0.0682  0.2069
18363TIP3    H176580   5.706   6.053   3.654 -0.7645  0.9076 -0.1507
18363TIP3    H276581   5.681   6.006   3.796  0.6315 -0.4353 -0.3252
18364TIP3   OH276582   0.280   5.763  13.869  0.6983  0.0822 -0.5963
18364TIP3    H176583   0.330   5.688  13.835  0.2057 -0.2453 -0.5962
18364TIP3    H276584   0.341   5.836  13.862  1.2335 -0.3404 -0.4708
18365TIP3   OH276585   3.701   1.519   2.007 -0.2179 -0.1715 -0.3073
18365TIP3    H176586   3.729   1.463   2.080 -0.1907  0.4118  0.1389
18365TIP3    H276587   3.660   1.594   2.050  0.8346  0.7370 -0.8531
18366TIP3   OH276588   6.450   0.895   3.242  0.3585  0.2249  0.1639
18366TIP3    H176589   6.468   0.810   3.203  0.6230  0.1573  0.4346
18366TIP3    H276590   6.357   0.890   3.268  0.0626  0.4222 -0.8337
18367TIP3   OH276591   7.130   6.417   3.178 -0.0245 -0.6128 -0.2534
18367TIP3    H176592   7.185   6.457   3.245 -1.1289 -1.6885  1.3805
18367TIP3    H276593   7.136   6.323   3.196 -1.3576 -0.8292 -0.8519
18368TIP3   OH276594   0.903   5.839  13.659 -0.2782  0.0106  0.4747
18368TIP3    H176595   0.867   5.861  13.573  0.6797 -0.6499 -0.1202
18368TIP3    H276596   0.880   5.747  13.672  0.9786 -0.3770  0.1531
18369TIP3   OH276597   0.550   2.122   4.099 -0.1795  0.1403 -0.7170
18369TIP3    H176598   0.616   2.170   4.049  3.0632 -2.8937  0.2237
18369TIP3    H276599   0.508   2.066   4.035 -0.9191  1.0849 -1.0863
18370TIP3   OH276600   3.030   2.907   1.720 -0.6039  0.0323 -0.3182
18370TIP3    H176601   3.066   2.823   1.749 -1.7838 -0.1549  0.6972
18370TIP3    H276602   3.033   2.902   1.625  1.3092 -0.2704 -0.2886
18371TIP3   OH276603   4.296   5.902   0.948  0.3411 -0.4461 -0.0443
18371TIP3    H176604   4.265   5.858   0.869 -0.8589 -1.1972  0.8139
18371TIP3    H276605   4.218   5.943   0.986  1.3254  2.1882 -0.6002
18372TIP3   OH276606   7.140   2.418   1.934 -0.0402 -0.4890  0.3833
18372TIP3    H176607   7.195   2.366   1.992  0.6039  0.9518  1.1283
18372TIP3    H276608   7.192   2.496   1.915 -1.5180  0.5917  0.5496
18373TIP3   OH276609   3.450   0.429   3.446  0.3550 -0.0383 -0.2657
18373TIP3    H176610   3.433   0.335   3.455 -0.2876  0.2283  1.8639
18373TIP3    H276611   3.544   0.437   3.460  0.1072 -0.2016  1.9112
18374TIP3   OH276612   5.692   3.162   2.100  0.1776  0.2123  0.3111
18374TIP3    H176613   5.749   3.157   2.177 -2.7933 -1.0443  2.6309
18374TIP3    H276614   5.667   3.071   2.083 -0.7907  0.6755 -0.9077
18375TIP3   OH276615   6.522   3.677   3.099  0.2515 -0.3792  0.2735
18375TIP3    H176616   6.521   3.741   3.028 -1.6166  0.8297  1.2851
18375TIP3    H276617   6.430   3.657   3.114  0.6824 -1.6380  1.4580
18376TIP3   OH276618   0.574   6.269  13.188  0.0155 -0.0557 -0.5938
18376TIP3    H176619   0.499   6.209  13.195 -0.5332  0.7103  0.5711
18376TIP3    H276620   0.534   6.355  13.171  0.4407  0.6699  1.6544
18377TIP3   OH276621   4.120   2.544   0.674 -0.3855  0.7162 -0.4519
18377TIP3    H176622   4.113   2.610   0.605 -1.7608  1.2455  0.1541
18377TIP3    H276623   4.089   2.589   0.753  0.7277 -0.0109  0.4359
18378TIP3   OH276624   1.298   3.820   1.675 -0.1030  0.3094 -0.1416
18378TIP3    H176625   1.203   3.812   1.690  0.1646  0.3477  1.9941
18378TIP3    H276626   1.312   3.782   1.589 -1.6370 -3.3446  0.9908
18379TIP3   OH276627   3.738   2.840   0.123 -0.1502  0.4081  0.3209
18379TIP3    H176628   3.828   2.853   0.151  0.3803 -1.4156 -0.4401
18379TIP3    H276629   3.686   2.853   0.203  0.8163  0.9709  0.8712
18380TIP3   OH276630   2.372   6.885   5.909  0.2757 -0.9573  0.2783
18380TIP3    H176631   2.325   6.966   5.928 -1.1659 -1.7541  0.3102
18380TIP3    H276632   2.456   6.894   5.953 -0.0215  0.3447  0.6106
18381TIP3   OH276633   6.016   5.857   5.631 -0.2523 -0.1909 -0.1647
18381TIP3    H176634   6.016   5.809   5.548  2.1415 -1.5209  0.5147
18381TIP3    H276635   6.107   5.859   5.658 -0.4743  3.2599  0.8079
18382TIP3   OH276636   0.109   4.478   3.832 -0.3248 -0.1791  0.0982
18382TIP3    H176637   0.057   4.507   3.907 -1.1024 -0.3044 -0.3802
18382TIP3    H276638   0.179   4.542   3.826 -1.3611  0.9616 -0.2389
18383TIP3   OH276639   5.268   0.383  14.684 -0.3484  0.1162  0.6023
18383TIP3    H176640   5.316   0.459  14.651 -0.0177 -0.9515 -1.5209
18383TIP3    H276641   5.335   0.327  14.723  0.0343 -0.7597 -1.1848
18384TIP3   OH276642   6.632   3.842   3.695 -0.2920  0.0766  0.0645
18384TIP3    H176643   6.719   3.869   3.666 -1.2733  1.6503 -1.6798
18384TIP3    H276644   6.629   3.748   3.678  1.8024 -0.5150  2.3560
18385TIP3   OH276645   2.929   0.320  11.292 -0.5796 -0.1538 -0.2430
18385TIP3    H176646   2.960   0.309  11.382  0.6615  3.3110 -0.0610
18385TIP3    H276647   2.996   0.278  11.238  0.1346  0.0916  0.4262
18386TIP3   OH276648   2.606   3.899   0.093  0.4146  0.1741 -0.8109
18386TIP3    H176649   2.693   3.871   0.066  0.3278 -2.9815  1.5820
18386TIP3    H276650   2.552   3.888   0.014  1.6732 -0.3465 -1.6360
18387TIP3   OH276651   3.090   0.183   1.010  0.2557  0.4497  0.6657
18387TIP3    H176652   3.170   0.148   0.971  0.2674  0.6684  0.4923
18387TIP3    H276653   3.073   0.125   1.084  0.3884  0.2029  0.5049
18388TIP3   OH276654   3.920   4.129   3.718  0.5256  0.1254 -0.2594
18388TIP3    H176655   3.851   4.109   3.655 -1.7653  1.5010  1.6494
18388TIP3    H276656   3.985   4.178   3.667 -1.1313  1.0265 -1.6379
18389TIP3   OH276657   0.943   1.577   0.295 -0.5681 -0.2150 -0.6961
18389TIP3    H176658   0.854   1.562   0.326 -0.6440  0.1342 -0.7468
18389TIP3    H276659   0.999   1.537   0.362 -0.7135  0.9384  0.1245
18390TIP3   OH276660   0.832   6.150   2.104  0.9398 -0.2612  0.5064
18390TIP3    H176661   0.897   6.203   2.058  1.3754 -0.1740  1.2030
18390TIP3    H276662   0.841   6.062   2.068  0.3830  0.0756 -0.4845
18391TIP3   OH276663   4.125   3.452   4.194  0.5974  0.6073  0.6722
18391TIP3    H176664   4.054   3.516   4.191 -0.4728 -0.5637 -1.5296
18391TIP3    H276665   4.188   3.484   4.129 -0.4136 -0.9543 -1.2055
18392TIP3   OH276666   1.443   2.319   0.596  0.4886 -0.3276  1.0929
18392TIP3    H176667   1.351   2.329   0.619  0.6683  0.3119  1.5592
18392TIP3    H276668   1.449   2.356   0.508 -0.1133 -2.3900  0.1102
18393TIP3   OH276669   4.940   6.307   3.859  0.4013 -0.6227  0.3616
18393TIP3    H176670   5.021   6.321   3.810 -0.6893  0.1268 -1.3438
18393TIP3    H276671   4.900   6.393   3.865 -0.2895 -0.9844  1.1397
18394TIP3   OH276672   6.775   5.975   0.710 -0.1312  0.2985 -0.2916
18394TIP3    H176673   6.750   5.971   0.802 -1.9096  2.1980 -0.6141
18394TIP3    H276674   6.851   6.033   0.708 -0.5938  0.9243 -0.0806
18395TIP3   OH276675   2.145   1.934   2.346  0.5566  0.5663  0.8306
18395TIP3    H176676   2.070   1.991   2.361  0.6595  0.6818  0.9081
18395TIP3    H276677   2.110   1.862   2.295  0.4501  0.7583  0.6298
18396TIP3   OH276678   5.135   3.198   1.565 -0.4215 -0.0118  0.1508
18396TIP3    H176679   5.060   3.249   1.536 -1.3957 -0.5784  1.5615
18396TIP3    H276680   5.201   3.264   1.589 -1.4547  0.6076  1.4246
18397TIP3   OH276681   5.724   6.161   2.881 -0.3109 -0.5985 -0.3601
18397TIP3    H176682   5.734   6.149   2.976  0.5056  0.1210 -0.3367
18397TIP3    H276683   5.632   6.184   2.869 -0.7319 -1.9245  0.1064
18398TIP3   OH276684   1.474   5.424   3.868  0.2086 -0.2619  0.6985
18398TIP3    H176685   1.487   5.329   3.869 -0.8536 -0.4554 -0.3737
18398TIP3    H276686   1.453   5.444   3.776  2.6155  1.3570  0.4319
18399TIP3   OH276687   2.647   1.069   3.434 -0.7391  0.2681  0.0575
18399TIP3    H176688   2.705   1.035   3.366 -1.1058  0.7671 -0.5052
18399TIP3    H276689   2.640   1.162   3.416 -1.0575  0.3573  0.6204
18400TIP3   OH276690   4.304   5.868  14.018 -0.5422  0.7549  0.4457
18400TIP3    H176691   4.232   5.917  13.979 -0.2388  1.0014  0.1897
18400TIP3    H276692   4.270   5.780  14.029 -0.2904  0.3742 -1.4253
18401TIP3   OH276693   1.938   3.894   4.426  0.0570  0.2089  0.5906
18401TIP3    H176694   1.914   3.813   4.381 -0.2740  0.2888  0.6234
18401TIP3    H276695   2.026   3.877   4.460  0.3946  0.2077 -0.2455
18402TIP3   OH276696   6.107   2.148   6.061 -0.7233 -0.4723 -0.5085
18402TIP3    H176697   6.184   2.186   6.019 -0.8326 -0.0324 -0.3168
18402TIP3    H276698   6.077   2.081   5.999  1.5496 -2.7965  0.7603
18403TIP3   OH276699   5.308   3.690   5.430 -0.2676 -0.1185 -0.2459
18403TIP3    H176700   5.258   3.703   5.510 -0.9717  2.3912 -1.0060
18403TIP3    H276701   5.382   3.635   5.456 -0.3963  0.7421  2.1452
18404TIP3   OH276702   6.473   0.669   5.970  0.0636  0.2035  0.3177
18404TIP3    H176703   6.381   0.673   5.943 -0.4525  0.3540  1.9626
18404TIP3    H276704   6.519   0.632   5.894 -1.2293  0.7806 -0.7966
18405TIP3   OH276705   4.309   6.816  14.574 -0.4201  0.0015  0.1168
18405TIP3    H176706   4.338   6.763  14.499 -0.2828  1.2670 -0.7457
18405TIP3    H276707   4.214   6.810  14.573 -0.4269  0.1777 -0.2779
18406TIP3   OH276708   3.500   3.234  14.613 -0.0803  0.1296  0.6460
18406TIP3    H176709   3.417   3.205  14.652 -0.7880  1.0065 -0.1412
18406TIP3    H276710   3.507   3.182  14.532  0.2423 -0.0806  0.8076
18407TIP3   OH276711   0.817   2.367   4.296  0.1557  0.2778  0.1600
18407TIP3    H176712   0.825   2.272   4.289 -2.6735 -0.0775  0.6610
18407TIP3    H276713   0.863   2.401   4.219  0.9932 -1.4975 -0.1561
18408TIP3   OH276714   3.259   0.753   0.760 -0.5234 -0.0349 -0.2920
18408TIP3    H176715   3.261   0.660   0.783  0.0447 -0.3298 -1.4581
18408TIP3    H276716   3.182   0.762   0.704 -1.0965  0.3883  0.5520
18409TIP3   OH276717   6.545   3.016   0.250  0.0891  0.3450 -0.7058
18409TIP3    H176718   6.624   3.065   0.230  0.1534 -0.5902 -3.1061
18409TIP3    H276719   6.477   3.083   0.261  1.3260  1.2250  2.5518
18410TIP3   OH276720   2.084   1.127  14.218 -0.2454 -0.3514 -0.3286
18410TIP3    H176721   2.166   1.148  14.261  0.2429 -2.1140 -0.3269
18410TIP3    H276722   2.017   1.171  14.270  0.6238  0.5005  0.0924
18411TIP3   OH276723   0.545   0.763   6.165  0.3720  0.2403  0.6100
18411TIP3    H176724   0.501   0.848   6.161  0.0999  0.0816  0.0848
18411TIP3    H276725   0.637   0.785   6.177  0.0404  0.5480  2.9624
18412TIP3   OH276726   0.201   3.425   3.046 -0.0959  0.1062  0.1899
18412TIP3    H176727   0.116   3.383   3.057 -0.0232 -0.3238 -0.8124
18412TIP3    H276728   0.187   3.489   2.977 -0.0599  1.3721  1.3072
18413TIP3   OH276729   0.149   7.073   3.314  0.4924  0.3451 -0.1106
18413TIP3    H176730   0.195   7.082   3.397  1.0279  0.7445 -0.4474
18413TIP3    H276731   0.174   7.150   3.263 -0.7884  0.7370 -0.1871
18414TIP3   OH276732   2.309   3.142   3.366 -0.5630  0.0863  0.2835
18414TIP3    H176733   2.283   3.080   3.297  0.3316 -0.7612  0.6859
18414TIP3    H276734   2.382   3.191   3.328 -0.1128 -0.3361  0.5909
18415TIP3   OH276735   4.006   2.815   5.402 -0.2199  0.5778  0.0757
18415TIP3    H176736   4.092   2.813   5.358 -0.5357 -2.0883 -0.6019
18415TIP3    H276737   3.943   2.826   5.330 -0.6526 -2.2910 -0.0918
18416TIP3   OH276738   2.557   6.608   2.887 -0.1667 -0.3079  0.2834
18416TIP3    H176739   2.530   6.681   2.832  1.0784 -0.5558 -0.7068
18416TIP3    H276740   2.541   6.530   2.834 -1.1436 -0.7535  1.1877
18417TIP3   OH276741   4.400   5.463   4.810  0.0356 -0.1838  0.4625
18417TIP3    H176742   4.310   5.436   4.794 -0.0927  0.3371  0.3050
18417TIP3    H276743   4.393   5.536   4.872  0.3867 -0.5307  0.9242
18418TIP3   OH276744   6.231   3.872   4.520  0.1536  0.3665  0.1353
18418TIP3    H176745   6.159   3.925   4.487 -0.7159 -0.4113  0.7217
18418TIP3    H276746   6.236   3.798   4.460  0.9279  0.7555 -0.2973
18419TIP3   OH276747   6.923   4.021   5.275  0.1886  0.1423  0.7828
18419TIP3    H176748   6.997   4.081   5.279  0.9775 -0.7806  0.4717
18419TIP3    H276749   6.925   3.975   5.360  0.4210 -0.3967  0.4888
18420TIP3   OH276750   0.128   5.962   5.157  0.5674 -0.1281  0.7385
18420TIP3    H176751   0.064   6.011   5.106  1.2198 -0.8688 -0.8346
18420TIP3    H276752   0.195   6.027   5.181 -0.3873  0.4967  1.8044
18421TIP3   OH276753   6.886   1.354  13.731  0.4535  0.3568  0.4734
18421TIP3    H176754   6.798   1.357  13.692  0.1633 -0.8135  0.9821
18421TIP3    H276755   6.870   1.329  13.822  1.3955 -1.4821  0.1788
18422TIP3   OH276756   5.736   3.558   2.391 -1.0799 -0.1551  0.4256
18422TIP3    H176757   5.818   3.607   2.394 -1.4795  0.5911 -0.4752
18422TIP3    H276758   5.734   3.510   2.474  1.7263 -2.6305 -0.7575
18423TIP3   OH276759   6.898   0.740   3.356  0.0701  0.2921 -0.1683
18423TIP3    H176760   6.940   0.776   3.435 -0.3302  0.5407 -0.0705
18423TIP3    H276761   6.917   0.804   3.288  2.6938 -1.1588 -0.9320
18424TIP3   OH276762   0.458   6.961   3.085  0.6241 -0.3624  0.6539
18424TIP3    H176763   0.494   6.950   3.174 -0.2553 -3.0413  0.7872
18424TIP3    H276764   0.366   6.934   3.093  1.1251 -3.1850 -1.4470
18425TIP3   OH276765   3.369   4.030   3.071 -0.4557 -0.2491  0.1681
18425TIP3    H176766   3.436   3.962   3.082 -0.4771 -0.2175  0.4846
18425TIP3    H276767   3.351   4.061   3.159  2.3643  2.8850 -0.1399
18426TIP3   OH276768   2.539   5.441   5.084  1.0585 -0.8182 -0.0825
18426TIP3    H176769   2.624   5.401   5.096  1.0317 -0.5782  0.9851
18426TIP3    H276770   2.558   5.531   5.057  1.1212 -1.1588 -1.2341
18427TIP3   OH276771   6.261   6.526   1.272 -0.5993 -0.1455 -0.4015
18427TIP3    H176772   6.278   6.432   1.271 -1.1550 -0.2571 -0.0947
18427TIP3    H276773   6.190   6.538   1.209 -0.6897  0.0323 -0.2661
18428TIP3   OH276774   0.715   6.518   0.401 -0.2534 -0.0283 -0.2680
18428TIP3    H176775   0.642   6.490   0.345  0.3824  0.3129 -1.2847
18428TIP3    H276776   0.757   6.436   0.428 -0.7816 -0.2096  0.0210
18429TIP3   OH276777   5.968   4.465   0.263  0.1423  0.0571  0.1631
18429TIP3    H176778   6.035   4.502   0.205  0.3263 -0.4722  0.0268
18429TIP3    H276779   6.002   4.481   0.351 -0.3289  1.2214  0.1526
18430TIP3   OH276780   4.268   4.533  11.816 -0.1216 -0.3307 -0.0213
18430TIP3    H176781   4.276   4.604  11.753  1.8029  0.8503  1.4456
18430TIP3    H276782   4.200   4.563  11.877  0.0422 -0.1676  0.0822
18431TIP3   OH276783   6.434   2.013   3.774  0.1164 -0.0146 -0.1358
18431TIP3    H176784   6.479   1.970   3.847 -1.1338  0.0252  0.6904
18431TIP3    H276785   6.417   1.943   3.711 -1.9426 -0.8302  1.2185
18432TIP3   OH276786   4.093   6.926   1.230  0.3078 -0.4516  0.8190
18432TIP3    H176787   4.157   6.856   1.221 -1.0086 -1.4718 -1.4596
18432TIP3    H276788   4.015   6.884   1.267 -0.5495 -0.2940 -0.7131
18433TIP3   OH276789   5.400   0.163   0.831 -0.6130 -0.3224  0.3033
18433TIP3    H176790   5.467   0.231   0.827 -2.3398  1.6612  2.2263
18433TIP3    H276791   5.396   0.127   0.742  0.6152  1.8675 -0.7073
18434TIP3   OH276792   6.611   4.086  13.514  0.4341  0.3291 -0.0376
18434TIP3    H176793   6.596   4.033  13.592  1.1456  1.7216  1.0992
18434TIP3    H276794   6.702   4.066  13.489  0.5461  0.6449  0.1110
18435TIP3   OH276795   4.730   1.717   0.619  0.1120 -0.2710 -0.0771
18435TIP3    H176796   4.714   1.686   0.530  0.0161  0.0831 -0.1841
18435TIP3    H276797   4.820   1.688   0.638  0.3910  0.2585 -0.5528
18436TIP3   OH276798   1.493   1.883   4.943 -0.1372  0.2351 -0.6847
18436TIP3    H176799   1.507   1.789   4.936 -0.9652  0.0236  0.3283
18436TIP3    H276800   1.561   1.913   5.003 -1.8584 -0.2768  1.6432
18437TIP3   OH276801   5.079   2.115  13.041  0.7927  0.6066  0.6260
18437TIP3    H176802   5.117   2.147  13.122  0.9276  1.5092  0.2174
18437TIP3    H276803   4.985   2.115  13.056  0.7624  1.5915  0.5045
18438TIP3   OH276804   4.985   2.934  12.042 -0.1190  0.2144 -0.4206
18438TIP3    H176805   4.963   2.925  11.949 -1.1763 -0.2791 -0.1460
18438TIP3    H276806   5.054   2.870  12.057  1.6653  1.8237 -1.3256
18439TIP3   OH276807   5.793   3.414  14.241  0.0829  0.2942  0.9166
18439TIP3    H176808   5.767   3.432  14.332 -0.2389  1.4511  0.6087
18439TIP3    H276809   5.713   3.427  14.190  0.3705  0.1041  0.4104
18440TIP3   OH276810   4.411   0.308   4.574 -0.3565 -0.4900 -0.4668
18440TIP3    H176811   4.453   0.371   4.516  0.8126 -1.0883 -0.2994
18440TIP3    H276812   4.422   0.346   4.662  2.2925 -1.8676 -0.0977
18441TIP3   OH276813   3.630   4.814  13.841 -0.0757 -0.6528 -0.1213
18441TIP3    H176814   3.621   4.873  13.915  2.5869  2.2908 -1.8771
18441TIP3    H276815   3.548   4.823  13.793 -0.6106 -0.1583  0.8635
18442TIP3   OH276816   6.813   6.250  11.215 -0.3937  0.1033  0.6248
18442TIP3    H176817   6.726   6.218  11.191 -0.2181 -0.2064  0.4052
18442TIP3    H276818   6.872   6.179  11.193  0.1363  0.9835 -0.9526
18443TIP3   OH276819   2.837   2.441   2.667 -0.1618  0.3970  0.2061
18443TIP3    H176820   2.806   2.391   2.742  0.4616  0.1258  0.2868
18443TIP3    H276821   2.922   2.403   2.646  0.7067  1.8986  0.7653
18444TIP3   OH276822   6.673   3.310   5.290 -0.2420 -0.0924  0.1500
18444TIP3    H176823   6.691   3.277   5.378  0.7332 -0.5146 -0.1973
18444TIP3    H276824   6.758   3.336   5.256 -0.5841 -0.1209 -0.7568
18445TIP3   OH276825   7.024   6.076   6.165  0.3960  0.4021  0.0220
18445TIP3    H176826   6.947   6.080   6.222  0.5258 -0.2797  0.2587
18445TIP3    H276827   7.019   5.989   6.125  0.6998  0.5993 -0.4441
18446TIP3   OH276828   6.747   4.955  15.053 -0.4545 -0.5577  0.2699
18446TIP3    H176829   6.724   4.929  15.142 -1.9457  0.1724  0.1387
18446TIP3    H276830   6.812   4.890  15.024  0.8113 -0.2214  2.2134
18447TIP3   OH276831   0.765   2.168   4.801 -0.0978 -0.4305  0.2282
18447TIP3    H176832   0.820   2.163   4.723  1.2946 -1.7220  1.2318
18447TIP3    H276833   0.823   2.202   4.869 -1.1425  0.1649  0.8403
18448TIP3   OH276834   0.700   0.840   3.394 -0.3556 -0.5319  0.0943
18448TIP3    H176835   0.630   0.902   3.415 -1.0864 -1.5572  0.7426
18448TIP3    H276836   0.694   0.828   3.300 -0.2838  0.2641 -0.0262
18449TIP3   OH276837   1.669   5.174   5.303  0.0293 -0.3663 -0.4341
18449TIP3    H176838   1.640   5.218   5.383  0.2114  0.7833 -0.9840
18449TIP3    H276839   1.634   5.085   5.310 -0.2401 -0.1744  0.7590
18450TIP3   OH276840   2.754   2.611   2.473 -0.1337 -0.8846  0.9802
18450TIP3    H176841   2.763   2.568   2.558 -0.5899  0.2810  1.6533
18450TIP3    H276842   2.841   2.644   2.453  0.2236 -2.1251  0.4452
18451TIP3   OH276843   0.265   4.463   3.495 -0.3813  0.1269 -0.6122
18451TIP3    H176844   0.253   4.515   3.575 -0.3336  0.2699 -0.6973
18451TIP3    H276845   0.349   4.419   3.507  0.8767  2.0945 -1.6445
18452TIP3   OH276846   0.894   5.137   0.058  0.5799 -0.3339 -0.0467
18452TIP3    H176847   0.865   5.184   0.136 -0.6584 -1.4527  0.2010
18452TIP3    H276848   0.897   5.045   0.085  2.7321 -0.4611 -0.5841
18453TIP3   OH276849   0.966   3.955   4.872  0.5267  0.5428 -0.1491
18453TIP3    H176850   1.023   4.021   4.832 -0.9509  1.6340 -0.5349
18453TIP3    H276851   0.962   3.980   4.964  0.9638  0.2283 -0.0396
18454TIP3   OH276852   4.525   2.579   1.423  0.3342  0.5473 -0.4315
18454TIP3    H176853   4.478   2.551   1.502 -0.7076 -0.5375 -1.4012
18454TIP3    H276854   4.495   2.669   1.408  1.6986  1.3358  1.2289
18455TIP3   OH276855   1.427   1.665   3.343  0.7289  0.1177 -0.3379
18455TIP3    H176856   1.512   1.695   3.311  1.3945 -0.4001  0.8394
18455TIP3    H276857   1.436   1.668   3.439  0.0901 -1.6988 -0.1726
18456TIP3   OH276858   7.010   6.036   5.455 -0.0098  0.1530 -0.0366
18456TIP3    H176859   6.971   5.995   5.378  1.8459  0.4156 -1.1976
18456TIP3    H276860   7.086   5.981   5.475 -0.4145  0.1329  1.5998
18457TIP3   OH276861   2.151   1.467  12.650  0.2127 -0.3343 -0.0652
18457TIP3    H176862   2.162   1.533  12.719 -0.5733 -1.9178  1.6579
18457TIP3    H276863   2.230   1.475  12.597 -0.1760  2.4583 -0.3646
18458TIP3   OH276864   5.247   5.402   2.541  0.0058  0.2810 -0.4125
18458TIP3    H176865   5.312   5.441   2.600  0.3405 -0.4168 -0.3052
18458TIP3    H276866   5.166   5.404   2.591  0.2032  0.0588 -0.0774
18459TIP3   OH276867   3.315   2.873   0.869 -0.2715  0.3376 -0.5358
18459TIP3    H176868   3.248   2.911   0.811  0.0268  0.3764 -0.8598
18459TIP3    H276869   3.364   2.813   0.812 -0.1673  0.1501 -0.2468
18460TIP3   OH276870   0.606   5.855   6.165 -0.0031 -0.3229 -0.1196
18460TIP3    H176871   0.666   5.828   6.234  0.0818 -1.6547 -0.6761
18460TIP3    H276872   0.521   5.860   6.208  0.2673  0.2090  0.3689
18461TIP3   OH276873   6.236   6.140   3.711 -0.2560  0.2452 -0.2147
18461TIP3    H176874   6.263   6.058   3.752 -0.2436  0.3022 -0.1086
18461TIP3    H276875   6.206   6.114   3.624  2.7507  0.4764 -1.4251
18462TIP3   OH276876   1.152   2.770   1.725 -0.4288  0.1902  0.5076
18462TIP3    H176877   1.073   2.717   1.733  0.1708 -0.7396  0.5045
18462TIP3    H276878   1.170   2.801   1.814  0.1976 -1.1104  0.8610
18463TIP3   OH276879   5.598   5.000   5.332  0.1437  0.1519  0.4956
18463TIP3    H176880   5.555   5.073   5.376  1.7720  1.1778  0.4673
18463TIP3    H276881   5.664   4.969   5.393 -0.2812 -1.0938  0.3623
18464TIP3   OH276882   0.696   5.228   2.489 -0.5234  0.1865 -0.0043
18464TIP3    H176883   0.738   5.253   2.406  0.7325  2.5689  1.2619
18464TIP3    H276884   0.762   5.177   2.536 -1.3991 -1.5723 -0.5780
18465TIP3   OH276885   3.745   1.544   5.897  0.1458  1.1280  0.0723
18465TIP3    H176886   3.819   1.486   5.915 -1.8020 -1.1133  1.4647
18465TIP3    H276887   3.764   1.624   5.946  0.0216 -0.7997  3.5172
18466TIP3   OH276888   3.888   1.974   5.442 -0.3106  0.1129  0.0681
18466TIP3    H176889   3.938   1.899   5.410  1.0210  0.9692  0.1109
18466TIP3    H276890   3.863   1.950   5.532 -0.8502 -0.7222 -0.2903
18467TIP3   OH276891   3.264   1.795   3.262  0.4661 -0.2981 -0.4017
18467TIP3    H176892   3.316   1.786   3.183 -0.3025 -0.8028 -0.8639
18467TIP3    H276893   3.237   1.887   3.263  1.1080 -0.1086 -0.3159
18468TIP3   OH276894   1.637   4.904   5.593  0.3239 -0.4798 -0.6166
18468TIP3    H176895   1.648   4.999   5.600  0.2219 -0.4862 -0.3691
18468TIP3    H276896   1.610   4.890   5.502 -2.8234  0.0545  0.1071
18469TIP3   OH276897   4.000   5.923   4.943 -0.3883 -0.3953 -0.4561
18469TIP3    H176898   3.928   5.887   4.891 -0.1304 -2.5360  0.5567
18469TIP3    H276899   4.077   5.916   4.886 -0.6153  0.0519 -0.8275
18470TIP3   OH276900   3.164   2.532   4.885 -0.0237  0.6773 -0.8125
18470TIP3    H176901   3.213   2.450   4.888 -2.7754 -1.1000 -0.7653
18470TIP3    H276902   3.142   2.543   4.792  0.2011  1.3198 -0.7965
18471TIP3   OH276903   0.188   4.470  12.901 -0.2916  0.8299 -0.0014
18471TIP3    H176904   0.217   4.525  12.974 -1.2942  1.3179  0.0476
18471TIP3    H276905   0.105   4.433  12.930 -0.9005  1.3261 -1.0242
18472TIP3   OH276906   3.887   2.692   5.611  0.4982  0.0358  0.3208
18472TIP3    H176907   3.940   2.699   5.691  1.4793 -1.4005 -0.1757
18472TIP3    H276908   3.939   2.735   5.544 -0.7322  2.0681  0.5733
18473TIP3   OH276909   3.605   3.200   0.485 -0.8944 -0.3406  1.0617
18473TIP3    H176910   3.609   3.125   0.544 -0.3645  0.0730  1.5523
18473TIP3    H276911   3.559   3.267   0.534 -1.2149 -0.2797  0.6839
18474TIP3   OH276912   4.206   2.786  13.631 -0.6522  0.6905 -0.6611
18474TIP3    H176913   4.146   2.839  13.682  1.2543  0.5047  2.0067
18474TIP3    H276914   4.217   2.834  13.548 -2.1741  2.2009 -0.0329
18475TIP3   OH276915   1.857   2.173   4.111 -0.0635 -0.4821  0.1563
18475TIP3    H176916   1.849   2.266   4.134  0.8802 -0.7700  1.8033
18475TIP3    H276917   1.938   2.169   4.059 -0.4188 -0.3129 -0.4210
18476TIP3   OH276918   6.920   2.075   0.037 -0.0302  0.7029  0.2562
18476TIP3    H176919   6.892   2.145   0.095  0.3821  0.1743  1.1163
18476TIP3    H276920   6.848   2.011   0.041  0.9842 -0.4107  2.0520
18477TIP3   OH276921   7.056   2.409   4.995  0.0017 -0.3254 -0.3613
18477TIP3    H176922   7.152   2.398   4.999  0.3034  1.7663 -0.8050
18477TIP3    H276923   7.025   2.328   4.955  1.6202 -0.8816 -0.5824
18478TIP3   OH276924   3.021   0.377   2.256  0.2064  0.0117  0.3557
18478TIP3    H176925   3.051   0.435   2.326 -1.3513  0.8797  0.3297
18478TIP3    H276926   2.975   0.307   2.301  0.9180 -0.5042  0.2999
18479TIP3   OH276927   3.445   2.166   5.288  0.0374 -0.6645  0.4099
18479TIP3    H176928   3.540   2.155   5.296  0.2374  0.3807 -0.2189
18479TIP3    H276929   3.425   2.137   5.199 -0.0495  0.1462  0.1576
18480TIP3   OH276930   1.228   1.410  15.296 -0.6438 -0.3736  0.0374
18480TIP3    H176931   1.224   1.323  15.335  0.2243 -0.6544 -0.4650
18480TIP3    H276932   1.322   1.425  15.281 -0.9319 -0.3179 -2.0306
18481TIP3   OH276933   6.387   1.564   3.815 -0.2346  0.2480 -0.1508
18481TIP3    H176934   6.393   1.505   3.890  1.2038  2.2377  1.4225
18481TIP3    H276935   6.371   1.507   3.741 -1.5595 -1.8454  1.6247
18482TIP3   OH276936   4.114   5.514  13.041 -0.2578  0.3314 -0.1313
18482TIP3    H176937   4.068   5.597  13.030  0.8321  0.8562 -0.9364
18482TIP3    H276938   4.189   5.521  12.982  1.5707  0.0444  2.0340
18483TIP3   OH276939   1.782   5.249   5.083 -0.0150  0.2707 -0.0657
18483TIP3    H176940   1.766   5.256   5.177 -1.1511 -0.7955 -0.1551
18483TIP3    H276941   1.875   5.267   5.073  0.0732  0.6303  1.2372
18484TIP3   OH276942   4.944   4.646   3.998  0.0754 -0.1115  0.2070
18484TIP3    H176943   4.995   4.569   3.975  0.3859 -0.3721  1.7250
18484TIP3    H276944   4.869   4.643   3.938  0.3206 -1.3243 -0.0670
18485TIP3   OH276945   3.228   2.652   3.423  0.6018  0.7722  0.1489
18485TIP3    H176946   3.269   2.600   3.492  0.2719 -1.0949 -0.9812
18485TIP3    H276947   3.246   2.743   3.446  2.4185  0.1151  1.4733
18486TIP3   OH276948   1.872   1.390  13.523  0.1320  0.7039 -0.4026
18486TIP3    H176949   1.889   1.352  13.609 -0.9840 -0.1452 -0.5286
18486TIP3    H276950   1.859   1.483  13.539 -0.1278  0.5400  0.3563
18487TIP3   OH276951   2.874   4.066  15.204  0.3099  0.5033  0.3996
18487TIP3    H176952   2.836   4.131  15.262  1.6692  0.4817  1.3426
18487TIP3    H276953   2.968   4.083  15.205  0.6760 -1.2971  0.4698
18488TIP3   OH276954   4.112   3.722   1.239 -0.2396 -0.3197  0.2538
18488TIP3    H176955   4.122   3.816   1.256 -0.9447 -0.4113  1.2500
18488TIP3    H276956   4.101   3.716   1.144 -1.6095  0.7511  0.3109
18489TIP3   OH276957   4.953   1.057   3.035 -0.4242  0.2004 -0.3302
18489TIP3    H176958   5.016   1.118   2.997  0.2947  0.3255  1.0127
18489TIP3    H276959   5.004   1.005   3.096 -1.7274  0.7191  1.2537
18490TIP3   OH276960   3.857   6.077   1.991  0.4094  0.3037  0.3090
18490TIP3    H176961   3.786   6.087   1.928  2.0142  0.8661 -1.5077
18490TIP3    H276962   3.876   6.167   2.020 -1.2793 -0.0497  2.8404
18491TIP3   OH276963   5.938   1.905   5.217 -0.2591  0.2594 -0.4865
18491TIP3    H176964   5.871   1.837   5.230  0.0695 -0.4123 -2.0168
18491TIP3    H276965   5.890   1.987   5.222 -0.4891  0.0448  2.5197
18492TIP3   OH276966   5.650   2.481   3.032 -0.1007  0.4656  0.4708
18492TIP3    H176967   5.589   2.438   2.973  1.6523 -2.5718  0.6413
18492TIP3    H276968   5.688   2.552   2.980 -0.8188 -0.1874 -1.0098
18493TIP3   OH276969   6.946   5.330   4.387 -0.5746 -0.5605  0.2535
18493TIP3    H176970   6.957   5.406   4.331 -0.7629 -0.0344  0.9226
18493TIP3    H276971   7.025   5.278   4.374  0.1982  0.4410  0.8531
18494TIP3   OH276972   4.899   3.506   3.228 -0.8661 -0.0317  0.0940
18494TIP3    H176973   4.918   3.575   3.164 -1.0610 -0.8318 -0.8340
18494TIP3    H276974   4.805   3.513   3.243 -0.7828  0.3152  0.5031
18495TIP3   OH276975   5.247   0.253  11.212 -0.3125  0.8408  0.1814
18495TIP3    H176976   5.219   0.183  11.271  1.7329  0.1334  0.4074
18495TIP3    H276977   5.342   0.260  11.227  0.0768  1.4033 -2.2278
18496TIP3   OH276978   2.219   2.216   1.366 -0.1355  0.5850 -0.2531
18496TIP3    H176979   2.309   2.188   1.386 -0.4318  0.2895  0.7112
18496TIP3    H276980   2.182   2.143   1.316  0.4027  1.0457 -1.3555
18497TIP3   OH276981   0.152   5.294   0.604 -0.1619 -0.1904 -0.2926
18497TIP3    H176982   0.098   5.363   0.566  2.1705  1.0713 -1.5164
18497TIP3    H276983   0.224   5.341   0.647  0.4390 -1.8091  0.5466
18498TIP3   OH276984   6.105   1.540  13.198 -0.0398  0.0472  0.4982
18498TIP3    H176985   6.118   1.517  13.106 -2.6947  0.7950 -0.1483
18498TIP3    H276986   6.074   1.459  13.239 -2.3057  0.5159 -0.1408
18499TIP3   OH276987   2.616   5.635   0.730 -0.0826 -0.0497 -0.3262
18499TIP3    H176988   2.575   5.710   0.772  0.9965  0.4177 -0.0532
18499TIP3    H276989   2.617   5.567   0.798 -0.3168 -0.0233 -0.2983
18500TIP3   OH276990   4.470   4.560   2.079 -0.5754 -0.6369  0.0213
18500TIP3    H176991   4.479   4.504   2.157 -1.6392 -0.3370  0.3805
18500TIP3    H276992   4.386   4.604   2.091 -0.6484 -0.4084 -1.1995
18501TIP3   OH276993   0.550   5.517   2.947  0.1507 -0.3181 -0.1758
18501TIP3    H176994   0.592   5.431   2.946  1.9776  0.3463  3.1955
18501TIP3    H276995   0.525   5.530   3.039  0.1922  2.8377 -0.5001
18502TIP3   OH276996   3.648   1.508   3.179 -0.5506  0.2044 -0.3674
18502TIP3    H176997   3.629   1.479   3.269  0.0688 -1.7807 -0.8321
18502TIP3    H276998   3.743   1.514   3.175 -0.6145  1.3616 -0.6113
18503TIP3   OH276999   0.077   3.850   1.684 -0.0581  0.2581 -0.0975
18503TIP3    H177000   0.124   3.905   1.746 -0.6636 -0.1330  0.7190
18503TIP3    H277001   0.058   3.909   1.610 -2.4665  1.8041  1.5861
18504TIP3   OH277002   0.960   4.661   2.526  0.6700  0.1678  0.6754
18504TIP3    H177003   0.954   4.570   2.498  2.9661 -0.0259  0.6401
18504TIP3    H277004   1.051   4.686   2.509  0.4525  2.0610  1.9446
18505TIP3   OH277005   5.632   6.853   4.696 -0.6702 -0.3926 -0.0623
18505TIP3    H177006   5.604   6.935   4.656 -0.3719 -0.6328 -0.7933
18505TIP3    H277007   5.726   6.848   4.677 -0.6617 -0.8467  0.0739
18506TIP3   OH277008   6.368   5.917   4.557  0.5635 -0.1521 -0.0105
18506TIP3    H177009   6.284   5.902   4.513  0.4109  1.3786 -0.3099
18506TIP3    H277010   6.364   6.008   4.586  1.5768 -0.4693  1.2057
18507TIP3   OH277011   0.386   6.469  10.873  0.0546 -0.5035 -0.5772
18507TIP3    H177012   0.359   6.383  10.905  0.0941 -0.7914 -1.3001
18507TIP3    H277013   0.475   6.480  10.908 -0.6716  0.1269  1.1881
18508TIP3   OH277014   1.773   5.175   4.067  0.9321  0.4737  0.2625
18508TIP3    H177015   1.798   5.163   3.976  2.0588 -0.9164  0.7031
18508TIP3    H277016   1.760   5.269   4.077  1.2173  0.6894 -1.2132
18509TIP3   OH277017   6.801   6.310   5.827 -0.3568 -0.3008  0.1067
18509TIP3    H177018   6.846   6.347   5.750 -0.9392  0.6649  0.2133
18509TIP3    H277019   6.771   6.386   5.876  1.1742 -0.8606  2.0376
18510TIP3   OH277020   3.168   4.566  14.645  0.2233 -0.1125 -0.7062
18510TIP3    H177021   3.203   4.652  14.666 -0.4563  0.0636 -0.2381
18510TIP3    H277022   3.098   4.552  14.710 -1.4514  0.1145 -2.3841
18511TIP3   OH277023   5.851   2.179   3.142 -0.1319  0.2847 -0.3445
18511TIP3    H177024   5.783   2.194   3.077 -0.7903 -0.6383  0.1137
18511TIP3    H277025   5.803   2.160   3.223  0.6474 -1.7734 -0.3252
18512TIP3   OH277026   0.581   4.486   2.566 -0.0412  0.4018  0.0604
18512TIP3    H177027   0.657   4.537   2.595 -0.6500  1.0395  0.5641
18512TIP3    H277028   0.521   4.552   2.530  0.1206 -0.2201 -1.4220
18513TIP3   OH277029   1.645   0.781   3.782  0.1131 -0.6327 -0.5863
18513TIP3    H177030   1.696   0.839   3.838 -0.3593 -0.0438 -0.7560
18513TIP3    H277031   1.570   0.755   3.836  0.7275 -1.7359 -0.2326
18514TIP3   OH277032   0.157   0.387   5.428  0.4654 -0.2338  0.2401
18514TIP3    H177033   0.185   0.300   5.398 -1.9505 -1.2323  0.6785
18514TIP3    H277034   0.089   0.413   5.365 -1.2507 -0.2285  1.9961
18515TIP3   OH277035   5.434   0.279   0.082  0.3277 -0.5167 -0.1694
18515TIP3    H177036   5.387   0.335   0.021 -0.8327  1.9308  2.7254
18515TIP3    H277037   5.367   0.250   0.144  1.5489 -2.3544  0.3790
18516TIP3   OH277038   5.098   1.842   2.515  0.2602  0.4239 -0.0700
18516TIP3    H177039   5.128   1.930   2.535 -0.2360  0.2771  1.4494
18516TIP3    H277040   5.173   1.786   2.534  0.9877  0.5766 -2.2026
18517TIP3   OH277041   3.976   3.085   1.013 -0.0910  0.4897  0.4329
18517TIP3    H177042   4.037   3.144   1.056  0.1606  1.1422 -0.7774
18517TIP3    H277043   3.940   3.136   0.940  0.8554 -1.1165 -1.2625
18518TIP3   OH277044   1.442   3.790   2.244 -0.3230 -0.5690  0.0827
18518TIP3    H177045   1.401   3.874   2.265  2.4527  0.8874  0.1729
18518TIP3    H277046   1.433   3.782   2.149  0.4084  0.4760 -0.0973
18519TIP3   OH277047   6.121   2.907   0.042  0.3008  0.3254 -0.1713
18519TIP3    H177048   6.087   2.988   0.080  0.4174  0.1911  0.2229
18519TIP3    H277049   6.063   2.888  -0.032 -0.0593  0.4661  0.0797
18520TIP3   OH277050   3.373   0.410   2.769  0.0276 -0.4480 -0.3362
18520TIP3    H177051   3.323   0.481   2.727  1.2588  0.3058 -0.5535
18520TIP3    H277052   3.419   0.367   2.697  1.5589  0.3750  0.1070
18521TIP3   OH277053   0.203   6.836   3.146 -0.2021 -0.7569 -0.0738
18521TIP3    H177054   0.166   6.894   3.212 -0.6724 -1.4947  0.3196
18521TIP3    H277055   0.137   6.833   3.076 -0.7284 -1.7247  0.4325
18522TIP3   OH277056   1.802   0.651   5.174  0.6682  0.5320 -0.4861
18522TIP3    H177057   1.712   0.672   5.147  0.9886  1.4878 -0.8391
18522TIP3    H277058   1.805   0.676   5.267  0.2567 -0.5495 -0.1646
18523TIP3   OH277059   1.118   1.183   3.299  0.3098 -0.0791  0.4905
18523TIP3    H177060   1.156   1.234   3.228  2.0073 -1.9037  0.0195
18523TIP3    H277061   1.094   1.099   3.259  1.2307 -1.1185  1.9986
18524TIP3   OH277062   2.349   6.508   1.106 -0.0444 -0.3872  0.2273
18524TIP3    H177063   2.274   6.520   1.047  0.2061  3.5747  0.4417
18524TIP3    H277064   2.327   6.560   1.183  2.3295 -0.2745  0.9043
18525TIP3   OH277065   2.448   7.053  11.960 -0.1938 -0.2415 -0.0027
18525TIP3    H177066   2.407   7.118  11.903 -0.5900 -1.4225 -1.0986
18525TIP3    H277067   2.448   7.094  12.046 -0.5172  1.1733 -0.6419
18526TIP3   OH277068   4.799   0.076   2.077 -0.4093  0.3001  0.0571
18526TIP3    H177069   4.800   0.172   2.084 -1.5530  0.3587 -0.4595
18526TIP3    H277070   4.892   0.052   2.077 -0.0223  1.5675 -2.0769
18527TIP3   OH277071   0.341   7.102   6.016 -0.1479 -0.4130  0.0517
18527TIP3    H177072   0.310   7.128   6.103  1.0487 -0.0978  0.4031
18527TIP3    H277073   0.421   7.154   6.003  0.7923 -1.9215 -0.3810
18528TIP3   OH277074   0.581   1.875   4.284 -0.1281  0.1952  0.3767
18528TIP3    H177075   0.533   1.913   4.210 -0.5573  1.9993  1.5114
18528TIP3    H277076   0.514   1.825   4.332 -0.7397  1.9381  1.4392
18529TIP3   OH277077   0.385   0.049   4.150  0.1321  0.0160 -0.0981
18529TIP3    H177078   0.321  -0.013   4.185 -0.5026 -0.3845 -1.8468
18529TIP3    H277079   0.459  -0.005   4.122  0.3146  0.2380 -0.0524
18530TIP3   OH277080   3.786   2.566  15.309 -0.2380  0.7901 -0.4688
18530TIP3    H177081   3.696   2.585  15.335 -0.3895 -1.7039  1.2350
18530TIP3    H277082   3.840   2.628  15.358 -0.8232 -0.8722  2.4808
18531TIP3   OH277083   4.962   0.012   5.647 -0.3869 -0.5179  0.2749
18531TIP3    H177084   5.056   0.030   5.647 -0.5501  0.3847  0.0984
18531TIP3    H277085   4.942  -0.017   5.558 -0.8240  2.4843 -0.7115
18532TIP3   OH277086   6.701   0.093  11.281 -0.7939 -0.4539  0.0824
18532TIP3    H177087   6.785   0.139  11.288  1.1550 -3.9732  2.6389
18532TIP3    H277088   6.709   0.042  11.201 -0.5261 -0.6936  0.2598
18533TIP3   OH277089   4.601   0.251  15.337  0.4024 -0.5884  0.1043
18533TIP3    H177090   4.643   0.336  15.351  1.2029 -1.0357  0.5257
18533TIP3    H277091   4.597   0.241  15.242  0.3306 -0.0933  0.0533
18534TIP3   OH277092   0.835   1.713   2.228  0.2284  0.3064 -0.0279
18534TIP3    H177093   0.845   1.653   2.154 -0.0231  0.9533 -0.5934
18534TIP3    H277094   0.832   1.800   2.189 -1.0459  0.5893  0.6518
18535TIP3   OH277095   2.945   3.900   4.797  0.4347 -0.1772  0.2511
18535TIP3    H177096   2.959   3.952   4.717 -1.1081  0.8208  0.5799
18535TIP3    H277097   2.979   3.813   4.775 -2.0287 -0.6587 -2.4255
18536TIP3   OH277098   1.821   0.929  12.556  0.0897 -0.8674 -1.1603
18536TIP3    H177099   1.818   1.010  12.506  0.5456 -1.1775 -1.7082
18536TIP3    H277100   1.914   0.906  12.559  0.4383  0.4519  1.9955
18537TIP3   OH277101   4.408   2.845   0.724 -0.9536  0.7684 -0.1800
18537TIP3    H177102   4.497   2.839   0.691 -0.5651  0.7645  0.8272
18537TIP3    H277103   4.354   2.857   0.646 -0.2795 -1.0711 -0.9958
18538TIP3   OH277104   5.667   0.229  10.278  0.3734 -0.4431 -0.4211
18538TIP3    H177105   5.708   0.199  10.197  0.5201  0.6094 -0.7553
18538TIP3    H277106   5.740   0.237  10.340  0.6242  0.9162 -0.8601
18539TIP3   OH277107   2.636   1.488   1.727  0.4499 -0.4767 -0.1660
18539TIP3    H177108   2.727   1.472   1.705  0.4414 -1.5369  0.4950
18539TIP3    H277109   2.638   1.517   1.818  0.0985 -0.8152 -0.0495
18540TIP3   OH277110   0.841   5.714   2.210  0.0751 -0.0521 -0.0739
18540TIP3    H177111   0.858   5.794   2.160 -1.3629  0.7251  0.6111
18540TIP3    H277112   0.928   5.687   2.241  0.8469  0.0880 -1.9717
18541TIP3   OH277113   4.958   6.384   2.756 -0.4852 -0.0859 -0.0933
18541TIP3    H177114   4.899   6.330   2.809 -0.2599 -2.1866 -1.8418
18541TIP3    H277115   4.905   6.410   2.681  0.3664 -0.7754 -0.9579
18542TIP3   OH277116   4.242   1.570   2.730 -0.5031  0.0404  0.1268
18542TIP3    H177117   4.292   1.533   2.803  0.0449  0.6766  0.0804
18542TIP3    H277118   4.275   1.524   2.653 -0.0164  0.4232  0.1030
18543TIP3   OH277119   6.149   5.127  13.237  0.5572  0.1908 -0.8181
18543TIP3    H177120   6.109   5.134  13.324  1.7706 -2.5894  0.0946
18543TIP3    H277121   6.114   5.202  13.188  0.0634  2.0339  2.1186
18544TIP3   OH277122   0.926   0.847   0.117  0.1245 -0.4690  0.4052
18544TIP3    H177123   0.915   0.812   0.206  1.4227 -0.1556  0.7109
18544TIP3    H277124   0.989   0.788   0.076  1.6412  0.9386  0.6253
18545TIP3   OH277125   0.266   0.018   3.554 -0.0523 -0.5246  0.3082
18545TIP3    H177126   0.358  -0.010   3.547 -0.1222 -0.4939 -0.9057
18545TIP3    H277127   0.267   0.111   3.532 -0.3671 -0.5181  0.3182
18546TIP3   OH277128   3.773   0.139  14.806 -0.5957  0.0977  0.0749
18546TIP3    H177129   3.844   0.106  14.861  0.2169  1.1130 -0.3479
18546TIP3    H277130   3.748   0.064  14.752 -1.3573 -0.9002  1.7285
18547TIP3   OH277131   3.577   0.849   4.970 -0.0613 -0.1199 -1.0423
18547TIP3    H177132   3.602   0.929   4.924 -1.7018  0.5435 -0.8425
18547TIP3    H277133   3.637   0.844   5.045  1.1681 -0.0232 -1.9891
18548TIP3   OH277134   0.711   6.312   2.335  0.7462 -0.2310 -0.2826
18548TIP3    H177135   0.795   6.280   2.303  1.6901 -0.4782  2.2008
18548TIP3    H277136   0.719   6.408   2.331  0.8795 -0.2616 -0.7140
18549TIP3   OH277137   2.099   0.833   0.262  0.8030  0.3645  0.0091
18549TIP3    H177138   2.076   0.891   0.190 -0.4722 -1.3431 -1.0499
18549TIP3    H277139   2.155   0.766   0.221 -0.7601 -1.1926  0.3295
18550TIP3   OH277140   1.991   1.786  15.593  0.1430  0.1225 -0.0345
18550TIP3    H177141   2.015   1.750  15.508 -1.4003 -2.3959  0.5056
18550TIP3    H277142   2.030   1.726  15.656 -0.4688  0.7747  0.9887
18551TIP3   OH277143   6.830   6.900   1.337  0.4751  0.8477 -0.2339
18551TIP3    H177144   6.793   6.984   1.363  1.4747  0.8869  1.1839
18551TIP3    H277145   6.924   6.916   1.328  0.5730  0.0676 -0.7063
18552TIP3   OH277146   2.437   1.626  13.697 -0.3696  0.3625  0.2084
18552TIP3    H177147   2.400   1.712  13.678 -0.3689  0.6352  1.3420
18552TIP3    H277148   2.530   1.643  13.713  0.5418 -0.4342 -3.4640
18553TIP3   OH277149   3.788   1.157  14.773 -0.1937 -0.2698  0.5328
18553TIP3    H177150   3.735   1.115  14.704 -0.9171 -0.5695  1.2614
18553TIP3    H277151   3.839   1.223  14.726 -2.7037  1.4720  0.0754
18554TIP3   OH277152   3.232   1.987  15.178 -0.5284  0.0400  0.3734
18554TIP3    H177153   3.320   2.022  15.183 -0.8302  0.6943  1.2263
18554TIP3    H277154   3.228   1.944  15.092  0.8756 -0.7273  0.6676
18555TIP3   OH277155   6.155   1.330   2.457  0.7706  0.4870  1.3046
18555TIP3    H177156   6.217   1.272   2.413  0.1387  1.1609 -0.5897
18555TIP3    H277157   6.208   1.402   2.491  1.1408  0.6421  0.4177
18556TIP3   OH277158   4.059   5.556  12.477 -0.0578 -0.1380 -0.4574
18556TIP3    H177159   4.029   5.481  12.529 -0.0692  0.2937  0.1691
18556TIP3    H277160   3.979   5.604  12.456 -0.1262 -0.6484 -1.4319
18557TIP3   OH277161   0.158   2.329   3.844  0.0438 -0.1508  0.0568
18557TIP3    H177162   0.111   2.382   3.779  1.0934  1.1734  0.3349
18557TIP3    H277163   0.099   2.329   3.920  0.7618  2.2519  0.7218
18558TIP3   OH277164   4.628   6.620   1.023 -0.1003  0.5617 -0.1635
18558TIP3    H177165   4.610   6.712   1.004 -1.8240  0.5149  1.0690
18558TIP3    H277166   4.646   6.582   0.937  1.5936  2.1943 -0.6099
18559TIP3   OH277167   1.604   4.795   3.167 -0.8157  0.1727  0.8739
18559TIP3    H177168   1.659   4.827   3.096  0.8961 -0.6668  1.7713
18559TIP3    H277169   1.598   4.701   3.152 -3.0033  0.3585  0.1697
18560TIP3   OH277170   3.464   0.881  14.977 -1.0448  0.3024  0.0068
18560TIP3    H177171   3.439   0.788  14.974 -0.1772  0.0429  0.4649
18560TIP3    H277172   3.503   0.897  14.891  0.4384 -0.2563  0.5439
18561TIP3   OH277173   3.930   0.217  13.548 -0.3297  0.4249 -0.2307
18561TIP3    H177174   3.966   0.293  13.503  0.5531 -0.7589 -1.6206
18561TIP3    H277175   3.930   0.242  13.641  2.2765  1.2417 -0.3658
18562TIP3   OH277176   0.266   0.591   3.428  0.1755  0.8774 -0.0240
18562TIP3    H177177   0.338   0.598   3.366  0.5313 -1.2198  0.0726
18562TIP3    H277178   0.187   0.601   3.375  0.4320 -2.1013 -1.1410
18563TIP3   OH277179   1.206   3.393  15.040 -0.5886 -0.1847  0.1661
18563TIP3    H177180   1.180   3.320  15.096 -0.4096 -0.7549 -0.4827
18563TIP3    H277181   1.124   3.422  14.999 -1.3342  2.3478  3.0936
18564TIP3   OH277182   3.815   6.379   4.305  0.0254 -0.1331  0.4922
18564TIP3    H177183   3.759   6.356   4.232 -1.8531  0.6663  1.6070
18564TIP3    H277184   3.770   6.345   4.382  1.2803  0.1870  1.4023
18565TIP3   OH277185   2.197   2.863   3.545  0.6035 -0.4099 -0.0624
18565TIP3    H177186   2.241   2.885   3.462 -0.9664 -0.1159 -0.8484
18565TIP3    H277187   2.257   2.895   3.613  1.1769  0.8337 -1.1081
18566TIP3   OH277188   0.955   0.037  15.474 -0.8276  0.2088 -0.2381
18566TIP3    H177189   1.025   0.103  15.477 -0.7804  0.3332 -2.7231
18566TIP3    H277190   0.937   0.018  15.567  1.6394  1.0478  0.4909
18567TIP3   OH277191   1.098   2.557   3.061  0.1600 -1.1129  0.3144
18567TIP3    H177192   1.051   2.618   3.004  0.1672 -1.1327  0.2876
18567TIP3    H277193   1.190   2.577   3.047  0.2258 -2.1305 -0.7981
18568TIP3   OH277194   1.859   1.658   5.494  0.0080 -0.0513  0.5017
18568TIP3    H177195   1.774   1.614   5.489 -0.8479  1.5496  0.5010
18568TIP3    H277196   1.904   1.615   5.567 -0.1162 -2.0238 -0.5177
18569TIP3   OH277197   5.098   2.740  15.230 -0.5163  0.2890 -0.3175
18569TIP3    H177198   5.058   2.653  15.236 -0.2482  0.1803 -0.1192
18569TIP3    H277199   5.187   2.728  15.263 -0.4108  0.5940 -0.4879
18570TIP3   OH277200   0.555   4.213  14.026  0.2087 -0.3713 -0.3448
18570TIP3    H177201   0.506   4.169  14.096 -0.0005 -1.8063 -1.3338
18570TIP3    H277202   0.492   4.271  13.985  0.8918  2.2355  1.9968
18571TIP3   OH277203   5.909   1.252   2.109 -0.2192  0.2743 -0.4624
18571TIP3    H177204   5.960   1.183   2.151 -0.5782 -1.7676 -3.0927
18571TIP3    H277205   5.953   1.333   2.133  1.0839 -0.9637  1.5976
18572TIP3   OH277206   2.176   2.624   4.058 -0.1194 -0.3974  0.1779
18572TIP3    H177207   2.269   2.602   4.065  0.0140  0.6290  2.4669
18572TIP3    H277208   2.174   2.709   4.013  0.0280 -0.4914 -0.0072
18573TIP3   OH277209   2.647   6.456   3.236  0.5866  0.0940 -0.2704
18573TIP3    H177210   2.622   6.395   3.305  0.5806  0.0063 -0.3492
18573TIP3    H277211   2.697   6.402   3.174 -0.4233 -0.0944 -0.9431
18574TIP3   OH277212   1.482   0.600   5.576 -0.5555  0.1898 -0.3874
18574TIP3    H177213   1.459   0.570   5.664 -1.7138  2.0945  0.0360
18574TIP3    H277214   1.542   0.673   5.591  0.7853 -0.7005 -1.2809
18575TIP3   OH277215   6.247   3.763   2.912  0.0281 -0.2861  0.6236
18575TIP3    H177216   6.207   3.848   2.891  0.3875  0.3426  2.3650
18575TIP3    H277217   6.249   3.717   2.828 -2.3878  0.4625  0.0823
18576TIP3   OH277218   1.447   1.347   5.801  0.0654  0.2107  0.3724
18576TIP3    H177219   1.424   1.305   5.884  0.2072 -0.5603  0.0245
18576TIP3    H277220   1.512   1.413   5.825 -0.4462  0.5168  0.9762
18577TIP3   OH277221   3.474   2.956  14.751 -0.4916 -0.1789  0.1015
18577TIP3    H177222   3.531   2.885  14.721  0.2996  0.1302  0.8073
18577TIP3    H277223   3.398   2.952  14.694  0.3132 -0.5096 -0.9805
18578TIP3   OH277224   6.440   3.208   5.974  0.1348  0.3403  0.0226
18578TIP3    H177225   6.381   3.273   5.936  0.0319 -0.4844 -1.2911
18578TIP3    H277226   6.527   3.246   5.965  0.2685 -0.3923 -2.3523
18579TIP3   OH277227   5.967   2.988   5.333 -0.0029  0.2990 -0.0589
18579TIP3    H177228   5.955   2.893   5.326  1.5141  0.1677 -1.7120
18579TIP3    H277229   5.957   3.020   5.243  1.9546  1.3531  0.0538
18580TIP3   OH277230   2.476   5.912   4.951  0.2652  0.6180 -0.0102
18580TIP3    H177231   2.464   5.971   5.026  1.9246  0.5680  0.3498
18580TIP3    H277232   2.491   5.971   4.877  1.2395  0.6771  0.2191
18581TIP3   OH277233   4.768   3.918   5.075 -0.4484  0.0679 -0.1361
18581TIP3    H177234   4.674   3.905   5.075 -0.0639 -3.9299 -0.6909
18581TIP3    H277235   4.798   3.880   5.157  0.7669  0.0895 -0.5419
18582TIP3   OH277236   5.309   1.292   2.290 -0.1477  0.3727  0.4680
18582TIP3    H177237   5.282   1.228   2.224 -0.3787  0.0106  0.9119
18582TIP3    H277238   5.227   1.335   2.316  0.1218  1.5721 -0.5640
18583TIP3   OH277239   3.313   6.384   4.640  0.6030 -0.1862 -0.3587
18583TIP3    H177240   3.221   6.363   4.658  0.9425 -1.7770 -0.3590
18583TIP3    H277241   3.332   6.456   4.700 -0.7641  0.4770 -0.6793
18584TIP3   OH277242   6.677   3.315   2.164 -0.0104 -0.2909 -0.5752
18584TIP3    H177243   6.678   3.311   2.069 -0.8786 -1.0411 -0.5679
18584TIP3    H277244   6.701   3.405   2.185  2.2389 -0.6439 -1.4312
18585TIP3   OH277245   5.987   6.572   4.228  0.5225  0.4075 -0.2206
18585TIP3    H177246   6.071   6.603   4.193  0.0242  1.8951 -0.1640
18585TIP3    H277247   5.939   6.652   4.249 -0.0723 -0.4314  1.8182
18586TIP3   OH277248   1.935   0.573   4.902  0.4098 -0.1290  0.7758
18586TIP3    H177249   1.885   0.517   4.961 -0.0326 -0.3281  0.2302
18586TIP3    H277250   1.905   0.662   4.921 -1.0575 -0.3374 -0.3476
18587TIP3   OH277251   5.442   4.322  11.768  0.4231  0.1551 -0.0955
18587TIP3    H177252   5.409   4.266  11.837  3.7810 -0.0187  1.5541
18587TIP3    H277253   5.392   4.403  11.776 -0.8811 -0.7197  0.9141
18588TIP3   OH277254   4.980   0.610   2.441 -0.0396 -0.3050  0.1847
18588TIP3    H177255   4.989   0.573   2.529  1.5716 -1.9718 -0.6031
18588TIP3    H277256   4.895   0.578   2.411 -0.7334  0.5104  1.2107
18589TIP3   OH277257   3.805   6.620   0.492  0.3674  0.2689  0.4971
18589TIP3    H177258   3.718   6.660   0.497  2.1828  5.0125 -0.0896
18589TIP3    H277259   3.845   6.640   0.577  1.4144 -0.4345  0.1846
18590TIP3   OH277260   5.201   6.989   3.755  0.7748 -0.6980 -0.1161
18590TIP3    H177261   5.166   6.923   3.694  2.9208 -0.3943 -1.8387
18590TIP3    H277262   5.250   7.049   3.698 -0.1457  1.7564  1.5463
18591TIP3   OH277263   0.556   0.066   5.317  0.5358 -0.5806  0.7137
18591TIP3    H177264   0.602   0.091   5.237 -0.6827  1.0423  0.4686
18591TIP3    H277265   0.464   0.086   5.299 -0.3070 -3.4452  1.2830
18592TIP3   OH277266   3.522   0.575  14.919 -0.2135  0.1515  0.4450
18592TIP3    H177267   3.580   0.575  14.996  1.7113  3.0645 -0.8180
18592TIP3    H277268   3.558   0.506  14.863  0.5413  0.3156  0.7083
18593TIP3   OH277269   3.663   2.316   4.843 -0.9183 -0.3568  0.2928
18593TIP3    H177270   3.668   2.347   4.752 -0.5402 -0.8327  0.1452
18593TIP3    H277271   3.753   2.296   4.866 -0.7631  1.4068  1.3725
18594TIP3   OH277272   6.163   0.001   0.397  0.1072 -0.3381 -0.1337
18594TIP3    H177273   6.086  -0.053   0.411  0.0515 -0.2138  0.0401
18594TIP3    H277274   6.129   0.090   0.388  0.0551 -0.5017 -1.9082
18595TIP3   OH277275   5.883   6.891  14.538  0.3573 -0.2248  0.0865
18595TIP3    H177276   5.788   6.878  14.537  0.5213 -1.7214 -1.1078
18595TIP3    H277277   5.901   6.935  14.620 -1.3439 -0.1727  0.4681
18596TIP3   OH277278   4.105   1.310   2.341 -0.5730 -0.5413 -0.0000
18596TIP3    H177279   4.198   1.331   2.334 -0.3493 -1.7125 -1.0184
18596TIP3    H277280   4.065   1.389   2.378  0.4320  1.0522 -2.0628
18597TIP3   OH277281   1.965   5.096   1.743  0.1077  0.1589 -0.2470
18597TIP3    H177282   2.000   5.007   1.738 -0.6680 -0.1888  0.4170
18597TIP3    H277283   1.872   5.085   1.764 -0.4940  1.0588 -2.1781
18598TIP3   OH277284   2.903   4.173  12.812 -0.1054 -0.8566 -0.2970
18598TIP3    H177285   2.991   4.208  12.821 -1.3717  2.4511  0.6941
18598TIP3    H277286   2.850   4.223  12.875 -3.1369 -0.8384 -2.6022
18599TIP3   OH277287   1.938   6.839   1.897 -0.1317  0.2990  0.0263
18599TIP3    H177288   1.945   6.895   1.819  0.1224 -0.7078 -0.6968
18599TIP3    H277289   2.023   6.850   1.941 -0.0349  0.3823 -0.1774
18600TIP3   OH277290   3.710   2.052   4.516  0.2907  0.1812 -0.0693
18600TIP3    H177291   3.653   1.992   4.563  0.6687 -1.1153 -1.1692
18600TIP3    H277292   3.789   2.059   4.570 -0.8184  1.9260  1.4186
18601TIP3   OH277293   3.510   1.609   0.814  0.7091 -0.6326 -0.2370
18601TIP3    H177294   3.599   1.608   0.779  0.1464 -0.7855 -1.7393
18601TIP3    H277295   3.463   1.670   0.758 -0.2621 -0.9323  0.2289
18602TIP3   OH277296   2.599   2.436  14.997  0.6415 -0.2033 -0.5173
18602TIP3    H177297   2.535   2.496  15.035  0.6486  0.6120 -1.7275
18602TIP3    H277298   2.600   2.361  15.056 -1.0809 -0.0284 -0.2175
18603TIP3   OH277299   5.375   1.872   5.048 -0.5280 -0.0468 -0.0147
18603TIP3    H177300   5.435   1.893   5.119 -1.4986 -0.2182  0.8836
18603TIP3    H277301   5.404   1.787   5.015  0.7994  0.6765 -0.8091
18604TIP3   OH277302   3.349   5.935   4.821  0.6105  0.1990  0.4902
18604TIP3    H177303   3.410   5.887   4.765 -0.1928 -1.3705  0.9078
18604TIP3    H277304   3.299   5.867   4.866 -0.5852  1.4379  1.1042
18605TIP3   OH277305   5.403   1.954   2.724  0.2275  0.4791 -0.3369
18605TIP3    H177306   5.447   1.970   2.808 -1.2717 -0.8172  0.7825
18605TIP3    H277307   5.466   1.903   2.673  1.1028  1.1432  0.0626
18606TIP3   OH277308   4.349   4.166   1.020 -0.1892 -0.0752  0.4229
18606TIP3    H177309   4.362   4.137   1.111 -1.1022  0.3920  0.7091
18606TIP3    H277310   4.434   4.203   0.996  0.6471 -1.8722  0.4366
18607TIP3   OH277311   5.779   3.971   3.954 -0.3719 -0.0362 -0.1360
18607TIP3    H177312   5.787   4.063   3.980  0.4997  0.4391 -1.9277
18607TIP3    H277313   5.685   3.953   3.959 -0.4046  0.4019  1.8688
18608TIP3   OH277314   6.607   0.822  11.787 -0.1469  0.2120 -0.1494
18608TIP3    H177315   6.666   0.888  11.823 -0.5069 -0.3789  1.5848
18608TIP3    H277316   6.658   0.741  11.789  0.3120  0.3721 -2.3117
18609TIP3   OH277317   0.745   0.953  15.486 -0.2597  0.3646 -0.6354
18609TIP3    H177318   0.665   0.955  15.433 -1.9927  1.3648  1.8169
18609TIP3    H277319   0.771   1.044  15.495  0.1578  0.1929 -0.0092
18610TIP3   OH277320   6.974   2.425   2.835  0.4712  0.1327 -0.0666
18610TIP3    H177321   7.054   2.413   2.783  0.3974  0.1193 -0.1789
18610TIP3    H277322   6.925   2.344   2.824 -0.1910  0.6399 -1.1158
18611TIP3   OH277323   5.242   5.192  15.465 -0.8016 -0.5516  0.3075
18611TIP3    H177324   5.170   5.242  15.427 -1.4763 -0.4709  1.6399
18611TIP3    H277325   5.200   5.114  15.501  0.0487 -1.4178 -0.5011
18612TIP3   OH277326   1.812   1.268   2.491 -0.0676  0.5822  0.5118
18612TIP3    H177327   1.807   1.296   2.582  0.4549  0.4249  0.5932
18612TIP3    H277328   1.852   1.180   2.495 -1.6100 -0.1576  0.2596
18613TIP3   OH277329   2.637   5.865   3.869  0.0226  0.2392  0.3450
18613TIP3    H177330   2.585   5.876   3.789 -0.6372  2.0718  0.9700
18613TIP3    H277331   2.721   5.906   3.849 -0.2689  1.0227  0.6838
18614TIP3   OH277332   2.039   5.580   0.523  0.8041 -0.2915  0.2253
18614TIP3    H177333   2.049   5.546   0.434 -2.0306  2.3848 -1.3149
18614TIP3    H277334   2.091   5.660   0.525 -0.3242  0.4612  0.4213
18615TIP3   OH277335   6.019   5.425   3.921 -0.0122  0.0926 -0.0365
18615TIP3    H177336   6.078   5.361   3.880  0.6174  0.8781 -0.3823
18615TIP3    H277337   5.933   5.384   3.917  0.2562 -0.4082 -0.9464
18616TIP3   OH277338   3.679   0.009   3.897 -0.2511 -0.1516 -0.2043
18616TIP3    H177339   3.679   0.037   3.988 -1.9094  1.4343 -0.6451
18616TIP3    H277340   3.647  -0.081   3.899  0.5021 -0.4213  0.8125
18617TIP3   OH277341   6.482   3.255   3.320  0.0981  0.2746 -0.1396
18617TIP3    H177342   6.416   3.315   3.286 -0.7584 -0.2042  0.6247
18617TIP3    H277343   6.533   3.229   3.244 -0.3547  0.9371 -0.6831
18618TIP3   OH277344   4.104   1.090  15.643 -0.0250 -0.0770  0.1091
18618TIP3    H177345   4.044   1.035  15.693  0.0960 -0.2721  0.0397
18618TIP3    H277346   4.093   1.061  15.553 -1.1814  1.1324 -0.1644
18619TIP3   OH277347   2.839   0.423  15.163 -0.7847 -0.1467 -0.0032
18619TIP3    H177348   2.808   0.333  15.153 -0.5466 -0.1132 -1.1099
18619TIP3    H277349   2.899   0.420  15.238  0.5897 -1.2782 -1.0992
18620TIP3   OH277350   1.734   2.180   3.244  0.4790  0.1323 -0.1165
18620TIP3    H177351   1.709   2.100   3.199  0.1621  0.4374 -0.4792
18620TIP3    H277352   1.652   2.219   3.273  0.6947 -0.2872  1.1272
18621TIP3   OH277353   3.547   5.908   5.520 -0.0900 -0.5636 -0.1596
18621TIP3    H177354   3.558   6.002   5.501  0.0495 -0.4109  0.6587
18621TIP3    H277355   3.499   5.874   5.444 -0.6605  0.2889 -0.1982
18622TIP3   OH277356   1.591   1.245   5.001  0.4306  0.2174  0.3235
18622TIP3    H177357   1.643   1.306   4.950 -0.6640  1.0161  0.1336
18622TIP3    H277358   1.596   1.277   5.091  1.7464 -0.7637  0.6317
18623TIP3   OH277359   2.220   4.877  15.532  0.5683 -0.5806  0.0417
18623TIP3    H177360   2.189   4.791  15.506 -0.0965 -0.0952 -0.8517
18623TIP3    H277361   2.142   4.933  15.528  1.0201  0.0987  0.4324
18624TIP3   OH277362   4.436   3.724   4.450  0.6430  0.0440 -0.3572
18624TIP3    H177363   4.352   3.754   4.414  1.2868  0.8674 -1.2347
18624TIP3    H277364   4.478   3.677   4.378  1.3861  0.5648 -0.2772
18625TIP3   OH277365   1.307   2.570  13.020  0.1212 -0.2046 -0.4907
18625TIP3    H177366   1.320   2.665  13.017 -0.6727 -0.1159 -1.6397
18625TIP3    H277367   1.314   2.548  13.113 -1.3513  1.2315 -0.0006
18626TIP3   OH277368   2.921   0.863   4.237  0.0548  0.1467  0.1465
18626TIP3    H177369   2.847   0.923   4.244 -1.7335 -1.0864 -4.3501
18626TIP3    H277370   2.885   0.787   4.191  3.8241 -1.0227 -1.2138
18627TIP3   OH277371   0.202   2.658   5.191 -0.0878  0.2159 -0.2977
18627TIP3    H177372   0.235   2.571   5.167  1.2721  0.6710 -0.1315
18627TIP3    H277373   0.246   2.678   5.274 -0.7263  0.8974 -0.1090
18628TIP3   OH277374   5.644   2.347   3.888  0.2362  0.4484  0.6377
18628TIP3    H177375   5.625   2.394   3.969  0.0360 -0.3552  1.0617
18628TIP3    H277376   5.671   2.259   3.916  1.1659  0.4703 -0.1176
18629TIP3   OH277377   5.998   4.781   0.245 -0.3933  0.2278  0.0760
18629TIP3    H177378   5.915   4.807   0.205 -0.4964  0.9974  0.7533
18629TIP3    H277379   5.974   4.746   0.331 -0.1216 -0.7890 -0.2460
18630TIP3   OH277380   6.971   0.856   3.641  0.4034 -0.8680  0.1688
18630TIP3    H177381   6.930   0.942   3.650  1.9825  0.0201 -0.5524
18630TIP3    H277382   6.898   0.794   3.636 -0.7938  0.5165 -0.1240
18631TIP3   OH277383   6.238   4.074   3.445 -0.4682 -0.0657 -0.0544
18631TIP3    H177384   6.282   4.005   3.395  1.1427  1.2873 -0.5851
18631TIP3    H277385   6.286   4.077   3.528 -0.7239  0.2076  0.0851
18632TIP3   OH277386   4.370   4.302   1.982  0.2695 -0.1005  0.2678
18632TIP3    H177387   4.323   4.267   2.058  0.8625 -0.4063  0.4997
18632TIP3    H277388   4.360   4.397   1.989  2.0072  0.0252  1.8612
18633TIP3   OH277389   4.929   1.988  15.520 -0.4980  0.1870  0.1185
18633TIP3    H177390   4.958   1.985  15.611  1.5572 -1.1487 -0.4953
18633TIP3    H277391   5.004   2.026  15.473 -0.4165 -1.6420 -1.3334
18634TIP3   OH277392   0.570   5.110  15.540  0.5027  0.6678 -0.5524
18634TIP3    H177393   0.619   5.032  15.513  1.8420  0.5611  1.9165
18634TIP3    H277394   0.483   5.078  15.562  1.1150 -0.2080  0.6738
18635TIP3   OH277395   0.056   4.203  12.771  0.5450  0.1319  0.1202
18635TIP3    H177396   0.048   4.251  12.854 -2.2687  1.1772 -0.6552
18635TIP3    H277397  -0.013   4.137  12.775  0.4090  0.1479 -1.3557
18636TIP3   OH277398   3.275   2.909   3.516  0.3020 -0.0996 -0.7631
18636TIP3    H177399   3.205   2.972   3.497 -0.8525 -0.7575  1.0761
18636TIP3    H277400   3.320   2.945   3.592  1.7731  0.1023 -1.6808
18637TIP3   OH277401   5.669   6.098  11.164  0.5241 -0.6520 -0.3069
18637TIP3    H177402   5.664   6.068  11.254 -1.2715  1.0748  0.2457
18637TIP3    H277403   5.759   6.130  11.154  0.6035 -0.3958  1.0429
18638TIP3   OH277404   4.060   4.994   4.043 -0.3790  0.6239  0.3438
18638TIP3    H177405   4.111   4.930   3.994 -1.2182  0.7832 -0.7719
18638TIP3    H277406   4.125   5.038   4.099  0.7617  1.0031 -1.2188
18639TIP3   OH277407   5.963   4.523   4.929 -0.4316 -0.6786  0.1877
18639TIP3    H177408   6.020   4.597   4.949 -1.5576 -0.3043  2.2915
18639TIP3    H277409   5.925   4.545   4.843  2.1396 -0.7374 -1.0583
18640TIP3   OH277410   0.813   5.200   3.814  0.3236  0.1745  0.3474
18640TIP3    H177411   0.809   5.109   3.843 -0.6672 -0.1856 -0.8464
18640TIP3    H277412   0.733   5.213   3.764  2.2886  0.4504 -3.0634
18641TIP3   OH277413   1.069   5.042   4.481 -0.1442  0.0842 -0.3523
18641TIP3    H177414   1.037   5.132   4.470 -0.3808 -0.1381 -1.7151
18641TIP3    H277415   1.164   5.050   4.485 -0.2209  0.5103  1.0045
18642TIP3   OH277416   2.679   6.346  12.711 -0.6672  0.6543  0.8559
18642TIP3    H177417   2.708   6.423  12.662 -0.2167  0.5340  0.9301
18642TIP3    H277418   2.585   6.359  12.722 -0.7008  0.8967  0.3352
18643TIP3   OH277419   1.833   5.700   3.640  0.0158 -0.4385 -0.7574
18643TIP3    H177420   1.845   5.763   3.568 -0.5781  0.0290 -0.4544
18643TIP3    H277421   1.877   5.621   3.609  1.1992  0.2641 -0.9471
18644TIP3   OH277422   1.663   0.117  13.798 -0.7269  0.6288 -0.2234
18644TIP3    H177423   1.690   0.183  13.862  0.6356  0.3925 -0.5356
18644TIP3    H277424   1.610   0.055  13.849  1.9268 -0.6463  1.2167
18645TIP3   OH277425   1.510   3.731   2.545  0.1889  0.2166  0.6829
18645TIP3    H177426   1.470   3.752   2.460 -1.4004 -0.2635  1.2767
18645TIP3    H277427   1.546   3.643   2.533  2.3642  1.1748 -0.2703
18646TIP3   OH277428   0.176   6.566   0.639  0.4044  0.4080  0.5403
18646TIP3    H177429   0.247   6.612   0.593  0.0427  0.1277 -0.3178
18646TIP3    H277430   0.221   6.504   0.697  0.8728 -0.5520 -0.8002
18647TIP3   OH277431   4.593   1.417   0.422  0.6164 -0.5719  0.1903
18647TIP3    H177432   4.564   1.438   0.511 -1.2203  1.2130 -0.7412
18647TIP3    H277433   4.686   1.397   0.431  0.7275  0.5977  2.3768
18648TIP3   OH277434   4.575   6.113   4.070 -0.4765  0.0327  0.5250
18648TIP3    H177435   4.625   6.187   4.037  0.2353  0.1080  1.7084
18648TIP3    H277436   4.639   6.044   4.083 -1.2294 -1.0434 -1.1874
18649TIP3   OH277437   6.603   5.756   1.695 -0.1823  0.1982  0.0073
18649TIP3    H177438   6.548   5.703   1.752 -1.2188  2.0527  0.8292
18649TIP3    H277439   6.613   5.703   1.615 -2.5740 -0.5213  0.1134
18650TIP3   OH277440   6.529   5.400   0.162  0.5109  0.0323 -0.7155
18650TIP3    H177441   6.544   5.349   0.082 -0.1990  1.0592 -1.5360
18650TIP3    H277442   6.434   5.407   0.168  0.5937  2.4694 -1.4487
18651TIP3   OH277443   6.047   5.444  15.468  0.1016  0.0882  0.7625
18651TIP3    H177444   6.043   5.540  15.475 -2.8052  0.1157  0.2967
18651TIP3    H277445   6.055   5.414  15.558 -2.1286  0.7943  1.2577
18652TIP3   OH277446   2.574   3.798   2.100 -0.2102  0.4141  0.3055
18652TIP3    H177447   2.639   3.794   2.030 -0.8026 -1.4187 -0.2063
18652TIP3    H277448   2.608   3.737   2.166 -0.4460  0.9345  0.9124
18653TIP3   OH277449   6.954   0.185   0.908  0.3315 -0.0663 -0.5812
18653TIP3    H177450   7.033   0.138   0.884  0.6949  0.2606 -0.0386
18653TIP3    H277451   6.918   0.216   0.825  1.1432  0.3720 -0.7773
18654TIP3   OH277452   6.993   3.950   0.576 -0.0125  0.3261  0.1216
18654TIP3    H177453   7.011   3.980   0.487 -1.5571  1.2062  0.0551
18654TIP3    H277454   7.079   3.939   0.616  0.6816  1.6034 -0.9429
18655TIP3   OH277455   6.975   0.429   4.764  0.3766 -0.2980  0.1175
18655TIP3    H177456   6.935   0.343   4.780 -1.2490  0.1580 -1.1668
18655TIP3    H277457   6.983   0.469   4.850 -0.1140 -1.2061  0.5992
18656TIP3   OH277458   2.100   6.209   1.675  0.0759 -0.4995 -0.4513
18656TIP3    H177459   2.070   6.205   1.766  0.5353  2.0468 -0.1217
18656TIP3    H277460   2.028   6.248   1.627  0.3461 -0.5751 -0.9303
18657TIP3   OH277461   2.185   5.456   4.608  0.4574 -0.3175 -0.1218
18657TIP3    H177462   2.206   5.362   4.615 -0.3498 -0.4834  0.1523
18657TIP3    H277463   2.269   5.497   4.587  0.8512 -1.0860 -0.1065
18658TIP3   OH277464   5.017   1.983   1.593  0.4576 -0.0005  0.0348
18658TIP3    H177465   5.051   1.893   1.589 -0.1421 -0.1908 -1.4385
18658TIP3    H277466   5.008   2.001   1.687  0.0105 -1.7028  0.3540
18659TIP3   OH277467   1.445   1.626   1.439 -0.1398 -0.6057  0.3863
18659TIP3    H177468   1.462   1.581   1.357 -1.0238 -2.6898  1.2633
18659TIP3    H277469   1.409   1.558   1.497  0.1514  0.8440  2.3986
18660TIP3   OH277470   4.059   4.184   5.679  0.7212  0.0728  0.2019
18660TIP3    H177471   4.033   4.275   5.660  0.6364 -0.2688 -1.4252
18660TIP3    H277472   3.998   4.156   5.748 -1.2354  0.3185 -1.3297
18661TIP3   OH277473   5.506   0.610   4.025  0.4953  0.5295 -0.4082
18661TIP3    H177474   5.445   0.546   3.988  0.6997 -0.9758  1.6773
18661TIP3    H277475   5.490   0.690   3.974 -2.2773 -0.1740 -0.8182
18662TIP3   OH277476   6.184   0.207   2.671 -0.8398 -0.1432  0.1522
18662TIP3    H177477   6.207   0.298   2.652  0.8405 -0.1100  2.0302
18662TIP3    H277478   6.231   0.156   2.606 -0.9903  0.2686 -0.2853
18663TIP3   OH277479   4.188   0.807   3.593  0.2875  0.1317 -0.1286
18663TIP3    H177480   4.172   0.875   3.658  2.3756  0.7356 -0.1678
18663TIP3    H277481   4.157   0.844   3.510  0.7190  0.7478 -0.0210
18664TIP3   OH277482   0.564   3.903   4.122  0.1044 -0.0798  0.2579
18664TIP3    H177483   0.481   3.910   4.076  0.1211  0.3379  0.2876
18664TIP3    H277484   0.592   3.994   4.136  0.7689 -0.2185 -0.1252
18665TIP3   OH277485   2.281   6.998   3.099  0.2362  0.5232  0.1651
18665TIP3    H177486   2.196   7.033   3.128  0.9257  2.9140 -0.4127
18665TIP3    H277487   2.273   6.993   3.004  0.7740  0.9522  0.0912
18666TIP3   OH277488   2.616   5.825  13.072  0.0511 -0.1993 -0.3146
18666TIP3    H177489   2.604   5.902  13.017 -0.4176  0.3626  0.5537
18666TIP3    H277490   2.528   5.804  13.105  0.1774 -1.0717 -0.4930
18667TIP3   OH277491   3.122   5.777   4.875 -0.0034 -0.0120 -0.2959
18667TIP3    H177492   3.094   5.826   4.797 -0.7112  0.5506  0.3008
18667TIP3    H277493   3.067   5.699   4.876 -1.7642  1.1701  0.9651
18668TIP3   OH277494   6.976   6.983   4.826 -0.6316  0.2243 -0.0686
18668TIP3    H177495   7.044   7.051   4.827 -1.7860  1.4220  0.5034
18668TIP3    H277496   6.953   6.973   4.734  0.7557 -0.6881 -0.3492
18669TIP3   OH277497   1.609   6.021  15.019  0.0131 -0.0228  0.0237
18669TIP3    H177498   1.695   6.042  14.983 -0.7601  4.3216  0.1427
18669TIP3    H277499   1.623   6.013  15.113  0.2897  1.1187  0.0981
18670TIP3   OH277500   3.769   2.926  15.625 -0.0759 -0.6662 -0.0384
18670TIP3    H177501   3.824   3.002  15.647 -1.5910  0.4803 -0.0713
18670TIP3    H277502   3.747   2.887  15.710 -0.1076 -0.4875  0.0348
18671TIP3   OH277503   2.976   2.946   1.989 -0.1850 -0.4132  0.1767
18671TIP3    H177504   2.885   2.919   1.999  0.0060 -1.6667 -1.0809
18671TIP3    H277505   2.996   2.926   1.897  2.0078 -2.3507  0.9775
18672TIP3   OH277506   0.434   6.562   4.561 -0.4502  0.2558  0.4852
18672TIP3    H177507   0.401   6.476   4.534  0.0371  0.4145 -0.7068
18672TIP3    H277508   0.357   6.619   4.557 -0.4238  0.2468 -0.5359
18673TIP3   OH277509   5.572   6.704   4.154 -0.8251 -0.0237  0.0667
18673TIP3    H177510   5.508   6.707   4.225  1.1960 -3.3891  2.2856
18673TIP3    H277511   5.633   6.776   4.174 -2.2638  1.4013 -0.4738
18674TIP3   OH277512   4.822   5.098   3.865 -0.3645  0.7022  0.2153
18674TIP3    H177513   4.804   5.077   3.957  0.6704  2.8210  0.9430
18674TIP3    H277514   4.909   5.138   3.865 -0.7300  1.6141 -1.5507
18675TIP3   OH277515   2.490   1.359   6.181  0.1029  0.3728 -0.0864
18675TIP3    H177516   2.417   1.342   6.241  0.3373 -0.6425 -0.0591
18675TIP3    H277517   2.493   1.454   6.172 -0.3404  0.5039  1.0103
18676TIP3   OH277518   1.573   2.635   2.322 -0.2092 -0.5718 -0.4324
18676TIP3    H177519   1.536   2.557   2.282  1.9261 -0.8417 -2.0700
18676TIP3    H277520   1.662   2.609   2.348  1.0024  1.5637 -2.1051
18677TIP3   OH277521   6.727   4.222   2.060 -0.0239 -0.0123 -0.1276
18677TIP3    H177522   6.778   4.173   2.126 -0.3666  1.7716  1.5464
18677TIP3    H277523   6.669   4.278   2.111 -1.9211 -0.1609 -1.9945
18678TIP3   OH277524   5.578   5.199   4.599  0.4281 -0.6060  0.0995
18678TIP3    H177525   5.512   5.240   4.656  1.6700 -0.7879  1.7684
18678TIP3    H277526   5.543   5.112   4.582 -1.0689  0.2316 -1.4193
18679TIP3   OH277527   3.410   2.367  15.000 -0.4670 -0.1814  0.0765
18679TIP3    H177528   3.413   2.375  15.095 -0.1760 -1.2179  0.1730
18679TIP3    H277529   3.321   2.392  14.976 -1.9563 -3.9009  1.0877
18680TIP3   OH277530   6.265   0.762  15.389 -0.0658  0.0441  0.8348
18680TIP3    H177531   6.311   0.802  15.315  0.0842 -0.3273  0.7273
18680TIP3    H277532   6.287   0.817  15.464 -0.7997  0.8555  0.4754
18681TIP3   OH277533   4.164   0.968  15.386  0.5968 -0.1809 -0.5032
18681TIP3    H177534   4.116   0.885  15.386 -2.1001  1.2655  0.5202
18681TIP3    H277535   4.124   1.018  15.314  1.2989  0.7075 -0.2878
18682TIP3   OH277536   6.457   0.119   3.778  0.1365  0.2071  0.4646
18682TIP3    H177537   6.547   0.124   3.808  0.9373 -1.1870 -1.4958
18682TIP3    H277538   6.407   0.089   3.854  1.4257  0.3210  1.3756
18683TIP3   OH277539   0.375   5.511   4.890 -0.5029  0.6415 -0.1216
18683TIP3    H177540   0.465   5.524   4.919  0.0702 -1.0339 -0.9907
18683TIP3    H277541   0.359   5.582   4.828  1.9396 -1.5131 -3.6006
18684TIP3   OH277542   6.177   4.241  14.281 -0.2632 -0.0004  0.4269
18684TIP3    H177543   6.176   4.252  14.186 -0.2440 -0.0582  0.4195
18684TIP3    H277544   6.257   4.192  14.298  0.0730  0.5822  0.5395
18685TIP3   OH277545   6.319   3.211   0.252 -0.4512 -0.5538 -0.2559
18685TIP3    H177546   6.282   3.260   0.325 -1.0141 -0.5592 -0.5319
18685TIP3    H277547   6.260   3.230   0.179  1.2324  1.0872 -1.2524
18686TIP3   OH277548   3.645   3.120  10.754  0.3230  0.0659  0.0215
18686TIP3    H177549   3.611   3.032  10.772  0.1685 -0.1076 -1.0688
18686TIP3    H277550   3.578   3.160  10.698  1.4859  0.0243 -1.4457
18687TIP3   OH277551   5.605   5.008   3.512 -0.0453 -0.0340 -0.3623
18687TIP3    H177552   5.550   5.085   3.498  0.2930  0.2976  0.1129
18687TIP3    H277553   5.677   5.039   3.567 -0.7063 -1.0084  1.1348
18688TIP3   OH277554   0.998   6.251   9.160  0.5123  0.5650 -0.0453
18688TIP3    H177555   0.939   6.239   9.234  0.3763 -1.4349 -0.4259
18688TIP3    H277556   0.972   6.335   9.122 -2.0927 -0.2336 -0.1928
18689TIP3   OH277557   4.086   1.516  13.320 -0.7322  0.0244 -0.3184
18689TIP3    H177558   4.163   1.487  13.368 -0.7296  0.9294  0.2473
18689TIP3    H277559   4.113   1.598  13.278 -1.4095  0.4065 -0.0254
18690TIP3   OH277560   1.607   6.037  15.303 -0.0252  0.2021  0.0394
18690TIP3    H177561   1.522   6.078  15.293 -0.4737 -0.9816 -1.3595
18690TIP3    H277562   1.588   5.946  15.327  0.7536 -0.4906 -1.7852
18691TIP3   OH277563   3.511   1.259  14.095 -0.0305 -0.2419  0.3818
18691TIP3    H177564   3.492   1.172  14.131 -0.7007 -1.0781 -1.7693
18691TIP3    H277565   3.457   1.319  14.147  0.5520 -1.0613  2.0028
18692TIP3   OH277566   2.402   0.387  12.093  0.9977 -0.4408  0.7174
18692TIP3    H177567   2.451   0.399  12.012  0.4679 -0.0108  0.4576
18692TIP3    H277568   2.370   0.475  12.115 -2.4068 -1.1511 -0.8680
18693TIP3   OH277569   7.079   3.067   5.749 -0.5812  0.1176 -0.1313
18693TIP3    H177570   7.154   3.110   5.789  0.6208 -0.5033 -1.5923
18693TIP3    H277571   7.014   3.062   5.819  0.3487  1.5712  0.9016
18694TIP3   OH277572   2.853   5.779  12.004 -0.1658 -0.2744 -0.1514
18694TIP3    H177573   2.855   5.861  11.955 -0.8038 -0.9120 -1.2873
18694TIP3    H277574   2.794   5.723  11.955 -1.0795 -0.8574  1.5433
18695TIP3   OH277575   5.350   3.064   4.225 -0.2327  0.4361  0.4854
18695TIP3    H177576   5.443   3.067   4.204 -0.8200 -0.2423 -2.6712
18695TIP3    H277577   5.328   2.971   4.228 -0.6481  0.5441  2.4044
18696TIP3   OH277578   0.382   0.710   3.163  0.6070  0.3563 -0.3224
18696TIP3    H177579   0.360   0.779   3.225 -0.8491 -0.4597  0.1165
18696TIP3    H277580   0.458   0.743   3.115  2.1068  0.8100  2.2151
18697TIP3   OH277581   6.769   3.528   3.032  0.3695  0.3828 -0.0578
18697TIP3    H177582   6.714   3.606   3.025 -0.7278 -0.3849 -0.1277
18697TIP3    H277583   6.737   3.483   3.110  1.5725  0.4358  0.4805
18698TIP3   OH277584   6.748   0.854  10.701 -0.5272 -0.4218 -0.0252
18698TIP3    H177585   6.690   0.859  10.626 -0.2655  0.4123 -0.1837
18698TIP3    H277586   6.743   0.763  10.729 -2.1997 -0.2815  0.2118
18699TIP3   OH277587   1.510   1.327   3.680  0.3138  0.1618  0.0598
18699TIP3    H177588   1.445   1.311   3.748  1.8823 -1.9648  1.1774
18699TIP3    H277589   1.586   1.276   3.706  3.2158  3.8936 -0.1761
18700TIP3   OH277590   5.742   1.837   0.838 -0.0225  0.0763  0.2534
18700TIP3    H177591   5.824   1.791   0.857  0.2519  1.2581  2.2431
18700TIP3    H277592   5.700   1.845   0.924 -1.8621  0.1900 -0.6227
18701TIP3   OH277593   1.985   5.511   2.804 -0.1485  0.2897 -0.2191
18701TIP3    H177594   2.050   5.452   2.842 -1.2006  0.1441  1.4626
18701TIP3    H277595   2.036   5.582   2.766  1.1878 -1.7525 -2.5648
18702TIP3   OH277596   1.378   5.477   4.571  0.5690 -0.2361  0.3189
18702TIP3    H177597   1.286   5.451   4.573  0.0092  1.4356 -0.7173
18702TIP3    H277598   1.412   5.438   4.491  0.3403  0.3305 -0.0640
18703TIP3   OH277599   0.364   6.218   3.241 -0.5113 -0.0094 -1.0561
18703TIP3    H177600   0.281   6.171   3.238 -1.0567  0.9072 -0.8631
18703TIP3    H277601   0.340   6.310   3.226 -0.1028  0.9188  2.7003
18704TIP3   OH277602   7.053   4.671  11.301  0.1802  0.0977  0.5366
18704TIP3    H177603   7.009   4.724  11.367 -0.5131  1.9725 -1.3417
18704TIP3    H277604   7.102   4.606  11.352 -2.8112 -0.6293  2.8019
18705TIP3   OH277605   1.209   3.411   4.099  0.6756  0.0971  0.2208
18705TIP3    H177606   1.233   3.322   4.076  1.6162  0.7251 -1.4257
18705TIP3    H277607   1.133   3.430   4.043  1.7959  1.0006 -1.0696
18706TIP3   OH277608   4.798   0.987   0.575 -0.1511  0.0115  0.5536
18706TIP3    H177609   4.742   1.040   0.632 -0.2055 -1.9850  2.5064
18706TIP3    H277610   4.887   1.021   0.590 -0.3733  0.6619  0.4278
18707TIP3   OH277611   5.064   1.562  15.327  0.6711 -0.8462 -0.5224
18707TIP3    H177612   4.987   1.506  15.318 -0.0505  0.1762 -0.8949
18707TIP3    H277613   5.052   1.630  15.262  1.5078 -0.2200 -0.0435
18708TIP3   OH277614   5.040   5.212   3.170  0.1665 -0.1901  0.6266
18708TIP3    H177615   5.126   5.215   3.128  0.1415 -1.7241  0.4370
18708TIP3    H277616   4.994   5.289   3.136  1.3057  0.4250  0.4212
18709TIP3   OH277617   3.634   2.792   2.869  0.3428 -0.3082  0.2004
18709TIP3    H177618   3.565   2.741   2.827  1.7936 -0.7469 -1.7968
18709TIP3    H277619   3.698   2.726   2.897  0.7653  0.1972  0.4434
18710TIP3   OH277620   0.021   2.995  10.273  0.4229  0.3685 -0.0267
18710TIP3    H177621   0.077   2.956  10.339  0.8057  0.6955 -0.1570
18710TIP3    H277622  -0.028   3.062  10.320  0.5388  0.4557 -0.0312
18711TIP3   OH277623   1.154   1.184   4.088 -0.4002 -0.5609  0.0932
18711TIP3    H177624   1.157   1.105   4.035 -1.1607  0.3893 -1.4493
18711TIP3    H277625   1.068   1.221   4.070 -0.1792  0.4581  1.0304
18712TIP3   OH277626   1.928   4.135   2.854 -0.1264 -0.2221 -0.6021
18712TIP3    H177627   2.023   4.135   2.868 -0.0431 -0.2618 -1.1397
18712TIP3    H277628   1.897   4.055   2.897 -0.1177  0.5190  0.8321
18713TIP3   OH277629   1.867   5.717   3.014  0.3327  0.1150 -0.1541
18713TIP3    H177630   1.868   5.749   2.924 -2.1286 -1.5562 -0.8755
18713TIP3    H277631   1.959   5.710   3.038  1.0496  2.9952 -1.5850
18714TIP3   OH277632   4.379   2.266  12.840  0.2875 -0.5810  0.3277
18714TIP3    H177633   4.339   2.353  12.843  0.6184 -0.3969 -0.3278
18714TIP3    H277634   4.310   2.206  12.868  0.3064 -0.0285  1.6385
18715TIP3   OH277635   3.984   3.309  15.139 -0.3027  0.1170  0.3607
18715TIP3    H177636   4.045   3.238  15.156 -0.9192 -0.6208 -0.4250
18715TIP3    H277637   3.930   3.278  15.067 -0.0047  1.7450 -0.6103
18716TIP3   OH277638   4.755   3.992  15.143 -0.5134  0.1181 -0.0200
18716TIP3    H177639   4.838   3.965  15.183 -0.2251  0.4419 -0.3980
18716TIP3    H277640   4.765   3.972  15.050 -0.3199  1.4590 -0.3055
18717TIP3   OH277641   1.826   6.261   1.285  0.2736  0.0137  0.0413
18717TIP3    H177642   1.838   6.180   1.236 -3.3956 -0.2062 -0.8033
18717TIP3    H277643   1.857   6.330   1.226 -1.5294 -0.4540 -1.5358
18718TIP3   OH277644   1.546   3.990   2.000  0.3452  0.1879  0.2016
18718TIP3    H177645   1.524   4.068   2.051  1.1142  0.2526  0.4544
18718TIP3    H277646   1.641   3.994   1.989  0.4487 -0.8795  0.5061
18719TIP3   OH277647   2.118   6.384   0.230  0.0982 -0.8332 -0.2269
18719TIP3    H177648   2.166   6.406   0.151 -0.1944 -1.2994 -0.5450
18719TIP3    H277649   2.043   6.443   0.230  0.7210 -0.0178  0.3372
18720TIP3   OH277650   5.228   3.299   4.763  0.3847  0.5499  0.2865
18720TIP3    H177651   5.168   3.269   4.695 -0.6741  0.5223  1.2163
18720TIP3    H277652   5.313   3.263   4.737 -0.3466 -1.0428 -0.0293
18721TIP3   OH277653   5.157   4.048   3.522  0.0627 -0.3945  0.0109
18721TIP3    H177654   5.218   4.049   3.449 -0.3634 -0.1343 -0.3525
18721TIP3    H277655   5.092   3.982   3.498 -0.1475 -0.2195  0.0947
18722TIP3   OH277656   3.973   1.012   4.050 -0.2089  0.3528 -0.0347
18722TIP3    H177657   3.959   1.039   4.141  0.4450  0.3177  0.0833
18722TIP3    H277658   3.900   0.953   4.031  0.7430 -1.2901  1.1573
18723TIP3   OH277659   2.290   4.080   4.118 -0.1446 -0.3019  0.3321
18723TIP3    H177660   2.315   4.128   4.039 -0.1200 -1.1877 -0.2110
18723TIP3    H277661   2.342   4.120   4.188 -1.2437  1.4768  0.1827
18724TIP3   OH277662   0.848   2.573   4.092  0.3807  0.0265 -0.3035
18724TIP3    H177663   0.893   2.654   4.066  1.7200 -0.6511 -0.2138
18724TIP3    H277664   0.758   2.600   4.109  0.8243  1.5250 -0.1547
18725TIP3   OH277665   4.684   5.797   4.512  0.7863 -0.5394  0.4927
18725TIP3    H177666   4.714   5.785   4.423  2.3612  0.1427  0.9019
18725TIP3    H277667   4.632   5.718   4.531 -1.3795  0.2366 -1.6749
18726TIP3   OH277668   4.691   6.915  10.536 -0.2209 -0.2245  0.5666
18726TIP3    H177669   4.668   6.932  10.445  1.3263 -0.2273  0.1460
18726TIP3    H277670   4.706   6.820  10.539  1.0326 -0.0556  0.4682
18727TIP3   OH277671   1.452   0.627   5.312  0.1482 -0.0337 -0.4249
18727TIP3    H177672   1.541   0.598   5.295  0.5265  0.3877  0.7427
18727TIP3    H277673   1.434   0.597   5.401  0.1024  2.1822  0.3692
18728TIP3   OH277674   1.334   2.540  11.559  0.0413  0.0129  0.5355
18728TIP3    H177675   1.311   2.610  11.621  0.4201  0.5976  0.0312
18728TIP3    H277676   1.256   2.487  11.552 -0.4450  0.7205  0.4966
18729TIP3   OH277677   3.503   0.991  14.513  0.1990  0.1786  1.2155
18729TIP3    H177678   3.598   0.995  14.505  0.0512  1.8467 -0.5303
18729TIP3    H277679   3.487   0.942  14.593  2.4466 -2.7365  0.0322
18730TIP3   OH277680   6.461   6.675   3.910  0.0438 -0.3037 -0.4717
18730TIP3    H177681   6.479   6.642   3.822  1.0028 -0.1330 -0.3512
18730TIP3    H277682   6.466   6.770   3.903 -1.2499 -0.2258 -0.5092
18731TIP3   OH277683   0.644   1.326   0.047  0.1342 -0.0732  0.5160
18731TIP3    H177684   0.700   1.288  -0.021  2.9751  2.1639  1.3876
18731TIP3    H277685   0.566   1.354  -0.000  1.5314  0.3996 -1.6852
18732TIP3   OH277686   2.641   0.642   3.422  0.3333  0.5291 -0.3058
18732TIP3    H177687   2.586   0.564   3.432  0.8302  0.1234 -0.6835
18732TIP3    H277688   2.686   0.630   3.339  1.7983  0.3258  0.4794
18733TIP3   OH277689   3.084   1.608   4.000  0.0466 -0.3738 -0.0335
18733TIP3    H177690   3.102   1.522   3.961 -0.0099 -0.4410  0.0892
18733TIP3    H277691   3.147   1.666   3.957 -2.2801  0.2927 -2.8312
18734TIP3   OH277692   4.405   4.969  11.387  0.0374 -0.0610 -0.0238
18734TIP3    H177693   4.457   4.991  11.464  0.4284 -1.0491  0.0164
18734TIP3    H277694   4.392   5.052  11.342  0.8631  0.3425  0.4596
18735TIP3   OH277695   6.293   6.040   2.658 -0.6018 -0.1244  0.1636
18735TIP3    H177696   6.382   6.010   2.676 -0.8503 -0.7600  0.3830
18735TIP3    H277697   6.288   6.042   2.562  0.7830  3.4460  0.0254
18736TIP3   OH277698   2.096   6.993   4.700  0.4554 -0.7459 -0.8280
18736TIP3    H177699   2.153   7.025   4.770  0.5103 -0.5000 -0.9831
18736TIP3    H277700   2.156   6.972   4.629  0.3259 -0.1679 -1.1125
18737TIP3   OH277701   5.778   2.999  11.568  0.2436 -0.0745  0.1415
18737TIP3    H177702   5.768   2.910  11.603 -4.0198 -0.2116 -0.8136
18737TIP3    H277703   5.785   3.054  11.645 -0.7210 -1.0099  0.9359
18738TIP3   OH277704   6.178   0.506   1.827  0.1621  0.5863 -0.1877
18738TIP3    H177705   6.140   0.471   1.747 -0.2963 -2.2671  1.1447
18738TIP3    H277706   6.103   0.521   1.885  0.6111  0.5350  0.4228
18739TIP3   OH277707   3.433   5.237   1.370 -0.4136  0.4341 -0.2614
18739TIP3    H177708   3.353   5.284   1.348 -0.5527  0.4140  0.1951
18739TIP3    H277709   3.421   5.150   1.332  0.4572  1.1733 -2.3926
18740TIP3   OH277710   0.875   3.966  12.529  0.5351  0.7549  0.2097
18740TIP3    H177711   0.940   3.934  12.591  1.6445 -0.3475 -1.4525
18740TIP3    H277712   0.903   4.056  12.510  3.2637 -0.4927 -2.4574
18741TIP3   OH277713   6.835   6.211   4.184  0.3335  0.2685  0.0884
18741TIP3    H177714   6.894   6.239   4.115 -0.1236  1.3490  0.1261
18741TIP3    H277715   6.748   6.241   4.156 -0.4010 -2.0861 -0.4262
18742TIP3   OH277716   4.529   1.807   4.036 -0.2777  0.3919 -0.2897
18742TIP3    H177717   4.589   1.839   3.969  3.2909 -0.8004  2.0637
18742TIP3    H277718   4.505   1.719   4.006 -0.1486  0.5284 -0.8157
18743TIP3   OH277719   0.709   0.604   2.848 -0.2024 -0.1434  0.0017
18743TIP3    H177720   0.731   0.642   2.763  0.1039  0.5796  0.3891
18743TIP3    H277721   0.674   0.678   2.898  0.6855 -0.3023  0.8751
18744TIP3   OH277722   5.261   4.868   2.777 -0.2937 -0.3730 -0.3711
18744TIP3    H177723   5.224   4.809   2.843 -0.3006  0.4666  0.4082
18744TIP3    H277724   5.354   4.876   2.801 -0.2759 -0.1340 -0.5131
18745TIP3   OH277725   2.815   6.195  13.445  0.3082  0.4785  0.2840
18745TIP3    H177726   2.730   6.219  13.480  0.5403  0.8661  0.5825
18745TIP3    H277727   2.798   6.174  13.353  0.0151  1.2756  0.1492
18746TIP3   OH277728   6.718   4.215  15.266 -0.0605  0.1411  0.0241
18746TIP3    H177729   6.732   4.253  15.353  3.4560 -0.3448 -0.2207
18746TIP3    H277730   6.742   4.123  15.275 -0.5617 -0.1541 -1.2928
18747TIP3   OH277731   1.015   2.640  14.921 -0.9160 -0.4935 -0.1282
18747TIP3    H177732   0.950   2.581  14.882 -1.1157 -2.3476  2.7437
18747TIP3    H277733   1.089   2.583  14.943  0.8858  1.2057 -1.3907
18748TIP3   OH277734   3.736   4.768  10.604 -0.1307  0.5942 -0.2474
18748TIP3    H177735   3.654   4.814  10.622  0.6923  1.0223  3.0611
18748TIP3    H277736   3.796   4.836  10.573 -0.7054  0.4572 -1.7235
18749TIP3   OH277737   0.426   6.341   0.531 -0.0428 -0.1422  0.3474
18749TIP3    H177738   0.417   6.435   0.512 -1.2791 -0.2181  0.5042
18749TIP3    H277739   0.455   6.303   0.448  0.2766  0.3502  0.2270
18750TIP3   OH277740   1.138   6.584  14.194 -0.2135 -0.3205  0.0770
18750TIP3    H177741   1.142   6.491  14.173  0.8998  0.0770 -1.7377
18750TIP3    H277742   1.228   6.608  14.215 -0.3875  0.4662 -0.0365
18751TIP3   OH277743   5.686   4.715   3.509  0.3523 -0.2315  0.0947
18751TIP3    H177744   5.620   4.784   3.506  1.5954  0.9788 -0.4017
18751TIP3    H277745   5.730   4.726   3.593 -0.0970 -1.0739  0.4551
18752TIP3   OH277746   3.147   6.795  13.908 -0.4806 -0.0782  0.7405
18752TIP3    H177747   3.182   6.726  13.964 -0.9195 -0.6570  0.3238
18752TIP3    H277748   3.109   6.748  13.834 -0.5992  0.6296  0.3424
18753TIP3   OH277749   0.242   3.501   4.795  0.0405 -0.1370 -0.1646
18753TIP3    H177750   0.182   3.426   4.795  0.6180 -0.6203 -0.8426
18753TIP3    H277751   0.290   3.493   4.877  1.9629 -2.0902 -1.3869
18754TIP3   OH277752   0.195   2.152   0.146  0.3264  0.0285 -0.5910
18754TIP3    H177753   0.285   2.171   0.117  0.7024 -1.4176 -0.4426
18754TIP3    H277754   0.142   2.160   0.067  0.3658  2.0268 -0.4694
18755TIP3   OH277755   7.008   1.433   4.503 -0.2836  0.2538 -0.3916
18755TIP3    H177756   6.964   1.391   4.577 -0.9936  2.5752  0.5921
18755TIP3    H277757   7.099   1.441   4.531  0.0367 -1.2143 -0.9049
18756TIP3   OH277758   4.997   5.062  15.292  0.1856  0.4298 -0.3560
18756TIP3    H177759   4.934   5.135  15.285  1.3860  1.4414 -0.9738
18756TIP3    H277760   5.024   5.063  15.384 -1.5777 -0.8081  0.2295
18757TIP3   OH277761   0.770   5.439  14.699  0.0676  0.4002  0.0946
18757TIP3    H177762   0.756   5.386  14.777 -0.2430  0.6551  0.2144
18757TIP3    H277763   0.794   5.376  14.631  2.2307  0.3337  0.8366
18758TIP3   OH277764   5.660   1.185   4.197  0.6182  0.4403  0.2298
18758TIP3    H177765   5.706   1.230   4.268  0.4848  1.9056 -0.5861
18758TIP3    H277766   5.584   1.145   4.240 -0.5961  3.0198  0.6271
18759TIP3   OH277767   3.351   1.782   4.056 -0.3222 -0.3360  0.2676
18759TIP3    H177768   3.366   1.726   4.132 -2.1850  0.3709  1.2218
18759TIP3    H277769   3.366   1.871   4.089  1.3033 -0.1328 -0.8798
18760TIP3   OH277770   1.348   3.463   1.777 -0.1359  0.0842 -0.9671
18760TIP3    H177771   1.414   3.473   1.708 -0.4162  1.8682 -1.0039
18760TIP3    H277772   1.269   3.436   1.731  0.2165 -0.8299 -1.0654
18761TIP3   OH277773   0.102   4.166  13.970  0.2718  0.0878  0.2358
18761TIP3    H177774   0.078   4.232  13.905  2.1837 -0.9267 -1.5896
18761TIP3    H277775   0.020   4.122  13.990 -0.8309  2.1272  0.5570
18762TIP3   OH277776   6.093   3.498   0.429  0.2662  0.0811  0.3886
18762TIP3    H177777   6.036   3.532   0.499  0.5378 -0.3864  0.8438
18762TIP3    H277778   6.090   3.403   0.440  0.8982  0.0388  0.2320
18763TIP3   OH277779   5.195   6.993   0.109  0.0107 -0.1248 -0.2133
18763TIP3    H177780   5.115   6.988   0.162  1.1398  2.2903  1.9456
18763TIP3    H277781   5.170   6.955   0.025 -2.9726 -0.7752  0.8243
18764TIP3   OH277782   5.303   0.591   0.966  0.4578  0.0651  0.9404
18764TIP3    H177783   5.276   0.596   1.058  1.7706  0.0505  1.3499
18764TIP3    H277784   5.398   0.578   0.970  0.5113 -0.0738 -0.4234
18765TIP3   OH277785   5.395   0.707   1.785 -0.0366  0.4883 -0.1672
18765TIP3    H177786   5.463   0.773   1.772  1.3937 -1.0554 -0.8226
18765TIP3    H277787   5.336   0.719   1.711  1.2260 -0.1317 -1.3152
18766TIP3   OH277788   1.191   5.156  15.471 -0.1497 -0.0257 -0.1100
18766TIP3    H177789   1.277   5.114  15.477 -0.0906  0.0552 -0.3634
18766TIP3    H277790   1.140   5.099  15.414 -0.0970  0.2001 -0.3845
18767TIP3   OH277791   2.779   3.246   0.791 -0.2350 -0.5055  0.2152
18767TIP3    H177792   2.714   3.181   0.817 -1.1982 -0.1950 -1.3098
18767TIP3    H277793   2.754   3.325   0.840 -0.8664 -0.4597 -0.1732
18768TIP3   OH277794   7.111   4.529   1.684 -0.1293  0.3477 -0.0684
18768TIP3    H177795   7.105   4.488   1.598  2.0771 -0.1074 -0.0673
18768TIP3    H277796   7.049   4.479   1.738 -1.0254  0.1869 -1.2043
18769TIP3   OH277797   3.251   3.535   0.586 -0.5308  0.5452  0.6321
18769TIP3    H177798   3.199   3.504   0.659 -1.0050  2.8570  1.3729
18769TIP3    H277799   3.298   3.611   0.621 -2.1274  2.8497 -1.8478
18770TIP3   OH277800   0.331   4.194   1.624  0.0000 -0.0200 -0.0275
18770TIP3    H177801   0.280   4.128   1.671  0.4106  1.1546  2.1999
18770TIP3    H277802   0.265   4.254   1.589 -0.2840 -0.4132 -0.1775
18771TIP3   OH277803   3.511   6.318   4.453 -0.2048 -0.1552  0.1702
18771TIP3    H177804   3.469   6.366   4.381 -0.7139 -1.7423 -0.6314
18771TIP3    H277805   3.457   6.338   4.530  0.5045  1.7784  0.2097
18772TIP3   OH277806   2.073   2.327   5.279  0.1493 -0.2896 -0.3288
18772TIP3    H177807   2.033   2.414   5.289 -0.6645 -0.8498  1.6200
18772TIP3    H277808   2.161   2.337   5.314  1.2463  0.5053 -3.0564
18773TIP3   OH277809   0.139   0.298   3.808  0.5819 -0.0374  0.7310
18773TIP3    H177810   0.211   0.241   3.835 -0.1018 -1.8507 -0.9939
18773TIP3    H277811   0.176   0.353   3.739  0.6204 -0.1504  0.6607
18774TIP3   OH277812   1.694   2.464   5.551  0.3080  0.1377 -0.0983
18774TIP3    H177813   1.632   2.491   5.619 -1.0701 -0.8735 -0.9024
18774TIP3    H277814   1.780   2.479   5.589 -0.4230  1.0550  1.2714
18775TIP3   OH277815   6.032   2.751   4.133 -0.0807  0.8136  0.5259
18775TIP3    H177816   6.033   2.658   4.109 -1.4882  1.1757 -1.1683
18775TIP3    H277817   5.952   2.762   4.183  0.4700  0.9865  1.3819
18776TIP3   OH277818   4.273   6.731   4.036  0.3811  0.4573  0.4396
18776TIP3    H177819   4.258   6.736   3.941 -0.7428  1.8314  0.6643
18776TIP3    H277820   4.205   6.786   4.074  2.5946  2.4528  1.8585
18777TIP3   OH277821   5.195   5.381   2.853  0.3815 -0.1141 -0.6961
18777TIP3    H177822   5.178   5.473   2.874  1.7244 -0.0353  0.1568
18777TIP3    H277823   5.108   5.345   2.836 -0.4198  0.8023  1.1141
18778TIP3   OH277824   3.743   5.154   4.031  0.3606  0.0380  0.4030
18778TIP3    H177825   3.648   5.165   4.030  0.2946 -0.5195 -0.0799
18778TIP3    H277826   3.777   5.241   4.050 -0.2311  0.3780 -0.0622
18779TIP3   OH277827   1.791   5.891   3.436 -0.0497  0.3058  0.2808
18779TIP3    H177828   1.759   5.979   3.455 -1.3568 -0.2951  0.9879
18779TIP3    H277829   1.775   5.879   3.342 -0.7232  0.4969  0.3672
18780TIP3   OH277830   2.269   1.284   4.123  0.2066  0.2739  0.8286
18780TIP3    H177831   2.347   1.330   4.157 -0.3504  1.3505  0.6928
18780TIP3    H277832   2.214   1.270   4.200  0.6695 -0.7981  0.9815
18781TIP3   OH277833   0.789   2.669   3.457  0.0800 -0.0040  0.4732
18781TIP3    H177834   0.774   2.642   3.367  0.3864  0.6263  0.2311
18781TIP3    H277835   0.881   2.650   3.473  0.8938  2.7500 -0.3843
18782TIP3   OH277836   5.440   0.001  13.864 -0.0720  0.1248  0.4942
18782TIP3    H177837   5.399  -0.074  13.907 -0.5328 -0.5095 -0.9964
18782TIP3    H277838   5.446  -0.024  13.772 -0.1402  1.8814 -0.0255
18783TIP3   OH277839   6.143   2.724   0.270  0.4963 -0.2862 -0.1259
18783TIP3    H177840   6.127   2.786   0.199  0.6104  0.2656  0.3207
18783TIP3    H277841   6.208   2.768   0.326 -0.7948  0.0094  1.1945
18784TIP3   OH277842   1.170   6.228   0.338 -0.2180 -0.1362  0.2394
18784TIP3    H177843   1.220   6.196   0.413  1.1881 -1.0908 -1.0550
18784TIP3    H277844   1.131   6.149   0.299  0.6140  0.0876 -1.1049
18785TIP3   OH277845   3.020   1.068   2.295  0.2158 -0.1109 -0.2681
18785TIP3    H177846   2.957   1.137   2.274  1.4316  2.5683  3.8291
18785TIP3    H277847   3.106   1.108   2.279  0.9787 -1.7366 -0.4554
18786TIP3   OH277848   1.959   5.820   2.130 -0.2272  0.4228  0.1565
18786TIP3    H177849   1.933   5.876   2.056  0.7446  2.5067  1.2919
18786TIP3    H277850   2.044   5.785   2.104 -0.4777  0.0905 -0.2319
18787TIP3   OH277851   2.943   3.591  12.992  0.1618  0.2779 -0.1671
18787TIP3    H177852   2.892   3.598  13.073 -0.2674  0.6315 -0.4608
18787TIP3    H277853   3.034   3.580  13.022  0.0796  0.9213  0.3690
18788TIP3   OH277854   3.718   3.716   4.729  0.2367  0.2150  0.5733
18788TIP3    H177855   3.709   3.749   4.818 -0.8296 -0.5511  0.7596
18788TIP3    H277856   3.658   3.769   4.677  0.8682  0.6715  0.2927
18789TIP3   OH277857   4.844   6.485   0.158 -0.1679  0.6689 -0.3227
18789TIP3    H177858   4.771   6.473   0.219  1.9349 -2.1467  1.8920
18789TIP3    H277859   4.898   6.553   0.198 -0.5174  1.3669 -0.9830
18790TIP3   OH277860   6.818   2.253   5.270  0.4209  0.2890 -0.0929
18790TIP3    H177861   6.776   2.325   5.222  0.5863  1.7993  1.8738
18790TIP3    H277862   6.843   2.292   5.354 -0.1299 -2.2719  1.3709
18791TIP3   OH277863   2.571   4.918   3.510  0.1335  0.3469 -0.4066
18791TIP3    H177864   2.503   4.967   3.557 -0.0507  0.0040 -0.3153
18791TIP3    H277865   2.587   4.841   3.564 -1.3103 -0.9574 -1.7317
18792TIP3   OH277866   5.629   0.442  13.252 -0.2466  0.3255 -0.2369
18792TIP3    H177867   5.655   0.488  13.172  1.8661  0.8623  0.6995
18792TIP3    H277868   5.612   0.512  13.316  0.0218 -0.1306  0.3461
18793TIP3   OH277869   3.352   4.094  15.248  0.0539  0.3130  0.1687
18793TIP3    H177870   3.354   4.044  15.166  1.5400  0.5547  0.0391
18793TIP3    H277871   3.429   4.064  15.297 -0.1189  1.0819  0.9347
18794TIP3   OH277872   1.506   5.786  15.382 -0.1238 -0.7457  0.1867
18794TIP3    H177873   1.415   5.763  15.361 -0.8314  0.8367  1.3644
18794TIP3    H277874   1.519   5.750  15.470 -0.2330  0.5717  0.7652
18795TIP3   OH277875   5.765   2.778  11.739 -0.2039  0.3780  0.2126
18795TIP3    H177876   5.847   2.732  11.757 -1.4624 -1.9549  0.4594
18795TIP3    H277877   5.742   2.820  11.822 -0.3150 -0.7969  0.7940
18796TIP3   OH277878   4.194   0.117   4.937 -0.4620 -0.2701  0.3326
18796TIP3    H177879   4.243   0.036   4.923  1.8321  1.0373  0.3777
18796TIP3    H277880   4.191   0.127   5.032 -0.4904 -0.1540  0.3197
18797TIP3   OH277881   1.648   5.421   3.123  0.0033 -0.6102  0.1510
18797TIP3    H177882   1.653   5.334   3.083 -0.8497 -0.3455 -0.5539
18797TIP3    H277883   1.662   5.482   3.051 -1.5588 -0.1325  0.2166
18798TIP3   OH277884   1.554   6.271   4.123 -0.0781 -0.5063  0.2180
18798TIP3    H177885   1.507   6.257   4.041 -1.0375  0.9096  0.4922
18798TIP3    H277886   1.509   6.345   4.164  1.0950 -0.4646  1.4913
18799TIP3   OH277887   0.116   4.900   4.863 -0.0618  0.1932  0.2035
18799TIP3    H177888   0.186   4.941   4.813  1.3030 -1.8276  0.3614
18799TIP3    H277889   0.044   4.891   4.800  1.1516 -1.0836 -1.0722
18800TIP3   OH277890   4.532   4.251   5.307 -0.0716 -0.1111  0.3178
18800TIP3    H177891   4.578   4.261   5.390  0.1567  0.2470  0.1530
18800TIP3    H277892   4.479   4.172   5.317  0.9546 -0.8157  0.3351
18801TIP3   OH277893   5.237   1.717   2.763  0.1092 -0.6388 -0.1724
18801TIP3    H177894   5.266   1.808   2.757 -1.0437 -0.3097 -4.6646
18801TIP3    H277895   5.317   1.666   2.770  0.8832  0.6082  0.4483
18802TIP3   OH277896   5.865   4.590   3.906  0.3295 -0.7845 -0.0197
18802TIP3    H177897   5.922   4.657   3.867 -0.9962 -0.1673 -0.9820
18802TIP3    H277898   5.909   4.507   3.887  2.0064 -0.2246  1.1969
18803TIP3   OH277899   5.746   5.397   1.760  0.3523  0.3854 -0.9210
18803TIP3    H177900   5.675   5.355   1.712 -0.9180 -1.1758  2.0936
18803TIP3    H277901   5.703   5.461   1.816  1.1968 -0.6522  1.0230
18804TIP3   OH277902   1.866   2.552   1.988  0.0092  0.1189 -0.0825
18804TIP3    H177903   1.802   2.613   1.952 -0.4835 -1.4206 -2.0033
18804TIP3    H277904   1.931   2.608   2.032 -2.8989  1.7290  2.6208
18805TIP3   OH277905   0.796   1.750   3.857 -0.4904  0.2807  0.0293
18805TIP3    H177906   0.840   1.692   3.795 -0.5850  1.4403 -1.1683
18805TIP3    H277907   0.703   1.742   3.835 -1.0695 -2.4360  2.7783
18806TIP3   OH277908   5.349   3.312   4.348  0.1394 -0.2328  0.4707
18806TIP3    H177909   5.261   3.321   4.311 -0.2756  3.3521  1.8739
18806TIP3    H277910   5.378   3.226   4.320 -3.0003 -0.7522 -1.7732
18807TIP3   OH277911   0.719   6.843  14.973 -0.2522 -0.4262 -0.5558
18807TIP3    H177912   0.650   6.818  14.911  0.5481 -2.0540 -0.8517
18807TIP3    H277913   0.775   6.765  14.979  0.7382  0.3449  0.7979
18808TIP3   OH277914   4.324   4.758   0.667 -0.3860 -0.3236 -0.4028
18808TIP3    H177915   4.281   4.715   0.593 -1.1691 -0.5560  0.1759
18808TIP3    H277916   4.417   4.753   0.647 -0.5713 -0.7615 -1.1728
18809TIP3   OH277917   1.580   6.854  14.690 -0.0191  0.2370 -0.2842
18809TIP3    H177918   1.628   6.881  14.613  0.1419  2.6236  0.5548
18809TIP3    H277919   1.534   6.933  14.719  0.9878 -0.1637  2.8077
18810TIP3   OH277920   6.116   2.367   3.453 -0.0416  0.0515 -0.1104
18810TIP3    H177921   6.124   2.283   3.496  1.9507 -0.5142 -1.4530
18810TIP3    H277922   6.106   2.346   3.360 -1.2285  1.2807 -0.3009
18811TIP3   OH277923   5.803   4.291   2.844 -0.5221  0.0456 -0.0602
18811TIP3    H177924   5.837   4.276   2.755 -0.3988  2.3387 -0.4556
18811TIP3    H277925   5.879   4.318   2.895 -0.8599  0.2271  0.3510
18812TIP3   OH277926   1.999   2.934   0.426 -0.1249  0.3543 -0.2747
18812TIP3    H177927   1.988   2.853   0.377  0.2431  1.0768 -1.6141
18812TIP3    H277928   2.076   2.919   0.482 -0.3552 -0.3797 -0.1532
18813TIP3   OH277929   3.917   0.868  14.749 -0.0027 -0.2310  0.7021
18813TIP3    H177930   3.880   0.780  14.749 -0.2188 -0.1755 -1.2419
18813TIP3    H277931   3.886   0.907  14.667 -0.3620  1.8569  1.7548
18814TIP3   OH277932   4.079   1.624   1.247 -0.5276 -0.1258 -0.3709
18814TIP3    H177933   4.173   1.632   1.262 -0.5141  1.6914 -1.1807
18814TIP3    H277934   4.070   1.545   1.194  0.7995  0.7614 -2.0395
18815TIP3   OH277935   4.103   4.180   2.764 -0.5604 -0.3419  0.5475
18815TIP3    H177936   4.182   4.225   2.734 -0.3621 -0.1979  1.2537
18815TIP3    H277937   4.124   4.087   2.756 -1.7589 -0.4601 -3.0204
18816TIP3   OH277938   1.591   4.514  14.813 -0.2643  0.7804 -0.1061
18816TIP3    H177939   1.539   4.486  14.889  0.6725  3.2940  1.5770
18816TIP3    H277940   1.531   4.566  14.760 -0.2623  1.1085  0.2155
18817TIP3   OH277941   5.817   4.049   1.848  0.2968  0.0840 -0.2408
18817TIP3    H177942   5.869   4.012   1.776  0.8444  1.1342 -0.3969
18817TIP3    H277943   5.784   4.132   1.814  0.4596  0.5393  0.6797
18818TIP3   OH277944   3.460   1.238  10.674 -0.4553  0.4040  0.7156
18818TIP3    H177945   3.467   1.251  10.769  1.4504  1.1413  0.5032
18818TIP3    H277946   3.501   1.315  10.636  0.1220 -0.5632 -0.7034
18819TIP3   OH277947   2.742   1.331  14.503 -0.3093  0.1461 -0.2819
18819TIP3    H177948   2.725   1.388  14.428  0.0443  2.0469  1.0013
18819TIP3    H277949   2.786   1.388  14.566 -2.7416 -0.6742  2.3403
18820TIP3   OH277950   5.909   0.437   5.648 -0.2667 -0.1786 -0.1460
18820TIP3    H177951   5.971   0.505   5.622  0.7510 -1.1926 -0.4483
18820TIP3    H277952   5.823   0.475   5.630  0.1923  1.6125  1.1531
18821TIP3   OH277953   2.563   6.068  14.605 -0.2128  0.0968 -0.3154
18821TIP3    H177954   2.654   6.044  14.625 -0.2958  1.0161  1.3722
18821TIP3    H277955   2.568   6.160  14.580 -0.4530 -0.3925 -2.3167
18822TIP3   OH277956   0.745   6.010   3.593 -0.4506  0.2443 -0.0258
18822TIP3    H177957   0.819   5.993   3.534  0.6532  0.1520  1.3485
18822TIP3    H277958   0.737   5.931   3.645 -0.6584  0.7689  0.7482
18823TIP3   OH277959   5.670   6.482   2.421  0.0217 -0.3341 -0.1158
18823TIP3    H177960   5.677   6.397   2.378  0.7493  0.7278 -2.2186
18823TIP3    H277961   5.761   6.505   2.443  0.0836  0.7206 -1.3430
18824TIP3   OH277962   2.860   1.397   5.653 -0.6698 -0.2017 -0.8163
18824TIP3    H177963   2.954   1.386   5.671 -0.7430 -0.3864 -0.5451
18824TIP3    H277964   2.853   1.487   5.622 -0.5947  0.3046  0.5437
18825TIP3   OH277965   4.122   6.075   3.193  0.1935 -0.7951  0.0812
18825TIP3    H177966   4.169   6.148   3.231 -0.1607 -0.0615 -0.8389
18825TIP3    H277967   4.135   6.002   3.254 -0.7559  0.4394  1.8367
18826TIP3   OH277968   5.614   3.479   3.579 -0.9331 -0.1166  0.8729
18826TIP3    H177969   5.681   3.547   3.565  0.1143 -1.1075  0.9516
18826TIP3    H277970   5.531   3.524   3.563 -0.1539  0.2332 -3.3413
18827TIP3   OH277971   5.902   2.355  11.875 -0.2717  0.4705 -0.0980
18827TIP3    H177972   5.971   2.360  11.940  0.8396 -0.2370 -1.1853
18827TIP3    H277973   5.821   2.359  11.926  0.5505 -0.7212  1.4002
18828TIP3   OH277974   2.172   4.403   5.828 -0.1947  0.2689  0.1043
18828TIP3    H177975   2.081   4.376   5.838 -0.3241 -0.2618 -2.0188
18828TIP3    H277976   2.221   4.346   5.888 -1.1129 -0.3740  0.2537
18829TIP3   OH277977   1.023   1.974   1.691 -0.1633 -0.0701  0.5326
18829TIP3    H177978   0.966   2.016   1.626  0.5662  0.6016  0.3025
18829TIP3    H277979   1.098   1.942   1.640 -0.5405 -1.3719  0.7601
18830TIP3   OH277980   6.673   6.500   5.415 -0.1725 -0.1224  0.0183
18830TIP3    H177981   6.589   6.506   5.460  0.1197 -0.1128  0.5644
18830TIP3    H277982   6.679   6.582   5.366 -0.0393  0.3118  0.7556
18831TIP3   OH277983   3.574   1.123   4.105 -0.3601 -0.0355 -0.3282
18831TIP3    H177984   3.640   1.150   4.169 -1.1126 -0.7426  0.7745
18831TIP3    H277985   3.491   1.140   4.149 -0.9435 -4.5267  0.7225
18832TIP3   OH277986   4.586   5.020  14.249 -0.2377 -0.9875  0.1582
18832TIP3    H177987   4.560   5.017  14.341 -0.8032  0.1736  0.0587
18832TIP3    H277988   4.505   5.043  14.203 -0.0366 -1.8814 -0.6684
18833TIP3   OH277989   0.157   2.613   1.231 -0.5723 -0.0584  0.0061
18833TIP3    H177990   0.170   2.592   1.139 -1.4029  1.9299 -0.6069
18833TIP3    H277991   0.213   2.689   1.247 -0.2286 -0.5390  1.2303
18834TIP3   OH277992   6.280   1.101   0.454 -0.0169  0.3116 -0.2834
18834TIP3    H177993   6.309   1.011   0.470  0.8234  0.9381  2.1129
18834TIP3    H277994   6.301   1.117   0.362  1.3883 -1.3799 -0.3004
18835TIP3   OH277995   6.139   0.447   5.114 -0.0087 -0.3616  0.2080
18835TIP3    H177996   6.194   0.483   5.046  0.7015  0.4362  1.1715
18835TIP3    H277997   6.154   0.353   5.111  0.4116 -0.2765 -0.3770
18836TIP3   OH277998   3.300   2.323   0.225 -0.0900  0.1421  0.5334
18836TIP3    H177999   3.288   2.332   0.131 -0.1143  1.1513  0.6151
18836TIP3    H278000   3.293   2.229   0.242 -1.8817  0.1028 -0.2136
18837TIP3   OH278001   4.696   0.585  14.048  0.0003  0.3783  0.0198
18837TIP3    H178002   4.708   0.680  14.047 -1.7534  0.8015  3.6548
18837TIP3    H278003   4.770   0.552  14.100  0.5183 -0.2927 -1.1007
18838TIP3   OH278004   4.686   3.169   3.900 -0.2202 -0.4939 -0.0219
18838TIP3    H178005   4.705   3.203   3.813  0.2566  0.3577  0.4052
18838TIP3    H278006   4.766   3.125   3.927 -0.7645 -1.8334 -0.4864
18839TIP3   OH278007   2.964   3.548   5.601  0.0464 -0.7162 -0.5254
18839TIP3    H178008   2.920   3.472   5.639  0.6035 -0.5590  0.4824
18839TIP3    H278009   3.041   3.511   5.557  0.5011 -0.7165  0.2534
18840TIP3   OH278010   4.911   6.215   5.071  0.1299 -0.3313  0.0618
18840TIP3    H178011   4.873   6.234   4.985  0.8184  1.4736  0.1211
18840TIP3    H278012   4.836   6.213   5.130 -0.0871  1.6046 -0.0873
18841TIP3   OH278013   1.591   6.535   4.455  0.1586 -0.9630  0.5050
18841TIP3    H178014   1.593   6.620   4.412  1.6543 -0.3999  1.6222
18841TIP3    H278015   1.498   6.519   4.472 -0.0566  1.2034  1.7063
18842TIP3   OH278016   4.437   5.887   4.264 -1.0018  0.2450  0.2458
18842TIP3    H178017   4.444   5.969   4.313 -1.5066  0.1708  0.4493
18842TIP3    H278018   4.509   5.890   4.201  0.1054  0.0322  1.4540
18843TIP3   OH278019   3.053   0.010   0.202 -1.0564 -0.1165  0.2969
18843TIP3    H178020   3.041   0.030   0.109 -1.6623  0.2825  0.4555
18843TIP3    H278021   3.015  -0.077   0.213  0.2908 -0.7761 -0.1066
18844TIP3   OH278022   0.464   0.158   4.800  0.5004 -0.0409 -0.5366
18844TIP3    H178023   0.481   0.245   4.836  1.8610 -0.8074  0.7747
18844TIP3    H278024   0.371   0.143   4.814  0.7947  0.0768  1.8931
18845TIP3   OH278025   0.027   0.631   2.341 -0.4805 -0.1309 -0.3464
18845TIP3    H178026   0.015   0.620   2.435 -0.0274  0.7350 -0.1711
18845TIP3    H278027   0.117   0.601   2.325 -1.2900 -2.4520 -0.9113
18846TIP3   OH278028   2.798   5.826  10.499  0.9673  0.5309  0.0774
18846TIP3    H178029   2.796   5.757  10.566  3.2026 -0.1361 -0.4320
18846TIP3    H278030   2.849   5.787  10.428  1.5176  2.4066 -0.6011
18847TIP3   OH278031   6.256   3.041   2.814 -0.2904 -0.4700 -0.1544
18847TIP3    H178032   6.235   3.056   2.906  0.1576 -1.5546  0.1383
18847TIP3    H278033   6.248   2.946   2.803  0.6040 -0.4576 -0.9911
18848TIP3   OH278034   1.844   7.059  14.083  0.0691  0.5889  0.3863
18848TIP3    H178035   1.872   6.991  14.022  0.5144  0.9056  0.2301
18848TIP3    H278036   1.896   7.043  14.162 -1.0855 -0.3124  0.9846
18849TIP3   OH278037   2.702   3.258   1.654  0.2534  0.1853  1.1636
18849TIP3    H178038   2.754   3.333   1.681 -2.3741  2.7875 -0.4041
18849TIP3    H278039   2.737   3.233   1.569 -0.5744  1.5358  0.3905
18850TIP3   OH278040   3.763   3.169   3.540  0.3940 -0.3119 -0.2858
18850TIP3    H178041   3.679   3.124   3.539 -0.8643  1.7946 -2.5465
18850TIP3    H278042   3.770   3.206   3.452  3.6166 -0.2166 -0.0763
18851TIP3   OH278043   6.105   4.263  10.263 -0.0691 -0.0473  0.0442
18851TIP3    H178044   6.178   4.302  10.312  0.6967 -2.3407  0.8340
18851TIP3    H278045   6.034   4.257  10.327 -0.3695  0.5254 -0.2290
18852TIP3   OH278046   4.979   2.668   3.833  0.2849 -0.0687 -0.2688
18852TIP3    H178047   5.040   2.696   3.765  0.8894  1.0662  0.7013
18852TIP3    H278048   4.938   2.589   3.798  1.5919 -0.2967 -1.3635
18853TIP3   OH278049   1.336   2.820   3.497  0.5878 -0.3045 -0.1758
18853TIP3    H178050   1.398   2.888   3.470 -0.3968  1.0773  0.8969
18853TIP3    H278051   1.291   2.795   3.417  2.4529 -1.3270 -0.9795
18854TIP3   OH278052   0.889   4.943   2.674 -0.5001 -0.3789  0.2638
18854TIP3    H178053   0.979   4.921   2.699  0.6234  3.0304 -0.2837
18854TIP3    H278054   0.887   4.929   2.579 -0.3495  0.0471  0.1939
18855TIP3   OH278055   0.178   4.366   2.702  0.4096 -0.0872  0.6753
18855TIP3    H178056   0.204   4.359   2.794  1.0452 -3.0681  0.3809
18855TIP3    H278057   0.212   4.450   2.674  0.5126  0.7545  3.0597
18856TIP3   OH278058   6.000   1.744   1.950  0.1612  0.2005 -0.4274
18856TIP3    H178059   6.000   1.735   1.855  2.0656 -0.2754 -0.4361
18856TIP3    H278060   5.926   1.691   1.979 -0.7601  0.7744 -1.6591
18857TIP3   OH278061   4.216   6.269  10.899  0.2842  0.1686 -0.0407
18857TIP3    H178062   4.308   6.288  10.876  0.5771 -0.1663  0.8107
18857TIP3    H278063   4.165   6.307  10.827  1.0726  0.6687 -0.3507
18858TIP3   OH278064   0.880   5.812   5.799 -0.1084 -0.5450  0.5633
18858TIP3    H178065   0.924   5.783   5.878 -1.0109 -0.0635  1.2602
18858TIP3    H278066   0.941   5.876   5.760  1.5057 -2.6286 -0.5470
18859TIP3   OH278067   5.497   4.464   1.339  0.3150  0.3148  0.1156
18859TIP3    H178068   5.414   4.454   1.292  0.9938 -0.0003 -1.0811
18859TIP3    H278069   5.472   4.483   1.429 -1.0826  2.8055 -0.7052
18860TIP3   OH278070   2.929   4.954   4.854 -0.0565  0.0234  0.2600
18860TIP3    H178071   2.894   4.869   4.826 -1.0853  0.7350 -0.7338
18860TIP3    H278072   2.945   4.944   4.948 -3.3942 -0.2764  0.9234
18861TIP3   OH278073   2.243   6.620   4.559 -0.3694 -0.5498 -0.1778
18861TIP3    H178074   2.322   6.665   4.528  1.2580 -2.0013  1.5990
18861TIP3    H278075   2.210   6.575   4.481 -0.6990  1.7375 -1.4358
18862TIP3   OH278076   6.251   1.810   2.552 -0.8951 -0.1852  0.0540
18862TIP3    H178077   6.195   1.853   2.488  0.3003  0.5526 -0.5233
18862TIP3    H278078   6.340   1.834   2.527 -0.0597 -3.5015 -0.7503
18863TIP3   OH278079   4.699   4.341   1.747  0.4484 -0.3684  0.4246
18863TIP3    H178080   4.787   4.343   1.785 -0.1621 -1.0362  1.9541
18863TIP3    H278081   4.714   4.332   1.653  2.0124 -0.7047  0.6763
18864TIP3   OH278082   3.541   4.546   4.648 -0.4558  0.1149 -0.1893
18864TIP3    H178083   3.627   4.557   4.689 -0.2055  1.2478 -0.9642
18864TIP3    H278084   3.539   4.454   4.621  0.5475  0.0973 -0.2532
18865TIP3   OH278085   0.501   2.332   4.595  0.0549 -0.6038 -0.1731
18865TIP3    H178086   0.553   2.252   4.591  0.6349 -0.4244  2.2135
18865TIP3    H278087   0.565   2.401   4.614 -0.7210  0.0340  0.1636
18866TIP3   OH278088   1.285   5.452   5.056 -0.1984  0.0891 -0.5070
18866TIP3    H178089   1.323   5.405   4.982 -2.3575  1.7069 -2.8289
18866TIP3    H278090   1.262   5.538   5.020 -0.9863  1.0888  2.1776
18867TIP3   OH278091   1.947   0.710  11.328 -0.1163  0.1960 -0.4314
18867TIP3    H178092   1.943   0.675  11.239  0.7684  0.2903 -0.5159
18867TIP3    H278093   1.981   0.638  11.381 -0.4202  0.2161 -0.2053
18868TIP3   OH278094   6.156   3.568   4.452 -0.2849  0.5299  0.5203
18868TIP3    H178095   6.092   3.497   4.450 -1.2104  1.3500 -0.2545
18868TIP3    H278096   6.229   3.534   4.503 -0.1871 -1.3989 -0.7988
18869TIP3   OH278097   4.022   5.717   2.279 -0.0181  0.0480 -0.0058
18869TIP3    H178098   4.118   5.714   2.285  0.1061  1.1640 -0.9727
18869TIP3    H278099   4.004   5.802   2.237 -1.3984 -0.4189 -0.3913
18870TIP3   OH278100   3.985   6.269  15.313  0.1695 -0.0229 -0.4722
18870TIP3    H178101   3.986   6.321  15.394  1.7439 -2.7959  1.5028
18870TIP3    H278102   4.063   6.214  15.320  0.6586 -0.0112 -4.2396
18871TIP3   OH278103   6.174   0.192   2.305 -0.6324  0.0926 -0.3116
18871TIP3    H178104   6.229   0.145   2.367  1.3260 -1.1342 -2.7930
18871TIP3    H278105   6.120   0.124   2.265 -1.0779  0.6832 -0.7257
18872TIP3   OH278106   5.777   0.666   5.877  0.0956  0.2120  0.7837
18872TIP3    H178107   5.769   0.761   5.872  0.9468  0.2031 -1.9199
18872TIP3    H278108   5.861   0.651   5.921 -0.9297  0.6125  3.0164
18873TIP3   OH278109   1.262   5.869   0.705  0.0432 -0.3182  0.3246
18873TIP3    H178110   1.243   5.938   0.641  0.7003  1.1383  1.6460
18873TIP3    H278111   1.357   5.858   0.700  0.0201 -0.6418  0.6057
18874TIP3   OH278112   4.736   3.877   0.817  0.8065 -0.1780 -0.6980
18874TIP3    H178113   4.727   3.791   0.858  0.1479  0.3977  0.3982
18874TIP3    H278114   4.831   3.891   0.812  0.9337  0.1639  1.6365
18875TIP3   OH278115   0.364   5.359   4.117 -0.1703 -0.4975 -0.4868
18875TIP3    H178116   0.377   5.277   4.068  3.0083 -1.0745  1.1142
18875TIP3    H278117   0.360   5.332   4.209  1.2659  1.1428  0.1007
18876TIP3   OH278118   6.066   2.571  15.133 -0.0277 -0.4232 -0.3181
18876TIP3    H178119   6.059   2.663  15.159  0.9507  0.0481 -1.6139
18876TIP3    H278120   6.017   2.565  15.052  0.2834 -0.9428 -0.4704
18877TIP3   OH278121   4.305   0.373   0.176 -0.5215  0.1820  0.2174
18877TIP3    H178122   4.320   0.295   0.229 -1.4020  0.7323  1.3227
18877TIP3    H278123   4.378   0.431   0.197  1.2229 -1.0618 -2.0907
18878TIP3   OH278124   6.737   1.726   4.903 -0.0122 -0.3228  0.7896
18878TIP3    H178125   6.812   1.721   4.843 -0.9363  0.0609 -0.4184
18878TIP3    H278126   6.775   1.761   4.985  0.8711  1.3908 -0.2798
18879TIP3   OH278127   2.124   1.421   1.307 -0.1623 -0.0727 -0.4597
18879TIP3    H178128   2.149   1.391   1.395 -0.3566 -0.1873 -0.4401
18879TIP3    H278129   2.133   1.516   1.310  1.7559 -0.2041 -0.9335
18880TIP3   OH278130   6.341   6.411   3.935  0.5989 -0.3988  0.1171
18880TIP3    H178131   6.343   6.438   4.027 -1.0448 -0.4650  0.2007
18880TIP3    H278132   6.260   6.362   3.926  0.0090  0.7979 -1.6879
18881TIP3   OH278133   3.959   3.687  15.311  0.3751  0.6368 -0.0988
18881TIP3    H178134   4.024   3.668  15.378 -1.7786 -0.5902  1.8260
18881TIP3    H278135   3.967   3.615  15.249 -0.7709 -0.9923  1.5347
18882TIP3   OH278136   1.665   0.712  15.397 -0.1616  0.1311 -0.1608
18882TIP3    H178137   1.630   0.786  15.347  2.1902  1.2135 -0.3401
18882TIP3    H278138   1.588   0.660  15.419 -1.8512  2.2859 -0.5759
18883TIP3   OH278139   4.125   6.942   3.168  0.1803  0.4893 -0.3150
18883TIP3    H178140   4.038   6.976   3.186  0.5230  1.8803 -1.1506
18883TIP3    H278141   4.111   6.870   3.106 -0.3039  1.5092 -1.4224
18884TIP3   OH278142   5.494   3.855   3.022  0.9438 -0.0376 -0.0891
18884TIP3    H178143   5.527   3.944   3.013  2.1815 -0.4199  0.4431
18884TIP3    H278144   5.550   3.816   3.090  0.4756 -1.2376 -0.3772
18885TIP3   OH278145   4.786   1.232   3.887 -1.0148  0.3378  0.1812
18885TIP3    H178146   4.699   1.204   3.913 -1.2062 -0.0137 -0.7941
18885TIP3    H278147   4.836   1.150   3.879 -1.4848  0.2139 -2.3651
18886TIP3   OH278148   4.035   4.536   3.393 -0.1022 -0.5810 -0.2361
18886TIP3    H178149   4.081   4.464   3.351  0.2478  0.1481 -1.1417
18886TIP3    H278150   4.100   4.607   3.397 -0.0771 -0.6482  1.6717
18887TIP3   OH278151   5.871   2.533   2.533 -0.0083 -0.4184  0.3220
18887TIP3    H178152   5.880   2.446   2.496  0.6906 -0.3206  0.2596
18887TIP3    H278153   5.884   2.592   2.459 -1.7881 -0.2599  0.0828
18888TIP3   OH278154   5.942   5.791   6.047 -0.1861 -0.4792 -0.1810
18888TIP3    H178155   5.993   5.732   5.992  0.4280  1.1336 -1.4093
18888TIP3    H278156   6.008   5.843   6.094 -0.7138 -0.4293  0.5217
18889TIP3   OH278157   3.370   2.652  11.448 -0.1413  0.0134 -0.0461
18889TIP3    H178158   3.446   2.691  11.405 -2.4064  0.3697 -4.1775
18889TIP3    H278159   3.311   2.726  11.464 -1.6101 -0.7676 -1.5395
18890TIP3   OH278160   6.538   2.863  12.245 -0.0341 -0.4139  0.0403
18890TIP3    H178161   6.501   2.835  12.161  1.2363 -1.0556 -0.3222
18890TIP3    H278162   6.567   2.952  12.230 -3.0909  0.8628  0.8835
18891TIP3   OH278163   3.587   4.592  11.434 -0.6766  0.5049 -0.0207
18891TIP3    H178164   3.661   4.647  11.408  2.2929 -2.7028  0.8457
18891TIP3    H278165   3.577   4.530  11.362 -0.4219 -0.9641  1.1575
18892TIP3   OH278166   4.744   6.230   2.236 -0.3092 -0.5750 -0.4060
18892TIP3    H178167   4.794   6.166   2.185 -0.0191  0.3678 -1.3588
18892TIP3    H278168   4.767   6.212   2.327 -0.2147 -1.7954 -0.6585
18893TIP3   OH278169   2.433   4.850   3.024  0.0032 -0.5749  0.4600
18893TIP3    H178170   2.411   4.828   3.114 -1.0145 -1.6753 -0.0165
18893TIP3    H278171   2.463   4.767   2.986  0.2221 -0.1724 -0.2559
18894TIP3   OH278172   5.961   5.543  10.698  0.4248 -0.4103  0.6817
18894TIP3    H178173   5.869   5.518  10.708  0.3808 -0.2824  0.6036
18894TIP3    H278174   5.960   5.609  10.628  0.3845  0.7272  1.7260
18895TIP3   OH278175   2.304   4.555   3.317  0.1628  0.0629 -0.3440
18895TIP3    H178176   2.287   4.648   3.302  1.2253  0.3977  0.3807
18895TIP3    H278177   2.371   4.554   3.386 -0.2377 -1.2524  0.0563
18896TIP3   OH278178   0.828   6.467   3.615  0.3774  0.4122 -0.2800
18896TIP3    H178179   0.853   6.384   3.655 -1.7853 -0.6097 -0.8871
18896TIP3    H278180   0.843   6.455   3.522 -1.6716 -0.0478 -0.5971
18897TIP3   OH278181   0.452   1.854   3.247  0.1393  0.5482  0.0044
18897TIP3    H178182   0.462   1.898   3.332  2.1642 -0.5221  0.3885
18897TIP3    H278183   0.533   1.872   3.201  0.5452 -1.6914 -0.3070
18898TIP3   OH278184   2.353   5.324   1.657  0.6730 -0.3767  0.9091
18898TIP3    H178185   2.340   5.229   1.654 -0.2501 -0.3114  2.2118
18898TIP3    H278186   2.412   5.342   1.583 -0.2089 -1.7705 -0.1947
18899TIP3   OH278187   5.087   4.568  14.567 -0.0142 -0.2656  0.1229
18899TIP3    H178188   5.158   4.631  14.552 -0.9239  0.7630  0.0135
18899TIP3    H278189   5.007   4.619  14.557 -0.7734 -0.9437  2.2174
18900TIP3   OH278190   6.453   3.505   5.372 -0.6004  0.0558 -0.5892
18900TIP3    H178191   6.504   3.532   5.449 -0.9865  2.7497 -1.1891
18900TIP3    H278192   6.518   3.473   5.310  0.1027  1.0054 -0.3622
18901TIP3   OH278193   3.417   5.992   3.851 -0.1277  0.0690  0.1210
18901TIP3    H178194   3.503   5.986   3.809 -0.3785  0.2241 -0.4182
18901TIP3    H278195   3.399   5.903   3.881 -0.2185 -0.1738 -0.6467
18902TIP3   OH278196   2.040   1.101   3.892 -0.1317 -0.3500  0.3503
18902TIP3    H178197   2.030   1.139   3.980  0.7525 -0.0887  0.3449
18902TIP3    H278198   2.035   1.176   3.833 -2.6478 -0.6968 -0.0117
18903TIP3   OH278199   5.356   4.228   1.609 -0.2688 -0.3990 -0.2484
18903TIP3    H178200   5.359   4.219   1.704 -1.9781 -0.4636 -0.1721
18903TIP3    H278201   5.447   4.242   1.583  0.1919 -0.1621  1.4117
18904TIP3   OH278202   5.062   1.572   5.309 -0.1454  0.5135  0.3128
18904TIP3    H178203   5.067   1.636   5.237  0.7012 -1.1234 -1.1641
18904TIP3    H278204   4.971   1.542   5.308  0.4222 -1.3974 -1.9004
18905TIP3   OH278205   7.022   3.161   3.906  0.3660 -0.1439  0.1999
18905TIP3    H178206   6.945   3.201   3.867 -0.1508 -0.0702  1.2671
18905TIP3    H278207   7.070   3.124   3.832 -1.3428 -1.3369 -0.3869
18906TIP3   OH278208   6.127   6.073   4.332  0.1455 -0.4171 -0.5878
18906TIP3    H178209   6.047   6.071   4.280  0.5562 -0.5677 -1.2198
18906TIP3    H278210   6.103   6.124   4.410  0.2535  2.1085 -2.1014
18907TIP3   OH278211   4.553   1.058   2.999  0.0307  0.4933  0.0045
18907TIP3    H178212   4.530   1.074   3.090  1.7318 -0.2701  0.5965
18907TIP3    H278213   4.625   1.119   2.982  1.1797 -0.8760 -0.1504
18908TIP3   OH278214   4.155   2.115  14.649  0.0108  1.1805 -0.1290
18908TIP3    H178215   4.095   2.049  14.683  0.5062 -1.0878 -3.1736
18908TIP3    H278216   4.230   2.111  14.709 -0.3689 -0.3966  0.3054
18909TIP3   OH278217   5.865   6.288   1.399 -0.3976  0.2621 -0.0150
18909TIP3    H178218   5.945   6.249   1.363  0.8078 -0.0196  2.7666
18909TIP3    H278219   5.874   6.382   1.380 -1.7772 -0.1931 -3.8577
18910TIP3   OH278220   6.322   1.918  14.469  0.5139  0.1998  0.1188
18910TIP3    H178221   6.237   1.960  14.456  0.5111  0.1386 -0.0736
18910TIP3    H278222   6.301   1.832  14.506  0.4290 -0.1806 -0.7787
18911TIP3   OH278223   1.181   1.719  10.179 -0.1636 -1.0166 -0.5858
18911TIP3    H178224   1.109   1.738  10.239  0.7979 -3.6743  1.5925
18911TIP3    H278225   1.242   1.792  10.190 -0.9050 -0.5011  0.1758
18912TIP3   OH278226   6.167   4.808   1.856  0.3901 -0.2654  0.1104
18912TIP3    H178227   6.251   4.832   1.894  0.0625  0.3314  0.4847
18912TIP3    H278228   6.128   4.892   1.829  0.2852 -0.6077 -0.8510
18913TIP3   OH278229   2.409   6.406   5.746  0.3797 -0.0382  0.1557
18913TIP3    H178230   2.456   6.489   5.754 -0.4210  0.3572  0.8665
18913TIP3    H278231   2.411   6.368   5.834  0.4443 -0.6201 -0.0887
18914TIP3   OH278232   2.648   1.670   3.228  0.5028  0.3175 -0.3238
18914TIP3    H178233   2.630   1.736   3.294 -1.4442  1.7214 -2.1074
18914TIP3    H278234   2.662   1.719   3.147  1.2571 -1.3762 -1.2999
18915TIP3   OH278235   0.361   7.151  14.126 -0.2379 -0.4225 -0.8720
18915TIP3    H178236   0.348   7.057  14.138 -1.4144 -0.1854 -0.0987
18915TIP3    H278237   0.346   7.188  14.213 -0.5405  0.5510 -1.3289
18916TIP3   OH278238   4.673   3.343  14.589  0.3575 -0.0718  0.3850
18916TIP3    H178239   4.768   3.336  14.598  0.3522 -0.6096  0.0494
18916TIP3    H278240   4.656   3.437  14.593  1.2313  0.3396 -2.6619
18917TIP3   OH278241   6.945   2.865   3.060 -0.7543  0.3060 -0.0584
18917TIP3    H178242   6.991   2.894   3.138 -0.7952 -1.1289  0.5283
18917TIP3    H278243   6.857   2.901   3.070 -1.3184 -1.3375  1.5186
18918TIP3   OH278244   0.694   6.656  11.274  0.4983 -0.3456 -0.8196
18918TIP3    H178245   0.735   6.742  11.283  2.5120 -1.2598 -0.8721
18918TIP3    H278246   0.618   6.659  11.332  1.3763  0.9513  0.3025
18919TIP3   OH278247   0.012   6.553  11.068  0.2266  0.0570 -0.3219
18919TIP3    H178248  -0.013   6.598  11.149 -2.0767 -0.7557 -0.5138
18919TIP3    H278249   0.006   6.460  11.090 -0.1514 -0.1729 -1.3468
18920TIP3   OH278250   2.207   1.653  12.845  0.0606  0.3939 -0.1758
18920TIP3    H178251   2.214   1.671  12.939  0.6746 -0.1636 -0.1114
18920TIP3    H278252   2.191   1.739  12.806  1.2698  0.8687  0.3011
18921TIP3   OH278253   5.859   2.966  12.496  0.0007 -0.2055  0.1061
18921TIP3    H178254   5.924   3.001  12.558  1.2033  0.7550 -1.6007
18921TIP3    H278255   5.852   3.034  12.429 -2.2990 -0.6078 -0.1205
18922TIP3   OH278256   0.137   1.088   0.593  0.1311  0.3022  0.1087
18922TIP3    H178257   0.222   1.118   0.625 -0.9093  1.7398  1.7395
18922TIP3    H278258   0.078   1.162   0.611 -1.1768 -0.0486 -2.3905
18923TIP3   OH278259   0.732   5.348   2.097 -0.2343 -0.1150  0.3021
18923TIP3    H178260   0.699   5.268   2.056 -0.4784 -0.2513  0.7578
18923TIP3    H278261   0.797   5.318   2.160 -0.4661  0.0329  0.6114
18924TIP3   OH278262   3.717   5.905   2.381 -0.1631 -0.2714  0.0524
18924TIP3    H178263   3.660   5.970   2.339 -0.2042 -0.9855 -1.0608
18924TIP3    H278264   3.662   5.866   2.449 -1.7027 -2.1371 -2.0803
18925TIP3   OH278265   6.811   1.082   3.277 -0.9523  0.0564  0.1180
18925TIP3    H178266   6.874   1.087   3.349 -1.7676 -0.2618  0.8720
18925TIP3    H278267   6.864   1.087   3.198  0.1154 -1.1496  0.7202
18926TIP3   OH278268   1.120   6.646   1.973  0.4219 -0.1849 -0.2120
18926TIP3    H178269   1.081   6.680   1.892 -1.2419 -1.4047  0.0218
18926TIP3    H278270   1.067   6.685   2.043  1.7322  0.7124  0.3187
18927TIP3   OH278271   2.857   3.213   2.916 -0.0758 -0.1617  0.4195
18927TIP3    H178272   2.875   3.307   2.923 -0.9601 -0.0446  1.4374
18927TIP3    H278273   2.920   3.181   2.852  1.7745  0.7125  1.7305
18928TIP3   OH278274   3.414   6.587  13.035  1.3109 -0.0049  0.5054
18928TIP3    H178275   3.459   6.670  13.050  1.8808 -0.1961 -0.0856
18928TIP3    H278276   3.410   6.546  13.121  0.0486  1.1067  1.0086
18929TIP3   OH278277   3.415   4.524   2.339 -0.6829  0.0528  0.7639
18929TIP3    H178278   3.358   4.544   2.265  1.2260  2.2072 -0.2904
18929TIP3    H278279   3.498   4.497   2.299  0.2521  0.8174  2.0854
18930TIP3   OH278280   3.685   6.627   4.144  0.8267  0.1707 -0.1559
18930TIP3    H178281   3.757   6.676   4.184  3.2709 -0.8489 -2.9331
18930TIP3    H278282   3.698   6.639   4.049 -2.9515  0.2255 -0.8080
18931TIP3   OH278283   5.596   6.619   1.831  0.3157  0.5616 -0.2065
18931TIP3    H178284   5.539   6.674   1.885 -0.5395 -1.0612  0.5994
18931TIP3    H278285   5.540   6.587   1.761  0.6216  0.1959 -0.2913
18932TIP3   OH278286   1.520   1.231   2.482  0.5810 -0.1304 -0.0156
18932TIP3    H178287   1.611   1.208   2.497  0.9086  0.3987 -1.0875
18932TIP3    H278288   1.480   1.230   2.569  1.6810 -0.0557  0.5013
18933TIP3   OH278289   5.823   5.059   5.746  0.4575  0.0045 -0.3628
18933TIP3    H178290   5.747   5.094   5.792 -1.7206 -3.8332 -0.6690
18933TIP3    H278291   5.893   5.062   5.811 -0.6648  1.0765  0.8663
18934TIP3   OH278292   6.484   3.308  13.921  1.0021  0.5673  0.2174
18934TIP3    H178293   6.460   3.267  14.003 -0.0114  0.7143  0.0089
18934TIP3    H278294   6.573   3.342  13.936  0.2741  1.9392  1.7748
18935TIP3   OH278295   3.664   5.214   1.138  0.1975 -0.0635 -0.0119
18935TIP3    H178296   3.673   5.299   1.181 -0.4588 -0.3211  0.6437
18935TIP3    H278297   3.726   5.218   1.065  0.7181  0.6869  0.4610
18936TIP3   OH278298   0.588   2.830   3.574  0.0426  0.3012  0.3654
18936TIP3    H178299   0.547   2.790   3.651  0.0331  0.5431  0.4888
18936TIP3    H278300   0.644   2.761   3.538  0.2809  0.2753  0.7681
18937TIP3   OH278301   6.836   6.179   4.753  0.4177 -0.0713 -0.2819
18937TIP3    H178302   6.895   6.106   4.770  1.5900  0.9007 -0.0040
18937TIP3    H278303   6.848   6.198   4.660 -1.1171 -1.2408 -0.7604
18938TIP3   OH278304   3.017   0.693   1.703  0.3069 -0.2067  0.1061
18938TIP3    H178305   2.974   0.775   1.681  0.9003  0.0230 -0.2174
18938TIP3    H278306   2.945   0.630   1.712 -0.0626 -0.0692 -1.4404
18939TIP3   OH278307   1.933   0.647   5.576  0.2206 -0.5861  0.6844
18939TIP3    H178308   2.024   0.618   5.574  0.3167 -0.2693  0.4095
18939TIP3    H278309   1.898   0.610   5.657  0.7767 -0.1634  1.1308
18940TIP3   OH278310   4.492   3.356   4.023 -0.2945  0.1843 -0.2967
18940TIP3    H178311   4.549   3.282   4.002 -0.0981  0.2988 -0.1704
18940TIP3    H278312   4.442   3.372   3.943 -0.3924 -0.1341 -0.3025
18941TIP3   OH278313   0.828   1.087  15.134  0.0254  0.0880  0.9545
18941TIP3    H178314   0.737   1.119  15.134  0.3271  1.0590 -0.3007
18941TIP3    H278315   0.876   1.153  15.183 -0.0582 -0.8448  2.3177
18942TIP3   OH278316   0.990   1.933   4.997  0.6883 -0.2561 -0.4247
18942TIP3    H178317   1.069   1.879   5.005  0.6276 -0.2148  0.6265
18942TIP3    H278318   1.023   2.020   4.976  1.0323  0.0129  1.0891
18943TIP3   OH278319   5.786   2.148   6.019  0.8612 -0.3089  0.3171
18943TIP3    H178320   5.827   2.076   5.971  0.9697  0.5888 -0.9934
18943TIP3    H278321   5.834   2.226   5.990 -0.5376  0.5266  0.1799
18944TIP3   OH278322   7.112   2.971   1.073  0.3069  0.3196  0.2013
18944TIP3    H178323   7.023   2.948   1.048 -0.4507  2.9282  0.2804
18944TIP3    H278324   7.136   2.904   1.138 -1.7849 -0.1385  0.5762
18945TIP3   OH278325   2.642   6.865  15.296 -0.2012  0.3034 -0.4041
18945TIP3    H178326   2.707   6.894  15.231 -0.2586  0.4296 -0.4044
18945TIP3    H278327   2.602   6.787  15.256 -0.4927  0.5919 -0.6814
18946TIP3   OH278328   1.342   2.081   3.210  0.2724 -0.2015  0.2784
18946TIP3    H178329   1.369   2.122   3.128  1.2623 -0.5508  0.4143
18946TIP3    H278330   1.401   2.117   3.276  0.1399 -0.6709  0.6626
18947TIP3   OH278331   4.029   5.033   2.000 -0.9958 -0.0537 -0.1196
18947TIP3    H178332   4.028   5.123   1.967 -1.4237  1.0433  2.6493
18947TIP3    H278333   3.964   4.988   1.946  1.0572  0.4875 -3.3472
18948TIP3   OH278334   3.130   7.129   1.236  0.3019  0.3347  0.8948
18948TIP3    H178335   3.214   7.094   1.208  0.0502 -0.1399  0.7100
18948TIP3    H278336   3.138   7.139   1.331  0.8828  1.1847  0.7602
18949TIP3   OH278337   3.314   1.695  15.284  0.4559 -0.2885  0.4303
18949TIP3    H178338   3.268   1.679  15.366  0.2582 -1.3899  0.1305
18949TIP3    H278339   3.258   1.758  15.237  1.0420  1.0659  1.4998
18950TIP3   OH278340   5.076   5.225  13.528 -0.2153  0.5979 -0.6152
18950TIP3    H178341   4.995   5.249  13.573 -0.2266 -0.8739  0.2022
18950TIP3    H278342   5.064   5.133  13.505  0.2477  0.9979 -2.6841
18951TIP3   OH278343   3.622   1.773   5.389 -0.2833  0.1504  0.5380
18951TIP3    H178344   3.679   1.738   5.457 -1.6323  0.4997  1.8929
18951TIP3    H278345   3.673   1.844   5.349  1.6046 -1.8251 -0.7530
18952TIP3   OH278346   4.084   4.545  13.694  0.8017  0.2405 -0.1614
18952TIP3    H178347   4.116   4.569  13.607  1.5518 -0.5635 -0.1161
18952TIP3    H278348   4.139   4.594  13.755 -0.4907  1.7337 -0.1296
18953TIP3   OH278349   2.006   6.627   3.434 -0.1560 -0.3150  0.4141
18953TIP3    H178350   1.999   6.648   3.341  1.2868  1.2994  0.6270
18953TIP3    H278351   1.926   6.577   3.454 -0.1772 -1.2500 -1.8028
18954TIP3   OH278352   1.247   2.190   3.925 -0.1090  0.0397 -0.1329
18954TIP3    H178353   1.230   2.097   3.942 -1.8749  0.2963 -0.2610
18954TIP3    H278354   1.335   2.206   3.958  0.5398 -1.8590 -0.8223
18955TIP3   OH278355   6.527   0.041   0.875 -0.2781 -0.5289 -0.1898
18955TIP3    H178356   6.612   0.001   0.859 -0.9049 -1.7995 -0.5085
18955TIP3    H278357   6.518   0.107   0.806  0.6935  0.0648  0.2254
18956TIP3   OH278358   2.375   5.097   3.136 -0.5313  0.4922 -0.1513
18956TIP3    H178359   2.362   5.010   3.099 -1.0351  0.3022  0.4519
18956TIP3    H278360   2.469   5.101   3.156 -0.1349  0.8114 -1.9396
18957TIP3   OH278361   6.431   5.664  11.899 -0.2356 -0.0404  0.6240
18957TIP3    H178362   6.521   5.641  11.920 -0.0184 -1.4459 -1.5687
18957TIP3    H278363   6.438   5.730  11.830 -0.8966  0.5929  1.1484
18958TIP3   OH278364   1.088   1.020  11.068 -0.3157 -0.0408 -0.4307
18958TIP3    H178365   1.002   1.004  11.106  0.2689  0.1330  1.0215
18958TIP3    H278366   1.070   1.049  10.978 -1.7271 -0.5739 -0.3322
18959TIP3   OH278367   0.618   0.428   2.586 -0.7329  0.0887 -0.0237
18959TIP3    H178368   0.690   0.385   2.539 -0.5303 -0.2787  0.6106
18959TIP3    H278369   0.607   0.512   2.541 -0.4659 -0.2034 -0.6497
18960TIP3   OH278370   0.975   2.448   5.355  0.1856  0.5296 -0.1646
18960TIP3    H178371   0.983   2.417   5.264  1.1129 -0.0659  0.1035
18960TIP3    H278372   0.977   2.544   5.347 -3.2777  0.6531 -1.0543
18961TIP3   OH278373   4.448   4.711  12.088 -0.5524  0.0656 -0.3314
18961TIP3    H178374   4.526   4.662  12.064  0.6633  0.7014  2.0507
18961TIP3    H278375   4.469   4.750  12.173 -3.3403  0.5241  0.2457
18962TIP3   OH278376   6.689   3.909  15.116 -0.1328 -0.3020 -0.3968
18962TIP3    H178377   6.708   3.991  15.069 -2.1968 -0.6416 -1.9734
18962TIP3    H278378   6.752   3.846  15.081  0.5468  0.2695 -0.2145
18963TIP3   OH278379   1.572   6.948  10.820 -0.2178 -0.3376 -0.2012
18963TIP3    H178380   1.645   6.999  10.854 -0.8226  1.7788 -1.8656
18963TIP3    H278381   1.605   6.908  10.740 -1.0186  1.2015 -1.3427
18964TIP3   OH278382   6.369   2.148   2.005 -0.4155 -0.4164 -0.1273
18964TIP3    H178383   6.367   2.180   2.096 -1.1659 -0.9680  0.0612
18964TIP3    H278384   6.387   2.226   1.953 -0.9183  0.0889  0.4263
18965TIP3   OH278385   3.651   0.994  15.197  0.7300 -0.8110 -0.2326
18965TIP3    H178386   3.682   1.080  15.170 -0.9845  0.8496  2.6193
18965TIP3    H278387   3.605   0.960  15.120  1.9272  0.5181 -1.6002
18966TIP3   OH278388   6.937   2.848   0.917  0.5079  0.0496 -0.7774
18966TIP3    H178389   6.945   2.785   0.846 -0.1151  0.4744 -1.2417
18966TIP3    H278390   6.845   2.875   0.914  0.7119  0.7994 -0.4412
18967TIP3   OH278391   4.036   2.032   2.967  0.0332 -0.1379 -0.2424
18967TIP3    H178392   4.119   1.990   2.990 -0.3974 -1.3336 -0.7844
18967TIP3    H278393   4.059   2.096   2.900  0.6890  0.4030  0.4917
18968TIP3   OH278394   3.499   2.715  12.461 -0.2165  0.6821  0.7542
18968TIP3    H178395   3.551   2.709  12.542  3.1053  1.2280 -1.1623
18968TIP3    H278396   3.508   2.807  12.434  0.7176  0.0075 -1.4000
18969TIP3   OH278397   5.734   0.098   0.371  0.0508 -0.3743 -0.5387
18969TIP3    H178398   5.733   0.127   0.280  1.9361 -0.8709 -0.7431
18969TIP3    H278399   5.816   0.131   0.406  1.2221 -3.4565 -0.1402
18970TIP3   OH278400   2.620   0.761   2.199  0.2838  0.1172  0.2796
18970TIP3    H178401   2.586   0.699   2.263 -1.6250  0.8625  0.0498
18970TIP3    H278402   2.670   0.707   2.138 -0.9290 -1.1565  0.3439
18971TIP3   OH278403   1.164   4.749  12.392  0.5410 -0.0912 -0.7340
18971TIP3    H178404   1.227   4.705  12.336 -0.5166  0.2831 -2.2770
18971TIP3    H278405   1.079   4.728  12.354 -0.1267  1.2852 -0.0724
18972TIP3   OH278406   7.005   0.708   5.251 -0.1873 -0.0135  0.0560
18972TIP3    H178407   6.927   0.729   5.199  0.0914  0.0867 -0.3219
18972TIP3    H278408   7.045   0.634   5.206 -0.9681 -1.1615  1.1833
18973TIP3   OH278409   6.071   4.179   1.421  0.6121 -0.2568  0.3319
18973TIP3    H178410   6.146   4.172   1.362  0.5139  1.2604 -0.0188
18973TIP3    H278411   6.108   4.219   1.500 -0.0383  1.8199 -0.3569
18974TIP3   OH278412   1.885   6.379   4.801 -0.6703 -0.5455  0.2456
18974TIP3    H178413   1.848   6.455   4.756 -2.2499 -2.4014 -1.8776
18974TIP3    H278414   1.871   6.396   4.894  0.2892  2.2913 -0.0285
18975TIP3   OH278415   7.068   6.814   2.023 -0.1845  0.4506  0.3541
18975TIP3    H178416   7.142   6.827   1.964 -0.1325  0.6944  0.4722
18975TIP3    H278417   7.107   6.810   2.110 -0.2474 -0.0482  0.3586
18976TIP3   OH278418   4.276   1.247   3.475 -0.4531  0.4472 -0.2957
18976TIP3    H178419   4.283   1.329   3.428  0.0464 -0.9907 -2.9386
18976TIP3    H278420   4.208   1.198   3.429  0.8801 -1.4998 -0.3258
18977TIP3   OH278421   5.616   1.414   1.285  0.0483  0.0370  0.4954
18977TIP3    H178422   5.532   1.388   1.247  2.0465 -1.0803 -3.8058
18977TIP3    H278423   5.676   1.342   1.264  2.1206  0.6670  3.5900
18978TIP3   OH278424   1.364   5.604   0.496  0.4685 -0.4074 -0.4086
18978TIP3    H178425   1.456   5.607   0.521  0.7500  2.3573 -1.4392
18978TIP3    H278426   1.324   5.542   0.557  2.5867 -0.0672  1.4427
18979TIP3   OH278427   3.935   0.404   3.320 -0.1659 -0.3417  0.2752
18979TIP3    H178428   3.854   0.375   3.279  0.3518 -1.1031 -0.2324
18979TIP3    H278429   3.994   0.329   3.314  1.0267  0.6160 -0.5892
18980TIP3   OH278430   2.101   4.424  12.029  0.2000 -0.5331 -0.1029
18980TIP3    H178431   2.122   4.515  12.006  4.0439 -1.2088  0.1375
18980TIP3    H278432   2.132   4.373  11.954  0.5047 -1.8129  0.8789
18981TIP3   OH278433   2.729   5.935   4.392 -0.2656 -0.0360  0.3026
18981TIP3    H178434   2.708   5.959   4.302  0.9204  0.8970  0.2399
18981TIP3    H278435   2.761   5.845   4.386 -0.3706 -0.0441 -0.1757
18982TIP3   OH278436   1.191   2.824   3.273 -0.0866  0.0189  0.3614
18982TIP3    H178437   1.152   2.905   3.239 -0.3777 -0.0677  0.4832
18982TIP3    H278438   1.118   2.761   3.273  0.2258 -0.3490 -0.0921
18983TIP3   OH278439   3.868   5.643   2.491 -0.0152  0.3309  0.0664
18983TIP3    H178440   3.945   5.648   2.434  0.6508 -1.0165  0.7976
18983TIP3    H278441   3.880   5.715   2.554  0.8619 -0.1007  0.4091
18984TIP3   OH278442   3.605   0.924  11.595 -0.0339 -0.8588 -0.0601
18984TIP3    H178443   3.521   0.967  11.610  1.0061  1.1607  0.2352
18984TIP3    H278444   3.633   0.894  11.681  0.3407  0.0036  0.1214
18985TIP3   OH278445   6.494   3.577   0.345  0.0272 -0.4971 -0.1140
18985TIP3    H178446   6.531   3.661   0.317  0.4042 -0.3322  0.8496
18985TIP3    H278447   6.513   3.572   0.439 -3.2450  0.0405  0.6932
18986TIP3   OH278448   5.943   5.739   1.597 -0.2119  0.0000 -0.6256
18986TIP3    H178449   5.944   5.711   1.689  1.8207  2.2759  0.1243
18986TIP3    H278450   5.850   5.747   1.577 -0.7182 -0.2411  1.3400
18987TIP3   OH278451   2.451   1.674   2.614 -0.8688  0.3335 -0.3683
18987TIP3    H178452   2.393   1.743   2.581 -0.9612  0.6740  0.4754
18987TIP3    H278453   2.396   1.622   2.672 -0.4499  0.3924  0.0885
18988TIP3   OH278454   2.038   0.856  14.507  0.0461  0.6104 -0.2116
18988TIP3    H178455   1.986   0.849  14.587  0.3352 -1.0937 -0.1383
18988TIP3    H278456   2.076   0.944  14.511  0.3875  0.4208  1.7185
18989TIP3   OH278457   6.371   2.373  13.615 -1.0069 -0.0204 -0.2269
18989TIP3    H178458   6.292   2.387  13.668 -1.8677  0.9779 -1.7080
18989TIP3    H278459   6.443   2.385  13.677 -1.9720  1.3277  0.7079
18990TIP3   OH278460   2.215   1.682   1.335  0.5309 -0.6002  0.6515
18990TIP3    H178461   2.298   1.658   1.377  1.3021  0.6652 -0.0883
18990TIP3    H278462   2.240   1.706   1.246 -0.6434 -0.2345  0.4160
18991TIP3   OH278463   4.832   1.427   5.294 -0.4156 -0.2549 -0.4839
18991TIP3    H178464   4.781   1.404   5.217 -2.0036  1.1885  0.0664
18991TIP3    H278465   4.774   1.407   5.368 -0.4351  1.9383  0.1489
18992TIP3   OH278466   2.946   4.497   6.117  0.4738 -0.8156  0.1608
18992TIP3    H178467   3.036   4.486   6.147 -0.1055 -1.0390  1.8912
18992TIP3    H278468   2.911   4.408   6.111  0.3323 -0.7269 -0.4024
18993TIP3   OH278469   7.043   4.197   1.318 -0.3277 -0.0481 -0.0533
18993TIP3    H178470   6.980   4.269   1.317 -1.1287 -0.7042 -1.8250
18993TIP3    H278471   7.041   4.162   1.228  0.8170 -1.5989  0.4755
18994TIP3   OH278472   3.263   6.159   2.737 -0.1987  0.0450 -0.4013
18994TIP3    H178473   3.357   6.153   2.722 -0.4181 -1.6130 -1.3888
18994TIP3    H278474   3.253   6.155   2.832  0.7103  0.2503 -0.2870
18995TIP3   OH278475   4.731   4.063   4.440  0.7529  0.6375  0.3002
18995TIP3    H178476   4.818   4.047   4.404  0.5498  0.6901 -0.2145
18995TIP3    H278477   4.740   4.146   4.488  0.4392  1.8921 -1.6820
18996TIP3   OH278478   4.407   6.011   5.278 -0.3944 -0.7854  0.2214
18996TIP3    H178479   4.453   5.954   5.340  0.8768  0.6736  0.7099
18996TIP3    H278480   4.453   5.998   5.195  3.4000  3.0001  1.3419
18997TIP3   OH278481   0.751   2.970   3.363 -0.4337  0.2339 -0.5072
18997TIP3    H178482   0.727   2.909   3.433  0.2490 -0.8722 -1.2008
18997TIP3    H278483   0.782   2.914   3.292 -1.7561  1.2837 -1.9814
18998TIP3   OH278484   4.748   2.353   2.726 -0.3781 -0.5482  0.5251
18998TIP3    H178485   4.772   2.438   2.764 -1.5707 -0.2172  0.5994
18998TIP3    H278486   4.680   2.319   2.784 -3.4787  0.7317 -2.0316
18999TIP3   OH278487   4.092   6.211  14.943 -0.3365  0.3296  0.1753
18999TIP3    H178488   4.155   6.242  15.008  0.0351  0.0603 -0.0526
18999TIP3    H278489   4.135   6.227  14.859  0.0407 -1.1905  0.0593
19000TIP3   OH278490   0.098   3.458   1.376 -0.0131  0.3039  0.7049
19000TIP3    H178491   0.100   3.432   1.468  0.4026 -0.2945  0.5306
19000TIP3    H278492   0.190   3.458   1.350  0.1390  2.7980  0.9211
19001TIP3   OH278493   3.000   4.076   4.550  0.2202  0.4780 -0.2160
19001TIP3    H178494   3.049   4.097   4.470  0.0560 -0.4416 -0.5752
19001TIP3    H278495   2.919   4.128   4.542  1.0161  1.8652  0.2988
19002TIP3   OH278496   6.880   2.574   4.860  0.2798 -0.2156  0.4777
19002TIP3    H178497   6.940   2.524   4.915  1.9968  0.8568 -0.3473
19002TIP3    H278498   6.834   2.632   4.921  1.1356 -0.0454  0.9767
19003TIP3   OH278499   1.537   2.022  15.286 -0.3621  0.4920  0.2803
19003TIP3    H178500   1.543   1.989  15.196 -1.3676  0.8414  0.0715
19003TIP3    H278501   1.628   2.030  15.314 -0.0632 -1.2306 -0.0917
19004TIP3   OH278502   5.305   1.955   5.730 -0.0305  0.6409  0.2371
19004TIP3    H178503   5.214   1.948   5.759 -0.4185  1.4629 -0.7150
19004TIP3    H278504   5.330   2.044   5.752  0.5248  0.4428  0.4148
19005TIP3   OH278505   4.255   4.637   2.995 -0.6828 -0.5321  0.4272
19005TIP3    H178506   4.215   4.550   2.988 -0.5566 -0.4898 -1.2196
19005TIP3    H278507   4.181   4.697   2.996 -0.7794 -0.4834 -2.1346
19006TIP3   OH278508   1.964   3.479   2.189  0.2188  0.1227 -0.6413
19006TIP3    H178509   1.998   3.568   2.188 -0.1056  0.2718  0.1888
19006TIP3    H278510   1.869   3.490   2.196  0.2129 -0.2704  0.1055
19007TIP3   OH278511   5.919   0.243   4.984 -0.0308 -0.3842 -0.4421
19007TIP3    H178512   6.013   0.251   5.005 -0.3199 -1.6271  1.4957
19007TIP3    H278513   5.887   0.333   4.985  0.3623 -0.1612  3.0633
19008TIP3   OH278514   2.851   7.006   4.998 -0.4659 -0.2966  0.2910
19008TIP3    H178515   2.877   6.915   4.987 -1.7871 -0.5471 -1.0907
19008TIP3    H278516   2.924   7.057   4.961 -0.1564 -0.8240  0.1715
19009TIP3   OH278517   6.564   3.948  12.305 -0.1249  0.8430 -0.2008
19009TIP3    H178518   6.645   3.899  12.316 -1.2765 -0.7299  1.7203
19009TIP3    H278519   6.519   3.904  12.233  0.0100  0.7247 -0.2128
19010TIP3   OH278520   1.209   4.028   2.620 -0.0736  0.3530 -0.6507
19010TIP3    H178521   1.117   4.000   2.625 -0.2464  1.1399  1.0325
19010TIP3    H278522   1.211   4.089   2.545 -1.4714  2.1386  0.6667
19011TIP3   OH278523   2.377   3.518   5.705  0.0737 -0.0711  0.4124
19011TIP3    H178524   2.336   3.602   5.728 -0.7884 -0.1004 -0.8917
19011TIP3    H278525   2.344   3.456   5.770 -0.0689  0.3965  0.7886
19012TIP3   OH278526   4.934   6.732  14.626  0.4895  0.2196  0.9578
19012TIP3    H178527   4.887   6.684  14.694  0.9243 -0.9019  0.5013
19012TIP3    H278528   4.955   6.665  14.560  2.4860  0.7108  1.0245
19013TIP3   OH278529   3.081   6.182  14.654  0.1649 -0.3509  0.1222
19013TIP3    H178530   3.163   6.146  14.620  0.3799 -0.4820  0.7679
19013TIP3    H278531   3.106   6.231  14.732 -0.0123  1.8738 -1.1271
19014TIP3   OH278532   0.292   6.638   5.969 -0.2329 -0.2748  0.3022
19014TIP3    H178533   0.202   6.640   6.001  0.0116 -0.2263  1.0103
19014TIP3    H278534   0.328   6.724   5.993 -0.6170  0.5648 -1.8730
19015TIP3   OH278535   1.182   1.316   4.900 -0.3226 -0.0496 -0.3717
19015TIP3    H178536   1.251   1.268   4.947 -0.6261 -1.9163 -1.7046
19015TIP3    H278537   1.225   1.348   4.821 -0.2225  1.6349  0.3303
19016TIP3   OH278538   4.040   2.082   3.926  0.3120  0.2195  0.0307
19016TIP3    H178539   4.127   2.047   3.943  1.9001  3.6389 -0.2469
19016TIP3    H278540   4.015   2.127   4.006 -1.3819 -0.9117  0.1970
19017TIP3   OH278541   1.852   7.132   2.083 -0.4741 -0.3406 -0.6397
19017TIP3    H178542   1.804   7.183   2.148 -1.1460 -1.4462 -0.2442
19017TIP3    H278543   1.890   7.060   2.133  0.3050 -0.3456 -1.2194
19018TIP3   OH278544   6.576   4.955   0.525  0.3017 -0.1370  0.1190
19018TIP3    H178545   6.517   4.996   0.588 -0.9651 -2.0509  0.2406
19018TIP3    H278546   6.566   5.007   0.445 -2.6934 -1.2321 -0.3173
19019TIP3   OH278547   3.125   6.040   3.597  0.1470  0.3545  0.1910
19019TIP3    H178548   3.085   6.106   3.540 -0.2613 -0.8542 -0.9760
19019TIP3    H278549   3.209   6.020   3.556  0.3455  0.2805  0.6298
19020TIP3   OH278550   3.696   2.724   1.084 -0.1570  0.4032  0.0309
19020TIP3    H178551   3.772   2.773   1.114  0.2642 -0.0196 -0.3220
19020TIP3    H278552   3.727   2.677   1.006 -0.4149 -0.7407  0.5872
19021TIP3   OH278553   5.808   3.052   5.107 -0.6508  0.4803  0.2202
19021TIP3    H178554   5.852   3.080   5.026  0.9598  1.4537  1.3908
19021TIP3    H278555   5.717   3.082   5.095 -1.0074 -1.2277 -2.0753
19022TIP3   OH278556   6.262   7.093   3.649 -0.5248 -0.0082 -0.0838
19022TIP3    H178557   6.278   7.185   3.669 -1.1246  0.1634 -0.3603
19022TIP3    H278558   6.336   7.046   3.688 -0.6246  0.5127  0.7502
19023TIP3   OH278559   4.675   1.016   5.032  0.6211  0.3869 -0.4020
19023TIP3    H178560   4.656   0.982   4.944  0.8099 -0.4106 -0.1463
19023TIP3    H278561   4.635   0.952   5.091  2.4741 -0.3776  0.1186
19024TIP3   OH278562   1.491   5.551   4.833 -0.5958 -0.2414 -0.4213
19024TIP3    H178563   1.464   5.538   4.742  1.9200  0.3718 -1.3362
19024TIP3    H278564   1.472   5.643   4.850  0.3582  0.0490 -0.8774
19025TIP3   OH278565   0.717   6.285  15.706  0.7526 -0.1672  0.1625
19025TIP3    H178566   0.713   6.226  15.781  1.3737 -1.4262 -0.7500
19025TIP3    H278567   0.699   6.372  15.742  2.3105 -0.5309  1.9725
19026TIP3   OH278568   5.133   3.718  12.980 -0.1693  0.0901 -0.1259
19026TIP3    H178569   5.203   3.717  12.915 -1.0676  0.4325 -1.1420
19026TIP3    H278570   5.073   3.787  12.949 -2.2016 -1.7932 -0.6937
19027TIP3   OH278571   6.927   5.849   5.266 -0.4250 -0.3838  0.0820
19027TIP3    H178572   6.874   5.820   5.340  1.8479 -2.3102  1.0859
19027TIP3    H278573   6.947   5.768   5.219 -1.2142  0.7124 -2.3067
19028TIP3   OH278574   1.573   0.673   0.815  0.5938 -0.4959 -0.1926
19028TIP3    H178575   1.589   0.724   0.895  0.7411 -1.1433  0.1946
19028TIP3    H278576   1.656   0.677   0.768  0.4159  0.1371 -0.4608
19029TIP3   OH278577   6.959   1.652   4.700 -0.0536  1.0383  0.5200
19029TIP3    H178578   7.027   1.684   4.640 -0.7461  1.2435 -0.1671
19029TIP3    H278579   7.001   1.654   4.786  0.8558  1.0319  0.0905
19030TIP3   OH278580   2.159   1.721   4.901 -0.0411  0.0750  0.6057
19030TIP3    H178581   2.093   1.656   4.924 -0.7793 -0.2344 -2.0610
19030TIP3    H278582   2.212   1.731   4.981 -2.3220 -0.8011  2.3350
19031TIP3   OH278583   7.004   5.216   1.879  0.1420  0.1669 -0.4344
19031TIP3    H178584   6.938   5.147   1.869  0.9008 -0.6838  0.2794
19031TIP3    H278585   7.040   5.228   1.791  0.8619 -1.2251 -0.3391
19032TIP3   OH278586   1.561   4.008  15.276  0.0006 -0.0226 -0.0212
19032TIP3    H178587   1.479   3.976  15.313  0.5685 -0.1328  1.1955
19032TIP3    H278588   1.535   4.069  15.207 -1.0883 -0.6588 -0.1857
19033TIP3   OH278589   1.061   2.503   3.762  0.2856 -0.3312  0.9213
19033TIP3    H178590   1.079   2.530   3.852  1.2805  1.5898  0.2098
19033TIP3    H278591   1.056   2.585   3.713 -1.9574 -1.2283 -0.5117
19034TIP3   OH278592   0.784   4.636   2.727  0.0127  0.9049  0.3155
19034TIP3    H178593   0.843   4.675   2.791  3.2565 -3.9519  0.8343
19034TIP3    H278594   0.835   4.633   2.646 -0.4266 -1.1867  0.0683
19035TIP3   OH278595   0.641   1.140   0.777 -0.1115 -0.3287 -0.1453
19035TIP3    H178596   0.721   1.141   0.830 -0.9061  0.4521  1.1072
19035TIP3    H278597   0.581   1.083   0.825  0.2413 -2.3620 -1.9949
19036TIP3   OH278598   1.167   1.552   3.421 -0.0929 -0.5087 -0.0256
19036TIP3    H178599   1.259   1.551   3.395  0.2098  0.7465  0.9050
19036TIP3    H278600   1.166   1.509   3.506 -0.1162  0.8231  0.6630
19037TIP3   OH278601   5.289   4.111   2.669  0.1051  0.1283  0.4613
19037TIP3    H178602   5.312   4.042   2.607 -0.0988 -0.4227  0.9933
19037TIP3    H278603   5.365   4.170   2.668  0.6050 -0.5057  0.5616
19038TIP3   OH278604   5.321   6.471  14.473  0.2395 -0.4883  0.3220
19038TIP3    H178605   5.293   6.381  14.457 -1.1593 -0.3590  1.8394
19038TIP3    H278606   5.297   6.488  14.564 -0.2470  1.6569 -0.1567
19039TIP3   OH278607   2.170   1.626   1.811 -0.4402 -0.1986 -0.2655
19039TIP3    H178608   2.117   1.706   1.810 -0.9777 -0.5038  1.4499
19039TIP3    H278609   2.132   1.572   1.741 -1.2086  0.3364 -0.2838
19040TIP3   OH278610   1.754   0.059   6.200 -0.1318 -0.8523  0.2931
19040TIP3    H178611   1.685  -0.008   6.206 -0.4643 -0.4479  1.2362
19040TIP3    H278612   1.830   0.019   6.240 -0.4169 -0.5819  1.1383
19041TIP3   OH278613   1.083   3.906   0.795 -0.1139 -0.1012 -0.2777
19041TIP3    H178614   1.002   3.952   0.816  0.5674  1.1151 -0.2243
19041TIP3    H278615   1.060   3.850   0.720 -0.5679  1.6293 -1.4976
19042TIP3   OH278616   2.240   4.481   2.406 -0.2247  0.0124 -0.3006
19042TIP3    H178617   2.157   4.527   2.418 -0.8159 -0.8533 -0.9712
19042TIP3    H278618   2.301   4.525   2.466 -1.1267  0.7366  0.1053
19043TIP3   OH278619   6.791   1.064  11.554  0.2957  0.2241 -0.3140
19043TIP3    H178620   6.881   1.067  11.525  0.1462  2.9795 -0.7349
19043TIP3    H278621   6.753   1.148  11.526 -2.7589 -1.3277 -1.2706
19044TIP3   OH278622   4.952   3.342  15.586  0.0746 -0.3074  0.1579
19044TIP3    H178623   4.930   3.257  15.546  0.6058  0.2321 -1.3606
19044TIP3    H278624   4.889   3.403  15.550  1.1088  0.3633 -0.5838
19045TIP3   OH278625   1.237   6.178   0.999 -0.1675  0.0658  0.6670
19045TIP3    H178626   1.175   6.116   1.037 -0.5872  0.7710  1.1650
19045TIP3    H278627   1.314   6.173   1.055 -0.0171 -0.3471  0.4253
19046TIP3   OH278628   0.189   1.888  14.318 -0.0172 -0.3387 -0.3143
19046TIP3    H178629   0.270   1.887  14.367  0.5296 -1.7491 -1.1955
19046TIP3    H278630   0.120   1.887  14.384  0.6914 -0.8981  0.4213
19047TIP3   OH278631   7.123   2.526   0.811  0.1933 -0.0319  0.4058
19047TIP3    H178632   7.208   2.570   0.802  1.1698 -1.6375  1.4109
19047TIP3    H278633   7.125   2.456   0.746 -0.5747  0.1846  0.1308
19048TIP3   OH278634   3.046   1.971   4.668  0.6422 -0.2575 -0.2452
19048TIP3    H178635   3.034   1.968   4.573 -1.4638  2.0577 -0.1663
19048TIP3    H278636   2.981   1.910   4.703 -0.2196  0.6095 -0.2783
19049TIP3   OH278637   4.630   5.159   4.337  0.0714 -0.0308 -0.0381
19049TIP3    H178638   4.692   5.153   4.410  1.2392 -1.0959 -1.0595
19049TIP3    H278639   4.595   5.071   4.328 -2.6972  0.8295  1.3554
19050TIP3   OH278640   6.742   1.380   3.086  0.3424  0.0189  0.4463
19050TIP3    H178641   6.676   1.318   3.117  1.4217  0.0087  2.9247
19050TIP3    H278642   6.810   1.378   3.152  0.8340  3.2341  0.2004
19051TIP3   OH278643   3.413   1.062   4.469 -0.3426  0.4551  0.0760
19051TIP3    H178644   3.365   1.071   4.552 -2.1774  0.9243 -0.9900
19051TIP3    H278645   3.347   1.074   4.401  0.8149 -1.4642 -1.4989
19052TIP3   OH278646   3.389   6.767   3.106 -0.6139 -0.4818 -0.0540
19052TIP3    H178647   3.434   6.685   3.089 -2.7732 -2.1549  1.7431
19052TIP3    H278648   3.396   6.779   3.201 -1.3064  0.8050 -0.1361
19053TIP3   OH278649   3.638   2.992   0.667 -0.1738  0.0250 -0.8401
19053TIP3    H178650   3.571   2.999   0.735 -0.1647  1.0237 -0.9311
19053TIP3    H278651   3.719   2.974   0.715 -0.7063 -2.7186 -0.8159
19054TIP3   OH278652   1.351   4.768   5.676  0.2973  0.0577  0.1807
19054TIP3    H178653   1.411   4.786   5.603  1.0031  1.4193  1.0588
19054TIP3    H278654   1.268   4.808   5.649  0.4783  0.3178  0.0058
19055TIP3   OH278655   4.339   2.190  15.477  0.3130  0.7543  0.0461
19055TIP3    H178656   4.326   2.137  15.555  0.7044  0.9140  0.2227
19055TIP3    H278657   4.254   2.191  15.433  0.1163  0.5950  0.4265
19056TIP3   OH278658   1.609   2.576   5.029 -0.2524 -0.2807  0.1798
19056TIP3    H178659   1.604   2.562   4.935 -2.2502 -1.3570  0.4112
19056TIP3    H278660   1.631   2.669   5.038  1.6120 -0.5056 -1.3004
19057TIP3   OH278661   3.862   0.438   1.410  0.0784 -0.3429 -0.6614
19057TIP3    H178662   3.931   0.372   1.411  0.6919  0.2743 -1.5354
19057TIP3    H278663   3.900   0.513   1.365 -0.4519  0.8100  0.7509
19058TIP3   OH278664   1.738   6.077  13.279 -0.1861 -0.3962 -0.1604
19058TIP3    H178665   1.832   6.064  13.285 -0.5779 -3.8743  0.5714
19058TIP3    H278666   1.715   6.131  13.355  1.1440  0.1709 -0.1493
19059TIP3   OH278667   3.263   2.897  11.496 -0.0069 -0.1342 -0.2769
19059TIP3    H178668   3.208   2.956  11.444 -0.0322  0.7223  0.7017
19059TIP3    H278669   3.279   2.944  11.578  1.0775 -0.9385 -0.0026
19060TIP3   OH278670   6.477   5.470   4.990  0.4672  0.0483  0.0626
19060TIP3    H178671   6.558   5.425   4.964  1.3736  0.9846  1.1533
19060TIP3    H278672   6.461   5.532   4.920 -1.0033 -2.1057 -1.6544
19061TIP3   OH278673   0.479   6.285   2.485 -0.4671  0.9046  0.0747
19061TIP3    H178674   0.560   6.265   2.439  0.6169 -1.3051  2.6830
19061TIP3    H278675   0.506   6.320   2.569 -2.1818  0.1740  0.9951
19062TIP3   OH278676   0.700   6.286   4.424  0.4528  0.4685  0.1656
19062TIP3    H178677   0.703   6.194   4.399 -0.4927  0.2373  0.8456
19062TIP3    H278678   0.661   6.331   4.350  0.4649  0.2544  0.0301
19063TIP3   OH278679   4.056   3.008   5.147  0.3995  0.0481  0.0165
19063TIP3    H178680   4.050   3.077   5.213 -1.5138 -0.4404  0.3973
19063TIP3    H278681   4.084   2.931   5.196 -1.1069 -0.3363  0.3112
19064TIP3   OH278682   0.504   5.888  12.523 -0.2663 -0.2621  0.3954
19064TIP3    H178683   0.536   5.805  12.488 -2.2537 -0.5470 -0.8851
19064TIP3    H278684   0.472   5.936  12.447 -3.0621 -0.1426  1.5269
19065TIP3   OH278685   1.082   1.448   3.914  0.2348 -0.2319  0.1299
19065TIP3    H178686   1.065   1.530   3.869 -0.7446  0.1349  1.1213
19065TIP3    H278687   1.085   1.383   3.844  1.0750  0.6366 -0.6678
19066TIP3   OH278688   5.789   2.302  15.743  0.3641 -0.7149 -0.1715
19066TIP3    H178689   5.781   2.207  15.745  2.1463 -1.0623 -3.1489
19066TIP3    H278690   5.765   2.326  15.653  0.3892  1.6259  0.3730
19067TIP3   OH278691   0.926   6.877  15.473  0.5670  0.2675  0.2730
19067TIP3    H178692   0.890   6.847  15.556  1.1871 -0.9049  0.1328
19067TIP3    H278693   1.004   6.927  15.497  0.0726  0.9670  0.4523
19068TIP3   OH278694   5.318   0.867   4.062  0.1854 -0.4246 -0.1430
19068TIP3    H178695   5.253   0.858   3.992 -2.9125  3.0080  1.9517
19068TIP3    H278696   5.386   0.923   4.024 -0.7450  0.2362 -0.8883
19069TIP3   OH278697   0.547   2.554  15.617  0.0684 -0.9383  0.0781
19069TIP3    H178698   0.506   2.495  15.554  0.4174 -0.1400 -0.9175
19069TIP3    H278699   0.639   2.527  15.619  0.0157 -1.1020  0.4210
19070TIP3   OH278700   4.813   7.117   9.648  0.1216 -0.7792 -0.6965
19070TIP3    H178701   4.892   7.159   9.615 -0.5513  0.0753 -1.2765
19070TIP3    H278702   4.844   7.035   9.688  1.4824  0.2229  0.4224
19071TIP3   OH278703   3.938   0.259   3.956  0.4063 -0.0596  0.6721
19071TIP3    H178704   3.992   0.337   3.951  1.7402 -0.6666  3.3511
19071TIP3    H278705   3.859   0.287   4.003 -0.3265  0.2071 -0.6880
19072TIP3   OH278706   0.905   3.232   0.707 -0.6121 -0.1508  0.3338
19072TIP3    H178707   0.825   3.278   0.680  0.7601  1.8575 -0.5215
19072TIP3    H278708   0.934   3.280   0.784  0.0848 -0.4817  0.2766
19073TIP3   OH278709   4.358   1.668   0.796  0.8410  0.2576  0.0617
19073TIP3    H178710   4.337   1.576   0.777  1.0234  0.3312 -0.5143
19073TIP3    H278711   4.447   1.680   0.763  1.1365  0.4215  0.8961
19074TIP3   OH278712   4.771   0.551   3.019  0.1192 -0.5323  0.0131
19074TIP3    H178713   4.829   0.538   2.944 -0.0525  1.3710 -0.4969
19074TIP3    H278714   4.774   0.646   3.035 -1.5313 -0.6270  1.0484
19075TIP3   OH278715   4.235   6.694   1.144  0.8148 -0.0584 -0.4618
19075TIP3    H178716   4.293   6.719   1.072  1.5503 -0.6517 -0.0843
19075TIP3    H278717   4.269   6.610   1.175 -0.4417 -0.5938 -0.4429
19076TIP3   OH278718   5.607   6.722  14.264 -0.2900 -0.2430  0.0819
19076TIP3    H178719   5.665   6.792  14.238 -0.8950 -0.1905 -1.1695
19076TIP3    H278720   5.661   6.665  14.320  0.3287  0.9374  0.7084
19077TIP3   OH278721   2.316   6.680  14.458 -0.5872  0.0900  0.5023
19077TIP3    H178722   2.402   6.678  14.499 -0.6252  0.6232  0.6124
19077TIP3    H278723   2.324   6.620  14.383 -0.2244 -0.1174  0.7045
19078TIP3   OH278724   1.634   1.081  11.441  0.2268 -0.1602 -0.3780
19078TIP3    H178725   1.610   0.989  11.429  1.1575 -0.3537 -0.8639
19078TIP3    H278726   1.611   1.123  11.358  0.2854 -0.0625 -0.3454
19079TIP3   OH278727   1.075   0.310  14.175 -0.5941  0.1752  0.0612
19079TIP3    H178728   1.053   0.304  14.082 -1.6144 -2.7487  0.3902
19079TIP3    H278729   1.009   0.257  14.219  0.1329  1.0990  2.4377
19080TIP3   OH278730   3.527   1.897   0.264  0.1746 -0.4117 -0.2784
19080TIP3    H178731   3.579   1.927   0.190  0.5150 -0.8496 -0.2151
19080TIP3    H278732   3.504   1.978   0.311  1.0060 -0.2409 -0.1606
19081TIP3   OH278733   6.051   5.272   1.813  0.3065  0.2523  0.0277
19081TIP3    H178734   6.085   5.200   1.760  0.1802 -0.0066  0.2986
19081TIP3    H278735   6.077   5.351   1.765 -0.8999  0.0022 -1.1179
19082TIP3   OH278736   5.969   5.494  11.933 -0.0167  0.5385  0.0666
19082TIP3    H178737   5.940   5.461  12.019 -0.0223  0.2413 -0.0465
19082TIP3    H278738   6.043   5.550  11.953  0.8007 -0.5442  0.1658
19083TIP3   OH278739   2.966   2.992   4.101  0.5997  0.5936  0.2039
19083TIP3    H178740   2.922   2.996   4.186 -0.4312 -1.2019 -0.1800
19083TIP3    H278741   2.949   2.903   4.070  1.4409  1.0253 -1.6394
19084TIP3   OH278742   5.532   3.489  13.289 -0.2425  0.4517  0.4235
19084TIP3    H178743   5.580   3.469  13.208  0.1790 -1.1775  1.0462
19084TIP3    H278744   5.479   3.565  13.266  0.0175  0.1604 -1.3367
19085TIP3   OH278745   5.055   4.156   1.821 -0.7742 -0.7327 -0.0782
19085TIP3    H178746   5.068   4.250   1.809 -2.0593 -0.4871  0.2724
19085TIP3    H278747   5.028   4.147   1.912  3.0859 -1.9190  1.1575
19086TIP3   OH278748   1.609   2.375  10.932 -0.6465 -0.5998  0.0730
19086TIP3    H178749   1.649   2.334  11.009  0.6906  0.1821 -0.1747
19086TIP3    H278750   1.649   2.332  10.857 -0.4025  0.0487 -0.1805
19087TIP3   OH278751   0.202   0.765   5.038  0.1870  0.5928  0.1507
19087TIP3    H178752   0.283   0.788   5.084  1.0532 -0.5802 -0.7125
19087TIP3    H278753   0.232   0.718   4.960 -1.3476 -0.1669 -0.0142
19088TIP3   OH278754   1.829   5.860  11.829 -0.3193  0.5492 -0.0713
19088TIP3    H178755   1.743   5.849  11.871 -0.3264 -0.1006 -0.2389
19088TIP3    H278756   1.818   5.936  11.772 -0.8572  0.3322 -0.2633
19089TIP3   OH278757   1.639   0.636   3.453 -0.0523 -0.1227  0.1364
19089TIP3    H178758   1.620   0.665   3.542  1.7378 -0.1667  0.5562
19089TIP3    H278759   1.617   0.543   3.452 -0.1071 -0.1135  0.5110
19090TIP3   OH278760   2.522   6.708   5.759 -0.0461 -0.0762  0.0666
19090TIP3    H178761   2.479   6.765   5.822  0.4863  0.0576  0.3105
19090TIP3    H278762   2.615   6.729   5.766  0.5798 -2.9560  2.2423
19091TIP3   OH278763   2.719   0.914   2.829 -0.3086  0.2288 -0.2482
19091TIP3    H178764   2.699   1.006   2.845 -1.7902  0.1096 -1.2155
19091TIP3    H278765   2.636   0.877   2.798  0.0444 -1.6054  0.8436
19092TIP3   OH278766   2.712   6.419  13.850 -0.1542 -0.0719 -0.2012
19092TIP3    H178767   2.646   6.486  13.865 -0.6298 -0.5912  0.0660
19092TIP3    H278768   2.771   6.425  13.925 -0.7634 -0.6045  0.3361
19093TIP3   OH278769   6.844   6.604   4.108  0.1693  0.2983  0.2793
19093TIP3    H178770   6.796   6.535   4.153 -1.5842  0.7347 -0.8423
19093TIP3    H278771   6.849   6.675   4.171  3.3213 -1.2492  2.0236
19094TIP3   OH278772   4.805   2.795   0.231  0.3166 -0.4436  0.1503
19094TIP3    H178773   4.837   2.843   0.307 -0.5464  0.4441 -0.0325
19094TIP3    H278774   4.794   2.705   0.262 -1.9838  0.2706  1.7030
19095TIP3   OH278775   3.181   5.448   1.103 -0.2462 -0.0938  0.4439
19095TIP3    H178776   3.263   5.413   1.068 -0.2658  0.2224  0.0621
19095TIP3    H278777   3.126   5.372   1.119  0.3824 -0.3602  1.3848
19096TIP3   OH278778   0.795   0.765  10.937  0.6339  0.4326  0.6732
19096TIP3    H178779   0.734   0.691  10.935  1.3693 -0.1976  0.8355
19096TIP3    H278780   0.755   0.831  10.882 -0.8078  0.5286  1.7751
19097TIP3   OH278781   6.608   3.713   2.450 -0.1440  0.4457 -0.1266
19097TIP3    H178782   6.557   3.775   2.502 -0.2190 -0.1409  0.5038
19097TIP3    H278783   6.669   3.674   2.512 -1.7829 -1.9859  0.1010
19098TIP3   OH278784   5.705   5.365  12.915 -0.2088 -0.3068 -0.4594
19098TIP3    H178785   5.775   5.317  12.871  1.3980  2.1213 -0.7425
19098TIP3    H278786   5.688   5.440  12.859  0.0052  1.4275  1.6379
19099TIP3   OH278787   3.441   2.027  12.388 -0.1223 -0.1664 -0.3447
19099TIP3    H178788   3.482   1.941  12.372  0.3212  0.0299 -0.2746
19099TIP3    H278789   3.350   2.006  12.408  0.0827 -0.6570  0.1114
19100TIP3   OH278790   5.174   0.041   0.498  0.1341  0.6403 -0.2182
19100TIP3    H178791   5.190   0.136   0.495  2.0004  0.3627 -2.9257
19100TIP3    H278792   5.260   0.003   0.518 -0.8991 -0.5182  2.4180
19101TIP3   OH278793   2.837   1.225   4.473 -0.0982  0.5893 -0.3950
19101TIP3    H178794   2.747   1.244   4.447 -0.2286  0.5955  0.0590
19101TIP3    H278795   2.829   1.164   4.546  0.2688  0.5727 -0.3669
19102TIP3   OH278796   5.502   2.195   4.930  0.0721 -0.2212  1.2989
19102TIP3    H178797   5.415   2.209   4.892  1.0692 -1.4770 -1.7591
19102TIP3    H278798   5.489   2.127   4.996 -1.3562  0.1027  1.3723
19103TIP3   OH278799   1.879   4.364   1.434 -0.0765 -0.5241  0.6200
19103TIP3    H178800   1.888   4.457   1.457  1.2797 -0.7052  0.8821
19103TIP3    H278801   1.930   4.354   1.354  0.4756 -1.2143  1.0492
19104TIP3   OH278802   6.851   3.983  13.446  0.1681 -0.0163 -0.0703
19104TIP3    H178803   6.825   3.947  13.360  1.0415 -0.7198 -0.0510
19104TIP3    H278804   6.946   3.987  13.443  0.1597  0.9944  0.4749
19105TIP3   OH278805   1.690   4.113   1.620 -0.1250  0.0651  0.0991
19105TIP3    H178806   1.785   4.124   1.617 -0.1783  0.5560  0.2471
19105TIP3    H278807   1.654   4.196   1.590 -0.5122  0.1564  0.7892
19106TIP3   OH278808   0.303   3.990   1.822  0.5262 -0.6224 -0.2617
19106TIP3    H178809   0.265   4.002   1.909  0.7266 -0.6169 -0.1747
19106TIP3    H278810   0.397   4.001   1.835  0.6088 -1.1415 -0.3835
19107TIP3   OH278811   6.318   5.634   5.183 -0.0396  0.5160 -0.1431
19107TIP3    H178812   6.320   5.551   5.133  2.6954 -1.6008  3.0713
19107TIP3    H278813   6.379   5.691   5.136  1.6342 -1.0141  0.0550
19108TIP3   OH278814   4.787   5.912   2.320  0.0838  0.0662 -0.1116
19108TIP3    H178815   4.692   5.926   2.315 -0.0395 -0.0120  1.5170
19108TIP3    H278816   4.825   5.994   2.288 -0.5391  0.1315 -0.6920
19109TIP3   OH278817   6.165   4.188   3.034 -0.8149  0.9543 -0.0626
19109TIP3    H178818   6.203   4.249   3.096  1.0123 -0.0880 -0.0802
19109TIP3    H278819   6.186   4.225   2.948  0.1361  0.4185 -0.0715
19110TIP3   OH278820   2.030   1.032   2.494 -0.0414 -0.2558  0.0437
19110TIP3    H178821   2.011   0.975   2.568 -0.5316 -1.3167 -0.8774
19110TIP3    H278822   2.029   0.975   2.417  1.4290  0.6328 -0.6949
19111TIP3   OH278823   1.891   6.462   1.865 -0.0986 -0.0111  0.1437
19111TIP3    H178824   1.804   6.494   1.891 -0.9538 -2.6798  0.9259
19111TIP3    H278825   1.879   6.431   1.775  0.2909  0.3713 -0.0438
19112TIP3   OH278826   5.651   2.604   4.693  0.0054  0.0310 -0.0702
19112TIP3    H178827   5.715   2.536   4.711 -3.8337 -3.6061  1.2064
19112TIP3    H278828   5.653   2.614   4.597 -0.3018 -3.1253 -0.5104
19113TIP3   OH278829   3.609   6.038   2.953  0.1287 -0.1659  1.0661
19113TIP3    H178830   3.658   5.996   3.024  1.7977 -0.0692  0.0252
19113TIP3    H278831   3.670   6.104   2.919  0.5196 -1.9999 -2.2162
19114TIP3   OH278832   6.485   5.051  14.609  1.0472 -0.0659 -0.5099
19114TIP3    H178833   6.562   5.046  14.553  1.4928  1.5835 -0.1022
19114TIP3    H278834   6.519   5.038  14.698  0.4581 -1.8658 -0.4909
19115TIP3   OH278835   6.110   6.594  14.694 -0.4507 -0.2807 -0.5971
19115TIP3    H178836   6.027   6.567  14.733  0.7008 -1.7077  1.0797
19115TIP3    H278837   6.103   6.568  14.602 -0.9067 -2.9195  0.0962
19116TIP3   OH278838   2.594   4.118  15.383 -0.9420 -0.0826  0.0043
19116TIP3    H178839   2.504   4.097  15.357 -1.8697  1.3825  1.7687
19116TIP3    H278840   2.586   4.202  15.429  0.8160 -1.3575  2.8998
19117TIP3   OH278841   3.769   4.486   2.028  0.3901  0.1662 -0.1481
19117TIP3    H178842   3.856   4.455   2.003  0.5697 -2.6099  3.1561
19117TIP3    H278843   3.709   4.445   1.965  1.2051 -1.6929  0.2179
19118TIP3   OH278844   4.021   3.720   3.827 -0.6782  0.3474 -0.2742
19118TIP3    H178845   3.954   3.762   3.881  0.1227  1.1969  0.0824
19118TIP3    H278846   4.067   3.793   3.785  0.8630 -0.1365  0.4997
19119TIP3   OH278847   4.231   6.841   4.918  0.2357 -0.3473 -0.2953
19119TIP3    H178848   4.251   6.860   5.009  1.0946  1.1805 -0.7780
19119TIP3    H278849   4.287   6.766   4.897 -2.8531 -3.4922  1.4833
19120TIP3   OH278850   6.175   4.440  15.572 -0.5891 -0.3401  0.3863
19120TIP3    H178851   6.090   4.443  15.529 -0.5342  0.5209  0.3226
19120TIP3    H278852   6.201   4.532  15.580  1.2178 -0.6324 -1.3501
19121TIP3   OH278853   4.189   0.015   2.826  0.4119 -0.0597 -0.2692
19121TIP3    H178854   4.176   0.004   2.920 -0.1399 -1.3813 -0.4770
19121TIP3    H278855   4.127   0.083   2.801 -0.4508 -0.6824  0.1098
19122TIP3   OH278856   5.131   2.373  14.924  0.1003  0.2553  0.0744
19122TIP3    H178857   5.141   2.399  15.016 -1.2223  1.7278 -0.1721
19122TIP3    H278858   5.055   2.315  14.923 -1.5229  2.3023 -0.4195
19123TIP3   OH278859   3.408   0.303   3.929 -0.2467 -0.2670 -0.5641
19123TIP3    H178860   3.398   0.225   3.876 -1.9810 -0.6043  0.1677
19123TIP3    H278861   3.393   0.376   3.869  2.0358 -0.4027 -1.3928
19124TIP3   OH278862   1.037   1.545   0.947 -0.3944 -0.0227 -0.0744
19124TIP3    H178863   0.987   1.475   0.905  0.2309 -0.1303 -0.6678
19124TIP3    H278864   0.977   1.620   0.948 -1.0574 -0.5528  0.5478
19125TIP3   OH278865   1.225   5.785  12.414  0.4828  0.2305  0.0585
19125TIP3    H178866   1.162   5.855  12.397 -0.1566 -0.6412 -1.3136
19125TIP3    H278867   1.251   5.799  12.505 -1.5097  0.7947  0.6101
19126TIP3   OH278868   6.856   5.386   3.765 -0.3064 -0.0341 -0.3472
19126TIP3    H178869   6.766   5.355   3.774  0.0804 -0.8860  0.9784
19126TIP3    H278870   6.907   5.306   3.751  0.7455 -0.2195  3.3562
19127TIP3   OH278871   1.435   4.721   5.393  0.0992 -0.5750 -0.4623
19127TIP3    H178872   1.469   4.632   5.397 -1.1623 -1.0266  2.0686
19127TIP3    H278873   1.344   4.712   5.366  0.2347  0.0654 -1.1889
19128TIP3   OH278874   6.740   4.308   4.954  0.5771 -0.0043 -0.5121
19128TIP3    H178875   6.657   4.348   4.982  0.4105 -0.2114 -0.7077
19128TIP3    H278876   6.756   4.239   5.018  0.5888  0.0230 -0.4856
19129TIP3   OH278877   4.493   4.889   4.464 -1.0576 -0.1837  0.4579
19129TIP3    H178878   4.504   4.803   4.423  0.0404  0.6089 -0.9856
19129TIP3    H278879   4.478   4.869   4.556  1.4784 -1.8589  0.6103
19130TIP3   OH278880   1.844   1.861  13.147  0.1713 -0.3827  0.0128
19130TIP3    H178881   1.755   1.848  13.114 -0.9315  1.3462  2.0619
19130TIP3    H278882   1.834   1.860  13.243  2.4101 -0.3463  0.2985
19131TIP3   OH278883   6.210   5.015   3.043 -0.3732  0.4025  1.0430
19131TIP3    H178884   6.140   4.976   2.990  1.1053  0.8022 -1.3519
19131TIP3    H278885   6.171   5.095   3.079 -0.9397  1.0696 -0.9468
19132TIP3   OH278886   1.922   4.789  15.637 -0.2771  0.5162 -0.3256
19132TIP3    H178887   1.960   4.855  15.696  1.2717 -0.6063 -0.0010
19132TIP3    H278888   1.832   4.819  15.622 -0.1562  1.7680  1.1930
19133TIP3   OH278889   1.933   4.584   1.104 -0.6345  0.0383 -0.5764
19133TIP3    H178890   1.886   4.624   1.177  0.3563  1.1668 -0.5468
19133TIP3    H278891   1.879   4.508   1.080 -1.5413  0.2902  0.5977
19134TIP3   OH278892   2.332   1.391   5.151  0.1360 -0.3349 -0.4521
19134TIP3    H178893   2.248   1.430   5.177  0.7050  0.1138  0.7769
19134TIP3    H278894   2.348   1.426   5.063 -1.2287 -0.8816 -0.9471
19135TIP3   OH278895   4.433   1.311   2.653  0.2317 -0.0833  0.1656
19135TIP3    H178896   4.520   1.329   2.690  0.4931  1.8937 -1.2690
19135TIP3    H278897   4.387   1.264   2.723  2.7461 -2.1388  0.6054
19136TIP3   OH278898   5.398   4.003  15.026  0.3623 -0.0065 -0.3224
19136TIP3    H178899   5.493   4.011  15.037  0.1087  2.0498  0.9389
19136TIP3    H278900   5.362   4.044  15.104 -1.5927 -2.3977  0.1238
19137TIP3   OH278901   6.069   5.957  13.480 -0.0231  0.1235 -0.4569
19137TIP3    H178902   6.084   5.863  13.491  0.1445  0.2346  0.2928
19137TIP3    H278903   5.977   5.969  13.504  0.1047  0.2350 -0.0241
19138TIP3   OH278904   2.353   2.328   4.801 -0.3641  0.1751 -0.3169
19138TIP3    H178905   2.297   2.291   4.732 -2.3523  0.7862  0.9050
19138TIP3    H278906   2.292   2.363   4.865  1.3244 -1.9925  2.7113
19139TIP3   OH278907   4.469   1.034   2.133 -0.0702 -0.3914 -0.1564
19139TIP3    H178908   4.375   1.023   2.118  0.1175 -1.9038 -0.3343
19139TIP3    H278909   4.482   1.010   2.224 -0.0721  1.4496  0.3734
19140TIP3   OH278910   6.812   4.106   0.735 -0.2495 -0.4219  0.6918
19140TIP3    H178911   6.853   4.105   0.821 -0.5371  0.4029  0.8478
19140TIP3    H278912   6.858   4.038   0.685  0.3786 -0.4313  1.2789
19141TIP3   OH278913   2.590   0.661   4.152  0.0508 -0.4237  0.0116
19141TIP3    H178914   2.620   0.571   4.166 -0.9608 -0.5868  1.4150
19141TIP3    H278915   2.547   0.684   4.234 -0.5319  1.0173 -0.6706
19142TIP3   OH278916   4.121   3.177   3.962  0.1711  0.3965  0.4561
19142TIP3    H178917   4.027   3.179   3.944  0.3424 -1.1532 -0.9072
19142TIP3    H278918   4.157   3.252   3.915 -0.2977  0.6028  0.4252
19143TIP3   OH278919   5.136   7.159  14.349  0.0772  0.3169 -0.4002
19143TIP3    H178920   5.181   7.240  14.327  0.8380 -0.3982 -1.5531
19143TIP3    H278921   5.068   7.185  14.411 -1.0304  2.1634 -2.2766
19144TIP3   OH278922   2.321   2.060  14.933 -0.2143 -0.2049 -0.0655
19144TIP3    H178923   2.286   2.058  14.844 -1.4519  0.1695  0.3801
19144TIP3    H278924   2.299   2.148  14.965  2.2219  0.4870 -0.1316
19145TIP3   OH278925   3.096   5.154   4.428 -0.3572  0.7085 -0.5108
19145TIP3    H178926   3.110   5.077   4.483 -1.1585  0.2713 -0.9043
19145TIP3    H278927   3.006   5.146   4.398 -1.4312  3.1845  1.6420
19146TIP3   OH278928   3.301   1.402   3.161 -0.3563  0.6719 -0.5746
19146TIP3    H178929   3.282   1.436   3.248  1.1017  0.6736 -0.2328
19146TIP3    H278930   3.295   1.307   3.170 -0.3091  0.6764 -0.4997
19147TIP3   OH278931   0.612   5.068   5.714 -0.1131  0.2020  0.0318
19147TIP3    H178932   0.658   5.062   5.798 -1.2935 -0.9362  0.6266
19147TIP3    H278933   0.532   5.117   5.734 -0.9401 -1.0211 -0.1567
19148TIP3   OH278934   5.828   3.426   4.483  0.4604  0.0419  0.0639
19148TIP3    H178935   5.784   3.462   4.406  1.6992  1.1849 -0.1444
19148TIP3    H278936   5.891   3.363   4.448 -0.1942 -0.7383  0.2764
19149TIP3   OH278937   6.703   0.148   2.748  0.8890  0.4502 -0.2177
19149TIP3    H178938   6.776   0.209   2.755 -0.5694  2.2123  0.6342
19149TIP3    H278939   6.653   0.179   2.672  0.8241 -0.4893 -0.5632
19150TIP3   OH278940   4.371   3.180  15.551 -0.6403 -0.0282 -0.2748
19150TIP3    H178941   4.276   3.168  15.553 -0.7290  0.7101  0.6415
19150TIP3    H278942   4.405   3.116  15.612 -0.8277  1.7041  1.7777
19151TIP3   OH278943   1.375   0.691  13.681  0.3613 -0.1235  0.4137
19151TIP3    H178944   1.316   0.632  13.727 -1.0917  1.6504  0.9418
19151TIP3    H278945   1.437   0.720  13.748 -0.9373  1.4197  1.0170
19152TIP3   OH278946   0.926   4.415   3.768 -0.1603  0.1641  0.1467
19152TIP3    H178947   0.852   4.368   3.729 -0.2932 -0.6480  1.3238
19152TIP3    H278948   1.003   4.373   3.731 -0.2761  0.2630 -0.2161
19153TIP3   OH278949   5.118   0.242   3.839  0.3091  0.1830 -0.1340
19153TIP3    H178950   5.132   0.174   3.905  1.8924  1.0615  0.5158
19153TIP3    H278951   5.069   0.199   3.769 -0.4946 -1.0612  1.1521
19154TIP3   OH278952   6.762   4.429   5.419 -0.2320 -0.6848  0.4249
19154TIP3    H178953   6.689   4.441   5.480 -0.2745 -1.0622  0.4550
19154TIP3    H278954   6.752   4.339   5.388 -1.0084 -0.0605 -1.2093
19155TIP3   OH278955   0.102   6.298  13.164 -0.5884 -0.3416 -0.6080
19155TIP3    H178956   0.046   6.227  13.134 -2.6422  1.2069 -0.6379
19155TIP3    H278957   0.105   6.359  13.091  1.5803 -0.5847 -0.7776
19156TIP3   OH278958   1.705   4.610   0.169 -0.4766  0.7550 -0.1706
19156TIP3    H178959   1.630   4.643   0.119 -0.5703 -0.0216 -0.5666
19156TIP3    H278960   1.739   4.686   0.215 -2.2940  0.8995  1.0387
19157TIP3   OH278961   6.264   4.445   5.105 -0.2419 -0.0856 -0.4779
19157TIP3    H178962   6.289   4.431   5.197  1.0908  1.2518 -0.5978
19157TIP3    H278963   6.168   4.450   5.106 -0.2861 -0.8191  0.7213
19158TIP3   OH278964   5.253   6.945   4.016  0.1523  0.0293  0.0411
19158TIP3    H178965   5.273   6.853   4.004  1.6702  0.5241 -1.7434
19158TIP3    H278966   5.210   6.971   3.935 -0.4844  0.8401  0.6223
19159TIP3   OH278967   3.969   3.667   4.556 -0.1434 -0.0868 -0.8077
19159TIP3    H178968   4.051   3.669   4.605  0.8051  1.0160 -2.3405
19159TIP3    H278969   3.904   3.699   4.617  1.0885  1.7481 -0.3846
19160TIP3   OH278970   2.884   3.133  15.243  0.5032  0.6792 -0.0447
19160TIP3    H178971   2.890   3.039  15.262  0.6085  0.6058 -0.4312
19160TIP3    H278972   2.909   3.175  15.325 -0.5248  0.3735  0.4439
19161TIP3   OH278973   4.439   5.230  14.620 -0.2554  0.3141  0.3016
19161TIP3    H178974   4.344   5.228  14.632 -0.1704  0.4828  1.0271
19161TIP3    H278975   4.472   5.277  14.696  0.5831 -1.5114  1.1149
19162TIP3   OH278976   4.963   4.300   5.286 -0.1367 -0.2470 -0.1860
19162TIP3    H178977   4.906   4.243   5.234 -2.2766  0.0053  1.7036
19162TIP3    H278978   4.963   4.261   5.373 -1.1480  2.1971  1.0165
19163TIP3   OH278979   5.075   6.386   4.894 -0.2358 -0.1583  0.1134
19163TIP3    H178980   4.982   6.368   4.884 -0.3491  0.7888 -0.6798
19163TIP3    H278981   5.088   6.393   4.989 -1.2311  0.9309  0.2023
19164TIP3   OH278982   4.858   0.772   5.282  0.6446 -0.1560  0.8024
19164TIP3    H178983   4.917   0.803   5.351  0.7605  0.8815  0.2528
19164TIP3    H278984   4.773   0.807   5.306  0.8366  0.8861  0.0071
19165TIP3   OH278985   2.579   3.027   0.448 -0.2762 -0.3438  0.4427
19165TIP3    H178986   2.533   2.945   0.469  1.9026 -1.9664 -0.6607
19165TIP3    H278987   2.543   3.053   0.363 -2.0368  0.7320  1.4703
19166TIP3   OH278988   5.097   1.302   2.987  0.7283  0.1232  0.4201
19166TIP3    H178989   5.104   1.397   2.989  0.5817  0.1596 -0.3350
19166TIP3    H278990   5.139   1.273   3.068  0.2555  0.8566  0.9446
19167TIP3   OH278991   5.706   6.752  14.703 -0.3455 -0.0584 -0.0487
19167TIP3    H178992   5.677   6.790  14.786 -0.8644  2.4503 -1.2780
19167TIP3    H278993   5.660   6.803  14.637 -0.3894 -2.3600 -1.9002
19168TIP3   OH278994   1.866   5.773   2.707  0.2358  0.4316 -0.0615
19168TIP3    H178995   1.780   5.773   2.665  0.7390 -1.2535 -1.2412
19168TIP3    H278996   1.923   5.728   2.644  1.3519 -1.0205  1.8617
19169TIP3   OH278997   5.113   2.305   2.270 -1.0493  0.4568 -0.0748
19169TIP3    H178998   5.020   2.326   2.260 -1.0168  0.2686 -0.7910
19169TIP3    H278999   5.150   2.316   2.182 -0.6465 -0.7181 -0.0633
19170TIP3   OH279000   2.331   4.514  15.374  0.3075  0.1009  0.1397
19170TIP3    H179001   2.385   4.470  15.438 -0.2102  0.9146  1.1681
19170TIP3    H279002   2.244   4.518  15.413  0.1162  1.1516 -0.3302
19171TIP3   OH279003   1.679   3.608   5.347  0.1669  0.6152  0.3052
19171TIP3    H179004   1.672   3.543   5.277 -0.5003 -1.1357  1.8959
19171TIP3    H279005   1.745   3.670   5.316 -1.4322  1.0247 -2.6553
19172TIP3   OH279006   7.004   1.705  15.366  0.1146 -0.6737 -0.2373
19172TIP3    H179007   7.061   1.744  15.299  1.1984 -2.2896 -0.3148
19172TIP3    H279008   6.921   1.690  15.320  0.7976 -1.6226 -1.2075
19173TIP3   OH279009   3.167   5.236   3.617 -0.5697  0.1317  0.1189
19173TIP3    H179010   3.134   5.289   3.544  0.1761 -2.3099 -2.1532
19173TIP3    H279011   3.262   5.249   3.615 -0.3784 -1.1635 -0.4508
19174TIP3   OH279012   6.084   4.210   0.899  0.1795  0.1040  0.0550
19174TIP3    H179013   6.118   4.121   0.902  1.1568  0.4776  0.5972
19174TIP3    H279014   5.997   4.204   0.938 -0.2712 -0.8191 -1.0394
19175TIP3   OH279015   0.329   3.413   5.038 -0.2767  0.3955  0.4217
19175TIP3    H179016   0.376   3.436   5.119  1.0696 -0.6506 -0.0126
19175TIP3    H279017   0.352   3.321   5.023  0.5724  0.9279 -1.8461
19176TIP3   OH279018   6.052   2.900   3.470 -0.3945  0.3898 -0.0984
19176TIP3    H179019   5.979   2.837   3.474 -1.1270  1.2686  1.1129
19176TIP3    H279020   6.084   2.894   3.380 -0.7930 -1.3124 -0.1615
19177TIP3   OH279021   2.597   1.179   4.879  0.3117 -0.4898  0.0602
19177TIP3    H179022   2.540   1.254   4.896  2.6283  1.0655  1.5656
19177TIP3    H279023   2.585   1.122   4.955 -0.4313 -0.9968 -0.4261
19178TIP3   OH279024   6.989   3.044  14.989 -0.3968  0.4001  0.8816
19178TIP3    H179025   6.991   3.120  14.931  1.8266  0.0533  0.3856
19178TIP3    H279026   6.914   3.059  15.046 -2.7840  0.7418 -2.0575
19179TIP3   OH279027   4.612   1.136  11.431  0.3507  0.1615 -0.3331
19179TIP3    H179028   4.663   1.139  11.350 -0.2585 -0.6109 -0.7648
19179TIP3    H279029   4.582   1.045  11.436  0.5318  0.1543  0.8624
19180TIP3   OH279030   0.160   4.955   1.172 -0.0596 -0.4887  0.4354
19180TIP3    H179031   0.196   4.917   1.092  1.1031  0.8700  0.2603
19180TIP3    H279032   0.236   4.965   1.230 -0.4170  0.9768  0.6841
19181TIP3   OH279033   6.816   0.497   4.570  0.8999 -0.0070  0.1873
19181TIP3    H179034   6.851   0.579   4.536 -0.3581  0.0707 -1.0124
19181TIP3    H279035   6.871   0.476   4.645  0.6308  2.4666  1.1406
19182TIP3   OH279036   0.343   2.205   4.772  0.2386  0.0215 -0.1975
19182TIP3    H179037   0.411   2.180   4.835  0.1921  0.4378  0.0177
19182TIP3    H279038   0.385   2.268   4.714 -0.0573  0.5447  0.1470
19183TIP3   OH279039   6.019   6.424   4.465 -0.0530  0.7842  0.6933
19183TIP3    H179040   5.990   6.506   4.505  1.8089  1.6597  0.3414
19183TIP3    H279041   6.075   6.451   4.393 -1.2710 -0.8087 -0.9231
19184TIP3   OH279042   4.854   4.058   3.201 -0.2196 -0.0276 -0.7143
19184TIP3    H179043   4.848   4.147   3.164  2.7568  0.2962 -0.6313
19184TIP3    H279044   4.811   4.003   3.135 -0.6614  1.2808 -1.5733
19185TIP3   OH279045   6.186   1.588  11.891 -0.5688 -0.1593 -0.1891
19185TIP3    H179046   6.205   1.600  11.984  0.6687  2.1617 -0.6742
19185TIP3    H279047   6.116   1.523  11.890  0.9962 -2.1033  2.2205
19186TIP3   OH279048   1.381   3.985   4.360  0.1777  0.1767 -0.2545
19186TIP3    H179049   1.322   3.911   4.341 -2.6748  2.1573  0.2403
19186TIP3    H279050   1.419   3.964   4.445 -0.8869 -0.5597  0.0612
19187TIP3   OH279051   4.797   3.990   3.440  0.5147 -0.0820 -0.3677
19187TIP3    H179052   4.809   4.022   3.350  0.1469 -1.3865 -0.9072
19187TIP3    H279053   4.857   3.915   3.447 -0.0436 -0.4883  0.1913
19188TIP3   OH279054   6.548   6.191   5.537 -0.5959  0.1972  0.2365
19188TIP3    H179055   6.499   6.269   5.561 -0.5626  0.3692 -0.2528
19188TIP3    H279056   6.554   6.141   5.619  1.2462  1.7062  1.1293
19189TIP3   OH279057   5.388   1.509  15.061 -0.0064  0.3724 -0.3910
19189TIP3    H179058   5.469   1.472  15.027 -0.1489 -1.2427  0.9073
19189TIP3    H279059   5.319   1.448  15.033 -0.1758 -0.7891  2.2620
19190TIP3   OH279060   1.954   0.024   5.500  0.1205  0.0829  0.0049
19190TIP3    H179061   1.881  -0.019   5.545  0.1751  0.3169  0.3234
19190TIP3    H279062   1.942   0.117   5.520  1.8802 -0.0786  2.1237
19191TIP3   OH279063   5.377   5.792   5.879  0.1725 -0.5722  0.2845
19191TIP3    H179064   5.290   5.780   5.919 -0.3622 -0.7263 -0.8991
19191TIP3    H279065   5.416   5.862   5.930 -1.6185  1.2162 -0.6472
19192TIP3   OH279066   5.758   5.312   5.239 -0.1811  0.9194  0.0143
19192TIP3    H179067   5.691   5.379   5.228 -1.5742 -0.2472  1.0386
19192TIP3    H279068   5.741   5.274   5.325  0.9982 -0.2798 -0.2470
19193TIP3   OH279069   4.085   6.625  15.065 -0.4848  0.3422 -0.8160
19193TIP3    H179070   4.116   6.715  15.053 -1.9365  0.9787 -0.0326
19193TIP3    H279071   4.096   6.584  14.979  3.0226  0.2887 -0.4784
19194TIP3   OH279072   1.672   1.900   2.423 -0.3477  0.0648 -0.2661
19194TIP3    H179073   1.649   1.837   2.491 -0.3173  0.0270 -0.2913
19194TIP3    H279074   1.696   1.847   2.348 -1.6306  0.1032 -0.7312
19195TIP3   OH279075   3.043   5.283   2.640  0.2040 -0.8496  0.1645
19195TIP3    H179076   2.971   5.232   2.606  0.3025  0.7655 -2.7776
19195TIP3    H279077   3.106   5.218   2.671 -1.1286 -2.3575 -0.1425
19196TIP3   OH279078   6.168   4.578   2.237 -0.3835  0.1053 -0.2131
19196TIP3    H179079   6.208   4.509   2.184  0.2033  1.4745 -1.6241
19196TIP3    H279080   6.206   4.566   2.324 -0.2410 -1.2863 -0.4407
19197TIP3   OH279081   6.798   0.262   0.686 -0.1545  0.6043 -0.1265
19197TIP3    H179082   6.704   0.252   0.667 -0.2465  2.2509 -0.7183
19197TIP3    H279083   6.840   0.198   0.629 -0.8678  0.6150 -0.6866
19198TIP3   OH279084   2.116   2.900  12.265  0.0245  0.3986  0.1630
19198TIP3    H179085   2.047   2.965  12.277 -0.3610  0.1851 -0.7754
19198TIP3    H279086   2.163   2.898  12.348 -1.3008  0.3193  0.9315
19199TIP3   OH279087   1.478   3.806   5.633 -0.1491  0.0153 -0.2616
19199TIP3    H179088   1.509   3.872   5.570 -1.0243 -1.1589 -2.0129
19199TIP3    H279089   1.430   3.856   5.699  0.3180  1.2562 -0.8350
19200TIP3   OH279090   2.202   2.853  13.654  0.7144  0.5361  0.2809
19200TIP3    H179091   2.154   2.936  13.658  0.3292  0.3082  0.3916
19200TIP3    H279092   2.294   2.879  13.644  0.3771  0.9718 -2.2493
19201TIP3   OH279093   5.424   2.334  14.963  0.5227 -0.6143 -0.3312
19201TIP3    H179094   5.420   2.325  15.058 -0.0672 -0.0176 -0.2864
19201TIP3    H279095   5.344   2.383  14.941  0.2215 -1.4787 -1.2226
19202TIP3   OH279096   6.419   5.663   4.752 -0.9806  0.0935  0.3597
19202TIP3    H179097   6.389   5.749   4.783 -1.5904  0.5644 -1.4149
19202TIP3    H279098   6.339   5.616   4.731 -0.5989 -0.0315 -0.8857
19203TIP3   OH279099   0.096   0.473   4.736 -0.2776 -0.0450 -0.4156
19203TIP3    H179100   0.003   0.451   4.733 -1.2049  3.3269 -0.6632
19203TIP3    H279101   0.111   0.505   4.825  0.7292 -0.7781 -0.3082
19204TIP3   OH279102   4.583   2.560   5.754 -0.0021 -0.1140  0.4314
19204TIP3    H179103   4.543   2.545   5.840 -1.2081  0.7495  0.0512
19204TIP3    H279104   4.548   2.491   5.698 -0.5035  0.2781  0.2507
19205TIP3   OH279105   1.124   4.967   5.506 -0.0006 -0.3921 -0.2416
19205TIP3    H179106   1.068   4.987   5.431 -0.4490  2.5046  0.7623
19205TIP3    H279107   1.213   4.988   5.476  0.3729 -2.8387 -1.0919
19206TIP3   OH279108   7.119   4.102   4.764  0.0606 -0.4425 -0.4697
19206TIP3    H179109   7.166   4.114   4.681 -0.1076  2.0012 -0.2811
19206TIP3    H279110   7.185   4.121   4.831 -0.2745 -0.6423 -0.0820
19207TIP3   OH279111   1.223   6.361   3.061  0.3329 -0.2232 -0.8833
19207TIP3    H179112   1.153   6.305   3.030  0.7231 -0.6240 -1.0477
19207TIP3    H279113   1.212   6.362   3.156 -1.0711  1.2830 -1.0152
19208TIP3   OH279114   4.699   4.374  10.410 -0.2234  0.0341  0.0226
19208TIP3    H179115   4.604   4.387  10.411 -0.1823  0.3719  1.4092
19208TIP3    H279116   4.718   4.345  10.321 -1.5939  0.1960 -0.3476
19209TIP3   OH279117   4.983   3.764  13.193 -0.3787  0.5081  0.3208
19209TIP3    H179118   5.005   3.696  13.257  1.6575  2.6098  2.0687
19209TIP3    H279119   5.048   3.754  13.124 -0.1846  0.5546  0.4944
19210TIP3   OH279120   0.051   7.038   1.083  0.0916  0.1100 -0.0477
19210TIP3    H179121  -0.022   7.050   1.022  0.9280 -0.1108 -1.1289
19210TIP3    H279122   0.078   7.127   1.106  1.3185  0.2741 -1.9418
19211TIP3   OH279123   2.058   6.762  13.287  0.4509  0.1237  0.4409
19211TIP3    H179124   2.078   6.840  13.236 -1.6510 -1.4770 -3.1915
19211TIP3    H279125   1.969   6.776  13.318  0.8208  0.0053  1.6084
19212TIP3   OH279126   5.938   5.063  14.037  0.0019 -0.0517 -0.0545
19212TIP3    H179127   6.031   5.044  14.050 -0.0591 -2.7241 -2.4837
19212TIP3    H279128   5.937   5.141  13.983  0.7325  0.8389  1.1572
19213TIP3   OH279129   5.034   2.650  10.446  0.2850 -0.4876  0.6895
19213TIP3    H179130   5.111   2.706  10.439  0.6736 -1.0867  0.0012
19213TIP3    H279131   4.960   2.708  10.429  0.7504 -0.3902 -1.2814
19214TIP3   OH279132   4.958   1.811   2.081 -0.7908  0.2522 -0.2174
19214TIP3    H179133   4.955   1.904   2.103  0.9516 -0.0688  1.7173
19214TIP3    H279134   4.954   1.766   2.165  1.6223 -1.2839 -0.8203
19215TIP3   OH279135   5.934   5.807   0.282  0.2686  0.8317  0.3009
19215TIP3    H179136   5.840   5.813   0.299  0.5053  0.7375  1.7181
19215TIP3    H279137   5.975   5.853   0.355  1.3494  0.1675  0.1398
19216TIP3   OH279138   6.014   4.206   4.372 -0.3491  0.6236 -0.5432
19216TIP3    H179139   6.064   4.282   4.342  1.4339 -1.5241 -3.6733
19216TIP3    H279140   6.024   4.207   4.467 -0.1634  4.0341 -0.4619
19217TIP3   OH279141   4.550   1.559   5.875 -0.3204 -0.1474  0.2281
19217TIP3    H179142   4.571   1.651   5.861 -1.0698 -0.0388 -0.2535
19217TIP3    H279143   4.534   1.552   5.969  4.4599 -0.8140  1.2221
19218TIP3   OH279144   1.846   1.625  13.903 -0.0650  0.2749  0.1834
19218TIP3    H179145   1.915   1.560  13.917 -1.3871 -1.0425  0.8521
19218TIP3    H279146   1.842   1.635  13.808  1.2035  0.5818  0.1419
19219TIP3   OH279147   1.350   4.175   0.994 -0.2582 -0.6676  0.2238
19219TIP3    H179148   1.434   4.140   1.023 -0.1940 -0.6475  0.0664
19219TIP3    H279149   1.372   4.228   0.917 -0.7354 -2.7843 -1.4478
19220TIP3   OH279150   1.225   3.448   2.499  0.8452  0.1583 -0.5584
19220TIP3    H179151   1.151   3.489   2.543  0.6171 -0.3179 -0.4867
19220TIP3    H279152   1.210   3.464   2.406  0.4387 -0.2716 -0.5724
19221TIP3   OH279153   3.587   4.322   1.747 -0.1480 -0.0588 -0.1962
19221TIP3    H179154   3.553   4.323   1.836 -0.2078  1.3698 -0.2095
19221TIP3    H279155   3.528   4.264   1.699 -1.1387  0.4873  0.3273
19222TIP3   OH279156   2.017   7.149   3.092 -0.2776  0.4357  0.4371
19222TIP3    H179157   1.995   7.057   3.104  1.4081 -0.5426 -2.8402
19222TIP3    H279158   1.985   7.192   3.171 -1.7734 -2.8132  1.7607
19223TIP3   OH279159   6.592   0.500   4.323 -0.5851  0.6425  0.7120
19223TIP3    H179160   6.504   0.472   4.299 -0.2793  1.1064 -1.1053
19223TIP3    H279161   6.578   0.581   4.373 -1.2508 -0.2441  1.9914
19224TIP3   OH279162   0.999   5.426   1.205 -0.3515  0.3761 -0.0921
19224TIP3    H179163   1.062   5.459   1.141  2.3595 -0.1406  2.0948
19224TIP3    H279164   0.965   5.504   1.248 -3.1319  0.8183 -2.7649
19225TIP3   OH279165   4.560   5.688   5.768 -0.4575 -0.1773  0.0064
19225TIP3    H179166   4.604   5.681   5.683 -0.2913  0.7846  0.0018
19225TIP3    H279167   4.483   5.632   5.760 -0.0910 -0.6197 -0.5390
19226TIP3   OH279168   2.318   7.146   4.753  0.1579 -0.6713  0.5244
19226TIP3    H179169   2.301   7.190   4.671 -0.5042 -2.4871 -0.3752
19226TIP3    H279170   2.412   7.128   4.752  0.0452 -1.2510 -0.1501
19227TIP3   OH279171   5.124   3.972   3.100 -0.5771  0.3372  0.5476
19227TIP3    H179172   5.046   3.970   3.156  0.6240 -2.1976  2.3775
19227TIP3    H279173   5.166   4.055   3.120 -0.4924 -0.2316  3.1211
19228TIP3   OH279174   5.810   4.939   5.497 -0.1163 -0.0290  0.1649
19228TIP3    H179175   5.844   4.962   5.583  0.5440 -1.4281  0.3086
19228TIP3    H279176   5.868   4.984   5.436  1.5650 -1.7130  0.4284
19229TIP3   OH279177   6.854   0.352  13.462 -0.1135  0.4855  0.2805
19229TIP3    H179178   6.919   0.361  13.392 -0.8380 -0.3146 -0.5163
19229TIP3    H279179   6.907   0.341  13.541  0.7182  1.6218 -0.0832
19230TIP3   OH279180   0.759   5.676   1.067 -0.0932 -0.2709 -0.0716
19230TIP3    H179181   0.800   5.658   0.983 -0.8376 -1.2165 -0.2405
19230TIP3    H279182   0.828   5.660   1.132  0.4670  0.4176 -0.4863
19231TIP3   OH279183   1.373   0.484   0.818  0.2300 -0.3823  0.4332
19231TIP3    H179184   1.462   0.507   0.845  0.3750  0.6201 -0.7986
19231TIP3    H279185   1.325   0.568   0.819 -0.5985 -0.8461  0.7082
19232TIP3   OH279186   0.162   5.016   2.714 -0.1758  0.1003 -0.2953
19232TIP3    H179187   0.222   5.060   2.775  1.8961 -1.7700 -0.8818
19232TIP3    H279188   0.137   4.935   2.759  0.0624 -0.5105 -1.2366
19233TIP3   OH279189   7.071   2.444   1.055  0.1849 -0.1356 -0.3653
19233TIP3    H179190   7.157   2.402   1.064  0.7117  1.0552  0.5088
19233TIP3    H279191   7.070   2.477   0.965  0.4455 -0.5485 -0.5245
19234TIP3   OH279192   5.772   5.488  15.667  0.0603 -0.9780 -0.6795
19234TIP3    H179193   5.848   5.469  15.721 -0.4803 -1.1817  0.0182
19234TIP3    H279194   5.793   5.572  15.625 -0.2244  0.0812  1.1936
19235TIP3   OH279195   6.784   6.740   5.321 -0.5977  0.0749 -0.1754
19235TIP3    H179196   6.869   6.736   5.278  0.2356 -0.0692  1.4200
19235TIP3    H279197   6.783   6.824   5.366 -0.6299 -0.6109  1.1348
19236TIP3   OH279198   5.380   2.418  15.546  0.0860 -0.0649 -0.6180
19236TIP3    H179199   5.365   2.397  15.453 -1.1845  1.5712 -0.8295
19236TIP3    H279200   5.426   2.501  15.545 -1.6228  0.9464  0.1887
19237TIP3   OH279201   3.655   7.061   0.796  0.0614  0.4593  0.4728
19237TIP3    H179202   3.678   7.004   0.869  0.1839 -1.0625 -0.7110
19237TIP3    H279203   3.561   7.051   0.786 -0.0364  1.0817  0.7582
19238TIP3   OH279204   0.651   3.620   4.359  0.4800 -0.1578  0.3159
19238TIP3    H179205   0.593   3.603   4.285 -0.1568  0.3616  0.6797
19238TIP3    H279206   0.610   3.576   4.433  1.4423 -1.2003  0.2450
19239TIP3   OH279207   2.842   4.749  15.107 -0.2287 -0.0368 -0.0337
19239TIP3    H179208   2.861   4.805  15.032  2.1715 -1.0719 -0.3139
19239TIP3    H279209   2.747   4.743  15.110 -0.4205  0.8101 -2.4110
19240TIP3   OH279210   6.052   3.594  12.896 -0.2112  0.6878 -0.6270
19240TIP3    H179211   6.135   3.640  12.879  1.5166 -1.7739  0.5693
19240TIP3    H279212   6.047   3.528  12.827 -1.0261  0.5883 -0.4829
19241TIP3   OH279213   5.589   5.453   9.814 -0.1048  0.2509 -0.3647
19241TIP3    H179214   5.671   5.414   9.845  0.2034  0.2276 -1.2049
19241TIP3    H279215   5.526   5.433   9.884  0.0422 -1.7592 -0.7333
19242TIP3   OH279216   2.281   0.238   1.994 -0.2431 -0.2727  0.0084
19242TIP3    H179217   2.196   0.229   1.952 -0.0736 -0.7038 -0.2575
19242TIP3    H279218   2.265   0.222   2.087  0.0114 -3.6281 -0.3829
19243TIP3   OH279219   4.306   1.888   5.026 -0.3612 -0.6310  0.0040
19243TIP3    H179220   4.344   1.820   5.082 -0.1539 -0.6118 -0.1159
19243TIP3    H279221   4.233   1.923   5.078 -0.7077 -1.1998 -0.0813
19244TIP3   OH279222   5.652   2.242  12.022  0.2525 -0.7133 -0.2901
19244TIP3    H179223   5.645   2.286  12.107 -0.3175 -1.7075  0.1934
19244TIP3    H279224   5.572   2.191  12.014  0.0389 -0.2163 -1.6893
19245TIP3   OH279225   2.750   2.724   4.524 -0.7145 -0.3786  0.3852
19245TIP3    H179226   2.699   2.700   4.447 -1.1178 -1.5455  0.9981
19245TIP3    H279227   2.790   2.808   4.500  0.0050 -1.1919 -1.4977
19246TIP3   OH279228   0.713   2.005   0.415  0.2194  0.0094 -0.1175
19246TIP3    H179229   0.670   2.090   0.425  0.7193  0.3643 -0.8844
19246TIP3    H279230   0.675   1.969   0.335  0.0698 -0.4658  0.1610
19247TIP3   OH279231   2.022   1.947   4.256 -0.2993  0.5594  0.3603
19247TIP3    H179232   2.113   1.917   4.260  0.4235  2.5571 -0.0752
19247TIP3    H279233   2.005   1.959   4.162 -1.1890 -0.1967  0.4027
19248TIP3   OH279234   4.788   3.379   6.126 -0.0156  0.1712  0.2853
19248TIP3    H179235   4.747   3.371   6.212 -1.5190 -1.9278 -0.5477
19248TIP3    H279236   4.879   3.355   6.140  1.0690  4.4172  2.0762
19249TIP3   OH279237   4.404   0.100   1.340  0.3053 -0.3015 -0.0538
19249TIP3    H179238   4.389   0.190   1.313 -1.9251 -0.6048 -0.0335
19249TIP3    H279239   4.446   0.058   1.265 -1.5467  0.0134 -1.3229
19250TIP3   OH279240   4.629   5.038   5.625  0.0010  0.1191 -0.1669
19250TIP3    H179241   4.679   5.030   5.706 -0.4009  0.6896  0.1479
19250TIP3    H279242   4.539   5.053   5.653 -0.1174  0.5018 -0.7126
19251TIP3   OH279243   3.663   1.208   4.621 -0.1914 -0.1014 -0.5279
19251TIP3    H179244   3.593   1.151   4.590 -0.5037  0.8465 -1.6413
19251TIP3    H279245   3.619   1.288   4.648  0.0022 -0.9809  2.9066
19252TIP3   OH279246   4.134   5.207   3.019 -0.5011  0.0610  0.7854
19252TIP3    H179247   4.085   5.285   2.995 -2.6152 -0.3939  3.1913
19252TIP3    H279248   4.225   5.237   3.030 -1.3032  2.2542  1.9066
19253TIP3   OH279249   6.683   3.783   6.143  0.2560 -0.2250  0.0094
19253TIP3    H179250   6.635   3.700   6.133  0.3492 -0.0790 -2.1546
19253TIP3    H279251   6.619   3.850   6.119  1.1241  0.0466 -1.7563
19254TIP3   OH279252   2.063   6.433   5.474 -0.1690  1.3126  0.6093
19254TIP3    H179253   1.969   6.426   5.491 -0.1499 -2.2256 -0.1243
19254TIP3    H279254   2.103   6.364   5.527  1.3836 -0.6117 -2.7382
19255TIP3   OH279255   3.709   6.384  15.602  0.2018  0.0925  0.5161
19255TIP3    H179256   3.630   6.436  15.614 -0.8422 -1.2082 -0.3583
19255TIP3    H279257   3.712   6.368  15.508 -0.5759 -2.8974  0.8887
19256TIP3   OH279258   3.317   4.850   0.009  0.5222  0.6422  0.3550
19256TIP3    H179259   3.296   4.757   0.009 -2.4587  1.2174  0.9895
19256TIP3    H279260   3.306   4.878   0.100 -0.7692  1.9800 -0.1611
19257TIP3   OH279261   5.399   1.494   2.112 -0.0936 -0.1482 -0.1230
19257TIP3    H179262   5.445   1.471   2.031  1.3698  1.5636  0.1531
19257TIP3    H279263   5.397   1.413   2.162  1.8822 -0.5109 -0.5290
19258TIP3   OH279264   1.006   7.126   1.278 -0.3089 -0.4699  0.1782
19258TIP3    H179265   0.933   7.064   1.275 -2.2751  1.6605  0.8126
19258TIP3    H279266   0.976   7.201   1.227  2.0452 -0.0346 -0.6941
19259TIP3   OH279267   5.676   1.021   4.609  0.3589 -0.0351  0.4459
19259TIP3    H179268   5.758   0.972   4.617 -0.4044 -1.1580  1.7313
19259TIP3    H279269   5.613   0.957   4.577  0.0000  0.8926 -0.8144
19260TIP3   OH279270   6.474   6.535   1.928  0.2069  0.0352  0.0885
19260TIP3    H179271   6.541   6.604   1.935  1.4449 -1.0063 -1.1229
19260TIP3    H279272   6.499   6.484   1.852 -0.2068 -2.2736  1.4071
19261TIP3   OH279273   6.184   2.847  15.217 -0.2222 -0.0778 -0.0860
19261TIP3    H179274   6.133   2.929  15.220 -0.4597 -0.2429  2.5624
19261TIP3    H279275   6.260   2.864  15.271  0.2979 -1.2865 -0.4007
19262TIP3   OH279276   3.795   3.767   2.852 -0.0230 -0.3107 -0.6362
19262TIP3    H179277   3.836   3.681   2.839  0.6423 -0.4465  1.9386
19262TIP3    H279278   3.849   3.810   2.918 -0.7411  1.8560 -1.3738
19263TIP3   OH279279   0.108   3.657   4.395 -0.1018  0.4247  0.4369
19263TIP3    H179280   0.052   3.702   4.332  0.6406  1.7609  0.6998
19263TIP3    H279281   0.049   3.598   4.441 -1.0225  0.8066 -0.2194
19264TIP3   OH279282   2.567   3.019   0.043  0.2768 -0.2337  0.3339
19264TIP3    H179283   2.474   3.011   0.023  0.1210  0.6281  0.6674
19264TIP3    H279284   2.589   3.110   0.020  1.5092 -0.9506 -1.6093
19265TIP3   OH279285   6.199   2.392  12.651 -0.5410  0.6358  1.0423
19265TIP3    H179286   6.191   2.315  12.708 -1.3449  0.5693  0.8432
19265TIP3    H279287   6.110   2.426  12.643 -0.4689  0.5467 -0.3179
19266TIP3   OH279288   4.218   5.140   4.586  0.2472 -0.0304 -0.0422
19266TIP3    H179289   4.244   5.136   4.679  3.2222  0.1767 -0.7520
19266TIP3    H279290   4.177   5.226   4.577 -2.2815 -0.9452  1.4724
19267TIP3   OH279291   5.108   4.500   5.111 -0.3855  0.3669  0.3854
19267TIP3    H179292   5.059   4.452   5.178 -0.6659  1.9637  1.3794
19267TIP3    H279293   5.110   4.441   5.036 -1.1786 -0.9636  1.3694
19268TIP3   OH279294   4.950   1.020   5.003 -0.1180  0.3076  0.1789
19268TIP3    H179295   4.957   1.100   4.950 -0.7457 -0.8976 -1.8594
19268TIP3    H279296   4.857   1.012   5.024  0.0247  0.3937  0.8730
19269TIP3   OH279297   5.772   3.348   2.562  0.0269  0.1068  0.3541
19269TIP3    H179298   5.773   3.303   2.477 -1.2032  0.8424 -0.0738
19269TIP3    H279299   5.699   3.306   2.610  1.1615 -0.8042  1.3555
19270TIP3   OH279300   0.007   0.178  14.509  1.1121  0.4362 -0.3004
19270TIP3    H179301  -0.025   0.267  14.494  2.5002  0.9514 -0.3504
19270TIP3    H279302   0.101   0.187  14.516  1.1903 -0.9077  0.7661
19271TIP3   OH279303   6.118   1.178   1.684  0.0448 -0.0250  0.1507
19271TIP3    H179304   6.046   1.193   1.747 -0.2543  0.7370 -0.3552
19271TIP3    H279305   6.154   1.266   1.668  0.7043 -0.3299 -0.0580
19272TIP3   OH279306   5.383   5.385   5.211 -0.2282 -1.0518  0.5195
19272TIP3    H179307   5.453   5.381   5.276 -0.6463  0.9278  1.1550
19272TIP3    H279308   5.311   5.337   5.251 -0.1103 -0.8092  1.0302
19273TIP3   OH279309   0.754   2.456   0.840 -0.1032 -0.6225  0.1484
19273TIP3    H179310   0.755   2.367   0.875 -0.0575 -0.3275  0.9188
19273TIP3    H279311   0.842   2.468   0.804 -0.4393 -1.2497 -0.9294
19274TIP3   OH279312   1.339   7.122   2.551 -0.2018  0.4924 -0.3025
19274TIP3    H179313   1.371   7.066   2.622  1.1039  1.2199 -0.2832
19274TIP3    H279314   1.255   7.083   2.526  0.6493 -1.4849 -0.2927
19275TIP3   OH279315   1.502   6.420   5.483  0.5978  0.0564  0.0850
19275TIP3    H179316   1.444   6.491   5.457 -0.0042  0.0381  1.3186
19275TIP3    H279317   1.470   6.392   5.568  1.8201 -0.6222  0.3514
19276TIP3   OH279318   2.793   3.674  11.670 -0.2530  0.0827 -0.7512
19276TIP3    H179319   2.808   3.725  11.590  0.2504  1.3074  0.1030
19276TIP3    H279320   2.717   3.620  11.650  1.2365 -1.4013 -2.9010
19277TIP3   OH279321   0.581   4.518   4.865  0.0124 -0.0554  0.4601
19277TIP3    H179322   0.583   4.569   4.946 -1.9424 -0.0728  0.5683
19277TIP3    H279323   0.611   4.430   4.891 -1.1497 -0.2165  1.2995
19278TIP3   OH279324   0.146   5.066   5.274  0.7570  0.2824  0.4406
19278TIP3    H179325   0.060   5.060   5.316  0.9647 -3.4876  0.6908
19278TIP3    H279326   0.208   5.067   5.346  0.9670 -1.1932  0.3184
19279TIP3   OH279327   4.428   1.746   3.707  0.3494 -0.2473 -0.1630
19279TIP3    H179328   4.453   1.758   3.615  0.5988  1.7019  0.1326
19279TIP3    H279329   4.396   1.832   3.735 -2.0890 -1.4041  0.8933
19280TIP3   OH279330   0.406   5.915   1.888 -0.3357  0.2765 -0.1657
19280TIP3    H179331   0.355   5.941   1.965  0.0241 -0.0392  0.1871
19280TIP3    H279332   0.496   5.913   1.919 -0.4066 -2.2203  0.0942
19281TIP3   OH279333   0.671   5.589  13.894 -0.2561  0.4617 -0.4635
19281TIP3    H179334   0.581   5.592  13.927 -1.3495 -1.4470 -2.9204
19281TIP3    H279335   0.670   5.522  13.826  3.5352 -1.0342  0.6792
19282TIP3   OH279336   0.545   3.291   4.800  1.1301 -0.0598  0.1290
19282TIP3    H179337   0.526   3.268   4.891  1.9279  0.4434  0.4321
19282TIP3    H279338   0.467   3.263   4.751  0.5442 -0.0080  1.0141
19283TIP3   OH279339   3.429   5.918  15.215  0.4767 -0.1994 -0.3516
19283TIP3    H179340   3.423   5.852  15.284  1.5818  0.4546  0.3996
19283TIP3    H279341   3.348   5.969  15.223  3.0080  4.1261  4.9955
19284TIP3   OH279342   2.994   1.108   5.374  0.6814 -0.3059 -0.0752
19284TIP3    H179343   2.984   1.201   5.355  0.0890 -0.5579 -1.0587
19284TIP3    H279344   3.046   1.106   5.455  1.4434  0.8475 -0.5045
19285TIP3   OH279345   6.086   0.186   2.931 -0.2072 -0.1732 -0.2541
19285TIP3    H179346   6.162   0.179   2.873  0.3595 -2.2600  0.6598
19285TIP3    H279347   6.012   0.198   2.872  0.6924  1.1074 -1.2033
19286TIP3   OH279348   4.519   3.177   0.966 -0.6965  0.5519  0.8549
19286TIP3    H179349   4.534   3.246   1.030 -0.2242  0.6665  0.6265
19286TIP3    H279350   4.570   3.205   0.889 -2.3606  1.1475 -0.0867
19287TIP3   OH279351   6.691   5.912  11.034 -0.1195  0.0999  0.0008
19287TIP3    H179352   6.653   5.971  11.099 -0.6229 -0.7558  0.5032
19287TIP3    H279353   6.697   5.827  11.078  1.7031  0.0226 -0.3029
19288TIP3   OH279354   1.632   2.457   5.813  0.3369  0.4036  0.0865
19288TIP3    H179355   1.633   2.496   5.901 -0.9475  0.1585  0.2251
19288TIP3    H279356   1.651   2.364   5.828 -0.0054  0.3380  0.1274
19289TIP3   OH279357   1.601   5.714   2.624 -0.2121 -0.6814 -0.3797
19289TIP3    H179358   1.531   5.707   2.689 -0.0787 -0.6669 -0.2320
19289TIP3    H279359   1.633   5.624   2.613 -0.8555 -0.8296 -1.1246
19290TIP3   OH279360   4.937   6.158   1.660  0.4712 -0.9465  0.4850
19290TIP3    H179361   4.920   6.117   1.575 -0.5213  0.2657  0.0598
19290TIP3    H279362   4.917   6.090   1.724 -1.0136 -1.1922 -0.1975
19291TIP3   OH279363   6.173   1.519  14.375 -0.2710 -0.6346 -0.2299
19291TIP3    H179364   6.118   1.468  14.315  1.1951 -1.5101 -0.9014
19291TIP3    H279365   6.112   1.554  14.440 -1.7479 -0.6451 -1.5470
19292TIP3   OH279366   1.162   1.860   1.217  0.4963  0.1799 -0.4755
19292TIP3    H179367   1.112   1.942   1.219 -2.0483 -1.2302 -1.4970
19292TIP3    H279368   1.248   1.885   1.184 -0.2582  2.4221 -0.9144
19293TIP3   OH279369   0.558   6.370   2.758  0.0253  0.3208  0.2533
19293TIP3    H179370   0.612   6.446   2.737 -0.3590  0.6692  0.4974
19293TIP3    H279371   0.525   6.388   2.846 -0.1702 -0.0705  0.2619
19294TIP3   OH279372   1.961   3.937   3.972 -0.5902 -0.2057  0.3017
19294TIP3    H179373   1.950   4.029   3.997 -0.1901 -0.3580  1.0632
19294TIP3    H279374   1.872   3.905   3.956 -0.8037  0.0806  0.8929
19295TIP3   OH279375   2.802   0.363  13.739 -0.1423  0.0858  0.6039
19295TIP3    H179376   2.748   0.440  13.720 -0.1308  0.0650  0.4854
19295TIP3    H279377   2.833   0.334  13.653 -3.3418 -2.4217  0.1124
19296TIP3   OH279378   7.086   4.270  13.402  0.3358 -0.0300 -0.1326
19296TIP3    H179379   7.109   4.363  13.401 -2.3337  0.7176 -1.3359
19296TIP3    H279380   7.137   4.233  13.474 -0.8696  3.0748  2.5537
19297TIP3   OH279381   3.529   4.253   0.737  0.2454  0.8598 -0.9446
19297TIP3    H179382   3.501   4.225   0.650  1.0537 -0.2529 -0.8597
19297TIP3    H279383   3.609   4.204   0.754  0.6071  1.7586  0.0521
19298TIP3   OH279384   4.979   6.035   4.700 -0.0744 -0.5761 -0.4859
19298TIP3    H179385   4.916   6.081   4.756  0.8654 -0.3227  0.3990
19298TIP3    H279386   5.030   5.981   4.761  0.4986 -0.8481 -1.1946
19299TIP3   OH279387   6.649   6.264   5.121 -0.0078 -0.3693  0.0225
19299TIP3    H179388   6.624   6.356   5.114  0.8400 -0.2361 -2.0650
19299TIP3    H279389   6.671   6.251   5.213 -1.3346  1.1803  0.5940
19300TIP3   OH279390   6.003   6.194   2.287  0.2870  0.1251 -0.0341
19300TIP3    H179391   5.972   6.174   2.375 -0.0882  1.3798  0.1364
19300TIP3    H279392   5.954   6.272   2.261  0.7623  0.0701 -1.1531
19301TIP3   OH279393   0.871   2.636   2.867  0.3866 -0.0798  0.1255
19301TIP3    H179394   0.818   2.693   2.811 -0.4253  0.0272  0.9796
19301TIP3    H279395   0.808   2.588   2.920  1.1199 -0.5745  0.5765
19302TIP3   OH279396   6.486   0.023  14.443 -0.3509 -0.0390 -0.4864
19302TIP3    H179397   6.571  -0.003  14.478  0.7519  1.6573 -1.7545
19302TIP3    H279398   6.489  -0.002  14.351 -0.5063  1.5860 -0.9606
19303TIP3   OH279399   6.082   2.364   1.334 -0.0626  0.3774  0.5726
19303TIP3    H179400   6.126   2.421   1.397  1.0526 -0.0210  0.1764
19303TIP3    H279401   6.146   2.295   1.315  0.1981  1.1898 -1.9908
19304TIP3   OH279402   6.488   6.456   4.467  0.4006  0.7279 -0.1833
19304TIP3    H179403   6.502   6.376   4.517 -1.8374 -0.2525 -1.0020
19304TIP3    H279404   6.481   6.525   4.533 -0.3883 -0.1909  0.7203
19305TIP3   OH279405   6.017   1.950   3.933 -0.7427 -0.0428  0.3780
19305TIP3    H179406   6.083   1.897   3.889 -1.8025 -0.0209 -1.3411
19305TIP3    H279407   5.965   1.887   3.983 -0.6988 -0.3353  0.0582
19306TIP3   OH279408   2.215   3.202  12.952 -0.1711  0.0560  0.3427
19306TIP3    H179409   2.154   3.139  12.915  0.5116  0.6347 -1.9502
19306TIP3    H279410   2.276   3.149  13.003 -1.1730 -0.7925  0.6990
19307TIP3   OH279411   6.038   0.238  12.136 -0.0880  0.2362  0.0272
19307TIP3    H179412   6.126   0.224  12.101  0.2714 -0.3661  1.1163
19307TIP3    H279413   6.002   0.310  12.084  0.9653  0.3424 -0.5751
19308TIP3   OH279414   6.486   5.318  15.051 -0.0958  0.1676 -0.0296
19308TIP3    H179415   6.523   5.402  15.079  1.6989 -0.9895  1.2966
19308TIP3    H279416   6.462   5.274  15.132  1.8962 -1.8256 -0.4159
19309TIP3   OH279417   3.061   3.491   2.320 -0.4047 -0.0793  0.2670
19309TIP3    H179418   3.076   3.404   2.356  0.8999 -0.7438 -1.7683
19309TIP3    H279419   3.132   3.544   2.356  0.4909 -0.5780 -0.7044
19310TIP3   OH279420   5.336   2.251   3.959 -0.9199 -0.2816 -0.3224
19310TIP3    H179421   5.250   2.263   3.919 -0.1358  0.5700 -1.9003
19310TIP3    H279422   5.369   2.341   3.971  0.3209 -0.5939 -1.1540
19311TIP3   OH279423   0.918   4.413   0.106 -0.0978 -0.2477 -0.3374
19311TIP3    H179424   0.901   4.372   0.191 -1.0372  0.5929 -0.0994
19311TIP3    H279425   1.011   4.434   0.108 -0.5207  1.8543  1.4601
19312TIP3   OH279426   6.249   0.458  15.376 -0.0209 -0.1732  0.1759
19312TIP3    H179427   6.282   0.548  15.375  0.3892 -0.2531 -2.7195
19312TIP3    H279428   6.184   0.456  15.306  0.0390 -2.1612  0.1225
19313TIP3   OH279429   7.032   2.701  15.144 -0.5170 -0.3721  0.7376
19313TIP3    H179430   6.968   2.764  15.112  0.1053 -0.7809 -1.5518
19313TIP3    H279431   6.983   2.641  15.200 -1.4275  1.1890  1.6656
19314TIP3   OH279432   0.266   4.605   2.782 -0.7036  0.0951 -1.1119
19314TIP3    H179433   0.188   4.645   2.822 -1.6558 -0.9979 -1.8366
19314TIP3    H279434   0.339   4.650   2.825 -1.7107  0.9040 -0.1559
19315TIP3   OH279435   1.225   1.228   3.685 -0.2337 -0.0724 -0.3474
19315TIP3    H179436   1.288   1.169   3.642 -0.1870 -0.6154  0.4464
19315TIP3    H279437   1.250   1.225   3.777 -1.7386 -0.7020  0.0713
19316TIP3   OH279438   4.085   2.489   6.183 -0.1736 -0.4015  0.1044
19316TIP3    H179439   4.155   2.430   6.211 -0.4670 -1.6409 -1.6252
19316TIP3    H279440   4.116   2.525   6.099 -1.1680 -0.1842 -0.1809
19317TIP3   OH279441   2.157   2.038   4.867 -0.1348 -0.2290 -0.1353
19317TIP3    H179442   2.174   1.945   4.853  0.6375 -0.1397  0.1556
19317TIP3    H279443   2.202   2.082   4.795 -0.7077 -0.0881 -0.4138
19318TIP3   OH279444   0.650   3.584  14.984  0.1976  0.0704  0.4792
19318TIP3    H179445   0.719   3.533  15.026  0.3682 -1.7454 -1.8346
19318TIP3    H279446   0.693   3.627  14.910  0.0260  3.6217  2.2298
19319TIP3   OH279447   0.066   3.249  13.119 -0.7881  0.5113 -0.4669
19319TIP3    H179448   0.077   3.292  13.204  0.7609  2.0295 -1.3508
19319TIP3    H279449  -0.026   3.226  13.115 -0.8921  0.3369  1.6323
19320TIP3   OH279450   4.733   5.028   4.096 -0.2102  0.2419  0.4451
19320TIP3    H179451   4.731   4.941   4.136  1.3028  0.3067  0.7342
19320TIP3    H279452   4.643   5.058   4.099 -0.9258 -1.6440 -0.4076
19321TIP3   OH279453   3.297   1.648   1.591  0.0463  0.1657  0.0976
19321TIP3    H179454   3.309   1.729   1.541  1.2391  0.3565  0.6616
19321TIP3    H279455   3.231   1.671   1.657 -0.8639  0.1692 -0.7887
19322TIP3   OH279456   2.753   1.958   1.574 -0.6503  0.1405 -0.8247
19322TIP3    H179457   2.682   1.918   1.624 -1.0679  1.3647 -0.4007
19322TIP3    H279458   2.814   1.992   1.641  0.0960 -0.4675 -1.1768
19323TIP3   OH279459   6.546   1.103   5.371 -0.2980 -0.9394 -0.0930
19323TIP3    H179460   6.617   1.042   5.353  0.2788 -0.0575 -0.9015
19323TIP3    H279461   6.589   1.181   5.406 -0.8222 -0.2832 -0.8782
19324TIP3   OH279462   3.506   0.523   0.139  0.4418  0.2531  0.1814
19324TIP3    H179463   3.504   0.435   0.178  0.0250  0.3909  0.4743
19324TIP3    H279464   3.414   0.545   0.125  0.5962 -0.1930 -1.8118
19325TIP3   OH279465   6.042   6.300   4.707 -0.1631 -0.4744  0.4624
19325TIP3    H179466   6.049   6.343   4.622 -1.7613 -0.5342  0.2614
19325TIP3    H279467   6.085   6.360   4.768  0.3107 -0.0610 -0.2624
19326TIP3   OH279468   2.380   4.642   1.685 -0.3597  0.2415 -0.2373
19326TIP3    H179469   2.395   4.641   1.779 -0.4211 -1.5818 -0.2119
19326TIP3    H279470   2.293   4.604   1.674 -0.8688  1.5484 -0.9802
19327TIP3   OH279471   2.255   0.110  15.326  0.3859  0.5357  0.1495
19327TIP3    H179472   2.179   0.068  15.285  0.4312  0.9804 -0.3951
19327TIP3    H279473   2.330   0.082  15.274  0.8309 -1.2458  1.6746
19328TIP3   OH279474   2.698   4.451   5.769  0.2829 -0.1735  0.0602
19328TIP3    H179475   2.637   4.480   5.837  0.3669  1.1969 -0.4175
19328TIP3    H279476   2.784   4.458   5.809  0.2280 -0.9859  0.3463
19329TIP3   OH279477   5.859   7.016   4.932 -0.1794  0.5888  0.6705
19329TIP3    H179478   5.837   7.084   4.867  2.6047  1.0370  0.0525
19329TIP3    H279479   5.794   7.026   5.000  0.0697  3.9407  0.5848
19330TIP3   OH279480   2.007   5.188  12.418  0.0486 -0.0389 -0.1025
19330TIP3    H179481   2.070   5.214  12.351 -0.7856  4.5362  0.5757
19330TIP3    H279482   2.058   5.134  12.479  2.5169  0.9629 -1.1373
19331TIP3   OH279483   6.659   4.998  14.405 -0.5368  0.0491  0.2967
19331TIP3    H179484   6.731   5.048  14.365 -0.1326 -1.3596 -0.7902
19331TIP3    H279485   6.678   4.907  14.384 -1.7059 -0.5124  1.5411
19332TIP3   OH279486   2.641   6.195   4.750 -0.4294  0.1671  0.0746
19332TIP3    H179487   2.575   6.263   4.734 -0.4225  0.1534 -0.0148
19332TIP3    H279488   2.596   6.113   4.731 -0.0322  0.2252 -1.2099
19333TIP3   OH279489   1.492   5.045   3.211  0.7872 -0.0857  0.4623
19333TIP3    H179490   1.441   5.056   3.291  0.4540 -0.1177  0.2564
19333TIP3    H279491   1.494   4.951   3.196  0.4046 -0.0473  0.1507
19334TIP3   OH279492   2.729   1.901   5.308 -0.1660  0.2143  0.4104
19334TIP3    H179493   2.708   1.994   5.298 -2.1985  0.0298  2.1222
19334TIP3    H279494   2.763   1.893   5.397 -2.2688 -0.9448  1.1923
19335TIP3   OH279495   1.968   4.285   5.043 -0.5479  0.0409  0.3512
19335TIP3    H179496   1.978   4.246   5.130 -1.6354  0.1752  0.5520
19335TIP3    H279497   1.882   4.254   5.013 -0.2042  0.0315 -0.6608
19336TIP3   OH279498   2.277   7.023   3.893 -0.4350 -0.4167 -0.2821
19336TIP3    H179499   2.304   6.940   3.856 -1.4750 -1.5170  1.3166
19336TIP3    H279500   2.349   7.048   3.951 -0.7271 -0.9058  0.2928
19337TIP3   OH279501   5.298   4.215   0.269 -0.4100 -0.4842  0.4092
19337TIP3    H179502   5.246   4.183   0.196  0.0238 -0.8573  0.2606
19337TIP3    H279503   5.388   4.191   0.247 -0.1817  0.0794  0.7010
19338TIP3   OH279504   0.293   4.816  12.868  0.1599 -0.2754  0.2015
19338TIP3    H179505   0.245   4.741  12.904 -0.3617 -0.1110 -0.1569
19338TIP3    H279506   0.344   4.848  12.942  0.1937 -0.8278  0.4275
19339TIP3   OH279507   6.243   5.241   1.578 -0.3820  0.3823  0.2287
19339TIP3    H179508   6.245   5.336   1.592  1.5145  0.3514  0.4413
19339TIP3    H279509   6.260   5.230   1.484 -0.6809  0.2415  0.1884
19340TIP3   OH279510   2.243   4.656   6.009 -0.4422  0.0235  0.0098
19340TIP3    H179511   2.189   4.735   5.998  0.5254  0.5504 -1.1342
19340TIP3    H279512   2.207   4.594   5.946  0.3046  0.3967 -0.7982
19341TIP3   OH279513   1.440   0.110   5.235 -0.4315 -0.1620 -0.0697
19341TIP3    H179514   1.456   0.142   5.324 -0.0744 -0.8864  0.1317
19341TIP3    H279515   1.361   0.156   5.207 -0.3082  0.3921  0.4591
19342TIP3   OH279516   4.434   1.737   0.468 -0.2943  0.0747 -0.4749
19342TIP3    H179517   4.407   1.827   0.451  0.1562  0.0318 -1.4865
19342TIP3    H279518   4.517   1.727   0.421  1.2252  0.0071  1.9966
19343TIP3   OH279519   5.952   6.540   2.505  0.0990 -0.6758 -0.4281
19343TIP3    H179520   5.916   6.613   2.455 -0.9972 -0.9460 -0.0526
19343TIP3    H279521   6.010   6.582   2.569 -0.6563 -0.1088 -0.0985
19344TIP3   OH279522   0.100   1.415   4.853  0.6040 -0.0297  0.4340
19344TIP3    H179523   0.181   1.401   4.902 -0.7578 -1.7559  2.3651
19344TIP3    H279524   0.085   1.331   4.808 -0.3276  0.1107  0.4642
19345TIP3   OH279525   4.346   3.943   0.061 -0.0679  0.1793  0.3997
19345TIP3    H179526   4.355   3.896   0.144  1.1452  1.4368  1.0230
19345TIP3    H279527   4.423   4.000   0.057  0.3069 -0.4139 -1.9904
19346TIP3   OH279528   3.399   2.818  14.495  0.2474  0.1004 -0.1440
19346TIP3    H179529   3.445   2.788  14.416  0.0949  0.7713 -0.5003
19346TIP3    H279530   3.460   2.799  14.566  1.9866  2.6211 -0.7791
19347TIP3   OH279531   0.536   2.372   4.961 -0.3978  0.1414 -0.2423
19347TIP3    H179532   0.562   2.325   5.040 -1.6923  1.5025  1.0501
19347TIP3    H279533   0.607   2.355   4.899  1.6324  0.5865  1.8269
19348TIP3   OH279534   2.156   3.253   2.800  0.5129  0.0005  0.3482
19348TIP3    H179535   2.174   3.346   2.788 -0.2539  0.2980  1.3563
19348TIP3    H279536   2.243   3.211   2.798  0.8813  0.7555  0.1296
19349TIP3   OH279537   6.527   4.149   3.118 -0.2488 -0.4427  0.3933
19349TIP3    H179538   6.499   4.210   3.187  1.4733  2.6175 -1.3772
19349TIP3    H279539   6.623   4.148   3.126 -0.0557 -0.4497 -1.5822
19350TIP3   OH279540   4.555   3.601   4.246  0.0786 -0.6706  0.4964
19350TIP3    H179541   4.635   3.565   4.206  0.7857  0.3149  0.9914
19350TIP3    H279542   4.498   3.621   4.172  1.5870  1.6597 -0.1302
19351TIP3   OH279543   4.509   1.326   4.113 -0.2312 -0.6708  0.3589
19351TIP3    H179544   4.442   1.338   4.179  0.4144 -0.2078  0.9498
19351TIP3    H279545   4.491   1.394   4.048 -1.2939 -1.5775 -0.3283
19352TIP3   OH279546   2.366   1.985   3.145  0.5924  0.0721 -0.3675
19352TIP3    H179547   2.439   2.005   3.204 -0.1235  2.0729 -0.0683
19352TIP3    H279548   2.292   2.033   3.181 -0.6419 -1.0741 -1.2487
19353TIP3   OH279549   2.620   0.964   5.101 -0.2583 -0.2389 -0.1209
19353TIP3    H179550   2.697   1.019   5.114 -0.5796  0.0583  0.5973
19353TIP3    H279551   2.576   0.964   5.186 -1.8763  0.8632 -0.8906
19354TIP3   OH279552   0.106   1.458   4.598  0.0440  0.6300 -0.0172
19354TIP3    H179553   0.120   1.463   4.693  0.5180 -0.7605  0.0110
19354TIP3    H279554   0.124   1.546   4.567  3.3879  0.3693  0.7723
19355TIP3   OH279555   5.356   2.148  10.255  0.1933  0.3098 -0.0012
19355TIP3    H179556   5.413   2.074  10.233  1.4889  1.0076  0.8973
19355TIP3    H279557   5.310   2.120  10.335  2.0323  1.0965  1.4146
19356TIP3   OH279558   3.004   4.850   3.505  0.2840 -0.5866  0.0953
19356TIP3    H179559   2.986   4.869   3.597 -1.3732 -1.6466  0.0213
19356TIP3    H279560   3.099   4.865   3.496  0.2514  0.8746  1.6146
19357TIP3   OH279561   6.067   3.166   2.636 -0.0911 -0.6104 -0.1339
19357TIP3    H179562   6.135   3.127   2.691  1.7176 -0.8041 -2.3211
19357TIP3    H279563   5.985   3.149   2.682  1.2585 -1.0791  2.2377
19358TIP3   OH279564   5.726   3.125   5.415  0.2134  0.6860  0.1234
19358TIP3    H179565   5.676   3.084   5.486 -1.5199  1.1979 -0.7577
19358TIP3    H279566   5.795   3.062   5.395 -0.2872 -0.2124  1.1327
19359TIP3   OH279567   6.625   0.367   3.162  0.0065  0.1636  0.1952
19359TIP3    H179568   6.547   0.422   3.158  0.4918  0.8996  0.4599
19359TIP3    H279569   6.595   0.279   3.140 -0.5856  0.7437 -1.5364
19360TIP3   OH279570   7.011   5.877   0.467 -0.0120 -0.0352 -0.0502
19360TIP3    H179571   6.984   5.787   0.482  1.1077 -0.2993  0.4631
19360TIP3    H279572   7.056   5.903   0.547  1.0577  0.4398 -0.7788
19361TIP3   OH279573   3.807   1.166   3.568 -0.3868 -0.3465  0.3985
19361TIP3    H179574   3.849   1.086   3.537 -2.4799 -1.1176 -0.6633
19361TIP3    H279575   3.857   1.191   3.646  2.1366 -0.9962 -0.9022
19362TIP3   OH279576   1.181   0.273   0.409  0.4642 -0.0590  0.4448
19362TIP3    H179577   1.273   0.280   0.381  0.4053  0.6624  0.3984
19362TIP3    H279578   1.173   0.336   0.481 -0.2126  0.5898 -0.1744
19363TIP3   OH279579   2.048   6.135   0.828 -0.4118  0.1145  0.1211
19363TIP3    H179580   2.021   6.072   0.761  2.0651 -0.8077 -0.1376
19363TIP3    H279581   2.092   6.081   0.894 -0.0903  1.3502  0.9392
19364TIP3   OH279582   4.545   6.727   3.389  0.3584  0.6287 -0.4071
19364TIP3    H179583   4.488   6.790   3.433 -1.3479  0.3592 -2.1059
19364TIP3    H279584   4.605   6.780   3.337  0.2602  0.8724 -0.2725
19365TIP3   OH279585   6.544   6.621   0.949  0.0793  0.1951  0.1513
19365TIP3    H179586   6.570   6.713   0.957 -2.2970  0.7449  3.0944
19365TIP3    H279587   6.450   6.624   0.931  0.1595 -1.6868 -0.7832
19366TIP3   OH279588   7.117   2.320  11.385  0.0029 -0.3578 -0.5777
19366TIP3    H179589   7.034   2.272  11.392  0.1037 -0.3719  0.9769
19366TIP3    H279590   7.110   2.388  11.452  1.1126 -0.1660 -0.6509
19367TIP3   OH279591   0.145   5.719   2.986  0.7539 -0.1751 -0.5326
19367TIP3    H179592   0.164   5.694   2.896 -0.4709 -0.7071 -0.6673
19367TIP3    H279593   0.138   5.637   3.033  0.3085  0.0540 -0.1905
19368TIP3   OH279594   3.711   5.609   0.799  0.0968 -0.0987  0.3483
19368TIP3    H179595   3.780   5.543   0.794  0.4810  0.1079  2.0221
19368TIP3    H279596   3.662   5.586   0.878 -1.3553  0.1442 -0.4611
19369TIP3   OH279597   5.921   0.865   5.657 -0.2396  0.4520 -0.2712
19369TIP3    H179598   5.930   0.770   5.652 -3.8020 -0.0990  0.5049
19369TIP3    H279599   5.875   0.890   5.577  0.1026  1.4191 -0.1825
19370TIP3   OH279600   1.248   4.715   0.137  0.5693 -0.2257 -0.0574
19370TIP3    H179601   1.170   4.671   0.103  0.3696 -1.9651  2.4160
19370TIP3    H279602   1.322   4.666   0.099  0.4003 -0.5949  0.0867
19371TIP3   OH279603   0.591   6.989   2.843  0.2655  0.0536 -0.2604
19371TIP3    H179604   0.543   6.967   2.923 -1.6197  0.0272 -1.3543
19371TIP3    H279605   0.667   7.039   2.874  0.7260 -1.7414  1.6831
19372TIP3   OH279606   5.286   0.270   5.792 -0.0493 -0.7579 -0.3428
19372TIP3    H179607   5.365   0.269   5.847 -0.6585 -0.6477  0.5573
19372TIP3    H279608   5.293   0.190   5.740 -0.1286 -1.6006  0.8929
19373TIP3   OH279609   3.816   4.935   4.453 -0.3951  0.2707 -0.6234
19373TIP3    H179610   3.815   5.027   4.424  3.1357  1.3882  2.0405
19373TIP3    H279611   3.865   4.890   4.384 -0.0429  0.9114 -0.8061
19374TIP3   OH279612   4.176   2.520   3.816 -0.2044  0.2974 -0.1001
19374TIP3    H179613   4.159   2.470   3.895  1.2962  0.7064  0.5133
19374TIP3    H279614   4.190   2.610   3.846 -0.8217  0.7001 -0.9633
19375TIP3   OH279615   1.620   2.199   0.734  0.0394 -0.2091  0.5836
19375TIP3    H179616   1.570   2.126   0.772  0.7416 -0.0239  1.9376
19375TIP3    H279617   1.555   2.249   0.685 -0.9651 -0.3953  1.6811
19376TIP3   OH279618   1.376   0.541  15.441 -0.2221 -0.0286  0.1945
19376TIP3    H179619   1.314   0.543  15.514  0.8931  0.6543  1.1581
19376TIP3    H279620   1.357   0.459  15.396 -0.9455 -0.4623  1.2392
19377TIP3   OH279621   0.437   3.792   1.166 -0.0575  0.4004 -0.0196
19377TIP3    H179622   0.400   3.746   1.241  1.0295 -1.9180 -0.8070
19377TIP3    H279623   0.531   3.791   1.181  0.2717 -1.0091 -1.8273
19378TIP3   OH279624   5.597   2.196   3.069  0.1270 -0.1265  0.3244
19378TIP3    H179625   5.513   2.242   3.064 -0.5609 -1.0989  1.9362
19378TIP3    H279626   5.574   2.110   3.105  1.5110 -1.3370 -1.5198
19379TIP3   OH279627   6.171   1.938   4.190 -0.3540 -0.5015 -0.7651
19379TIP3    H179628   6.165   1.972   4.101 -0.2223 -0.4688 -0.7608
19379TIP3    H279629   6.218   2.006   4.239 -1.7282  0.1754 -0.3250
19380TIP3   OH279630   0.174   1.970   3.415  0.9211 -0.4574 -0.2135
19380TIP3    H179631   0.126   1.900   3.460  2.3497 -2.2962 -1.3717
19380TIP3    H279632   0.153   2.049   3.464 -1.4140 -1.5332  0.6868
19381TIP3   OH279633   1.269   3.488   4.914  0.3948 -0.5484  0.2010
19381TIP3    H179634   1.240   3.562   4.967  2.0642 -0.0404  0.4576
19381TIP3    H279635   1.225   3.501   4.830  1.9648  1.8068 -0.3816
19382TIP3   OH279636   4.859   3.324  14.051 -0.5025  0.1081  0.0941
19382TIP3    H179637   4.880   3.378  13.975  0.2367 -0.5753 -0.2013
19382TIP3    H279638   4.764   3.326  14.056 -0.4751  2.7388  1.0661
19383TIP3   OH279639   5.698   0.669   4.698  0.1104 -0.0866 -1.0514
19383TIP3    H179640   5.736   0.585   4.671  1.8635 -0.9905  3.3579
19383TIP3    H279641   5.773   0.728   4.705 -0.7258  1.0662 -1.5150
19384TIP3   OH279642   7.109   5.219   2.836  0.4839  0.2493 -0.1565
19384TIP3    H179643   7.059   5.274   2.777 -1.2295 -0.1995  0.8052
19384TIP3    H279644   7.162   5.164   2.779 -1.0512 -0.1132 -1.2861
19385TIP3   OH279645   1.950   3.799   5.233  0.0158 -0.2527 -0.6780
19385TIP3    H179646   1.991   3.812   5.319 -0.8506 -3.0263  0.2414
19385TIP3    H279647   1.874   3.857   5.233 -0.6421 -1.0729  0.9405
19386TIP3   OH279648   0.282   5.858  15.564  0.5897 -0.2450 -0.1186
19386TIP3    H179649   0.368   5.859  15.605 -0.0387 -0.8339  1.2658
19386TIP3    H279650   0.223   5.827  15.632 -1.3520  3.6252  0.2045
19387TIP3   OH279651   0.840   4.388   5.607 -0.1169 -0.7306 -0.9491
19387TIP3    H179652   0.901   4.426   5.670  0.0789 -1.6975 -0.5327
19387TIP3    H279653   0.768   4.451   5.602 -0.2716 -0.7541  0.4657
19388TIP3   OH279654   1.568   3.522  14.618 -0.6952 -0.0006  0.5131
19388TIP3    H179655   1.627   3.484  14.683 -0.7647  0.7777  1.0396
19388TIP3    H279656   1.557   3.452  14.552  2.7475  0.5883 -0.9148
19389TIP3   OH279657   4.731   4.592   0.489 -0.1432  0.5671  0.5470
19389TIP3    H179658   4.696   4.563   0.404 -0.6103 -0.5079  1.0920
19389TIP3    H279659   4.668   4.657   0.520  0.3178  1.3753 -0.1721
19390TIP3   OH279660   1.514   4.595   2.709 -0.6133 -0.7065  0.3545
19390TIP3    H179661   1.596   4.546   2.710 -0.4651 -0.4639  0.1959
19390TIP3    H279662   1.460   4.552   2.643 -0.2981 -0.3581 -0.1367
19391TIP3   OH279663   2.368   6.074   5.505 -0.4717  0.0524 -0.1776
19391TIP3    H179664   2.439   6.024   5.545  0.1695  1.6003  0.6865
19391TIP3    H279665   2.409   6.154   5.472 -1.3463 -0.2509 -2.1748
19392TIP3   OH279666   1.336   2.294  15.475 -0.0796  0.0713 -0.0399
19392TIP3    H179667   1.398   2.338  15.416  0.3775 -0.7342 -0.1733
19392TIP3    H279668   1.314   2.213  15.429 -1.5297  0.5160 -0.1680
19393TIP3   OH279669   0.969   2.843   2.025 -0.5911 -0.0521 -0.0471
19393TIP3    H179670   0.958   2.838   2.120  2.3232  0.8192  0.4036
19393TIP3    H279671   1.043   2.902   2.012  0.8177 -2.1997 -2.7347
19394TIP3   OH279672   1.731   3.333  12.277  0.4356 -0.0341  0.1333
19394TIP3    H179673   1.788   3.370  12.345  1.2530  0.7776 -0.9516
19394TIP3    H279674   1.699   3.409  12.229 -0.6956 -0.5581  0.0339
19395TIP3   OH279675   2.709   3.640   5.005  0.1633  0.1743 -0.1543
19395TIP3    H179676   2.615   3.656   4.994  0.4715  2.9735  0.5356
19395TIP3    H279677   2.749   3.684   4.929  1.0733  2.1899  1.4115
19396TIP3   OH279678   5.922   4.697   2.320  0.7232 -0.1274  0.0885
19396TIP3    H179679   5.938   4.790   2.308 -0.3753  0.3297  1.8243
19396TIP3    H279680   6.007   4.656   2.305  0.8764  0.9372 -2.3382
19397TIP3   OH279681   2.036   5.277   4.987  0.6951 -0.3113 -0.0955
19397TIP3    H179682   2.119   5.258   5.031  0.1375  2.5931  2.6114
19397TIP3    H279683   2.057   5.350   4.929  0.0026  0.9877  1.2056
19398TIP3   OH279684   4.830   5.014   1.142  0.2007 -0.6421 -0.2160
19398TIP3    H179685   4.921   5.009   1.169 -0.1226  1.5875  1.6306
19398TIP3    H279686   4.790   4.933   1.174  1.0561 -0.5705  1.0622
19399TIP3   OH279687   6.531   1.789   3.908  0.1205 -0.3902  0.7183
19399TIP3    H179688   6.523   1.802   4.002  0.2102 -0.0053  0.6761
19399TIP3    H279689   6.482   1.709   3.890 -0.6936  0.0457  0.9578
19400TIP3   OH279690   6.818   2.579   5.447  0.1485 -0.1453  0.0432
19400TIP3    H179691   6.860   2.568   5.361 -0.7579  1.2147 -0.6076
19400TIP3    H279692   6.855   2.508   5.500  2.2901  0.2097 -0.8428
19401TIP3   OH279693   6.824   0.427   5.034 -0.7279  0.1477  0.9452
19401TIP3    H179694   6.752   0.363   5.036 -2.0842  1.5778  0.2406
19401TIP3    H279695   6.888   0.394   5.097 -0.7622 -2.5773 -0.3171
19402TIP3   OH279696   0.485   2.360   2.653  0.6165 -0.2155  0.2126
19402TIP3    H179697   0.449   2.401   2.731  0.6216  0.5847 -0.1913
19402TIP3    H279698   0.410   2.350   2.594  1.2274  3.3641 -1.4688
19403TIP3   OH279699   6.932   4.497  13.683  0.4770  0.0071 -0.2972
19403TIP3    H179700   6.883   4.456  13.611  1.9186 -1.2348 -0.6290
19403TIP3    H279701   6.875   4.566  13.714  0.3505  1.5891 -3.5873
19404TIP3   OH279702   7.039   3.543  14.830  0.3204 -0.1208 -0.0154
19404TIP3    H179703   7.032   3.605  14.758  0.0967 -0.7079 -0.5132
19404TIP3    H279704   7.055   3.458  14.788  1.1507 -0.3222  0.6771
19405TIP3   OH279705   4.844   5.493   5.861 -0.7356  0.0322  0.2614
19405TIP3    H179706   4.777   5.537   5.808 -0.9898 -1.7398 -0.9524
19405TIP3    H279707   4.802   5.413   5.891  0.7353 -0.9729 -0.2648
19406TIP3   OH279708   1.523   4.730  15.750  0.1929 -0.2492 -0.0666
19406TIP3    H179709   1.442   4.742  15.699 -0.0944 -1.0016  0.1978
19406TIP3    H279710   1.593   4.754  15.690 -0.2132  0.1912 -0.3763
19407TIP3   OH279711   2.189   2.908   3.952  0.1974  0.2073  0.3276
19407TIP3    H179712   2.201   2.987   4.004  0.5641 -0.4950  1.3437
19407TIP3    H279713   2.259   2.912   3.887  0.7423  0.3131  0.9069
19408TIP3   OH279714   4.539   5.403   0.152  0.6269 -1.1035 -0.1768
19408TIP3    H179715   4.544   5.339   0.224  0.4146  0.5641  1.3832
19408TIP3    H279716   4.594   5.476   0.181 -0.4154  0.1178 -1.1853
19409TIP3   OH279717   7.096   5.494   0.563  0.2615  0.2280 -0.3287
19409TIP3    H179718   7.091   5.470   0.470  0.1353 -0.9791 -0.0326
19409TIP3    H279719   7.006   5.489   0.594  0.2776  0.8073 -0.1742
19410TIP3   OH279720   5.746   4.087   1.110  0.3470  0.2835 -0.8682
19410TIP3    H179721   5.665   4.053   1.147 -0.0318  0.9418 -1.0867
19410TIP3    H279722   5.721   4.125   1.026  1.3607 -2.1949 -2.4241
19411TIP3   OH279723   2.101   1.417   4.863 -0.1269  0.4673 -0.1485
19411TIP3    H179724   2.164   1.372   4.919 -0.9226 -0.2190  0.2306
19411TIP3    H279725   2.135   1.407   4.775  0.3312  0.1793  0.0594
19412TIP3   OH279726   3.037   2.355  11.465 -0.6721 -0.2383 -1.0579
19412TIP3    H179727   3.007   2.353  11.556  2.4637  3.9876  0.4413
19412TIP3    H279728   3.097   2.281  11.458  1.3061  0.8948  1.5316
19413TIP3   OH279729   5.949   2.257   0.454  0.2610 -0.4994 -0.3793
19413TIP3    H179730   5.935   2.213   0.538  0.5933 -0.1921 -0.1605
19413TIP3    H279731   5.953   2.350   0.476  1.3251 -0.4769 -0.5963
19414TIP3   OH279732   0.051   2.902  14.354 -0.0400 -0.1073  0.2015
19414TIP3    H179733   0.110   2.950  14.295  0.4963 -1.5099 -0.4396
19414TIP3    H279734   0.066   2.810  14.334 -0.3176 -0.6153  2.0838
19415TIP3   OH279735   1.445   1.138   2.790  0.5196 -0.2518  0.2549
19415TIP3    H179736   1.489   1.060   2.824  1.1841  0.1885  0.4131
19415TIP3    H279737   1.352   1.117   2.797  0.6714 -0.6420  1.2141
19416TIP3   OH279738   2.014   2.386  15.614 -0.8142 -0.3537 -0.1819
19416TIP3    H179739   2.003   2.453  15.681 -2.9063 -0.8553  0.0676
19416TIP3    H279740   2.095   2.341  15.637 -0.4397  0.7824  0.8150
19417TIP3   OH279741   1.338   1.785   4.681 -0.3240 -0.0489 -0.1335
19417TIP3    H179742   1.425   1.779   4.641 -0.3119  0.3602 -0.1714
19417TIP3    H279743   1.319   1.878   4.683 -0.0130  0.0166  1.4451
19418TIP3   OH279744   5.089   5.135   3.424 -0.9051  0.1719 -0.0837
19418TIP3    H179745   5.076   5.138   3.329 -1.6565 -1.2801 -0.0527
19418TIP3    H279746   5.157   5.069   3.436 -0.7644  0.3991  0.3954
19419TIP3   OH279747   4.053   5.741  14.169  0.0036  0.2250  0.1403
19419TIP3    H179748   4.058   5.836  14.179 -0.6067  0.1998  0.7329
19419TIP3    H279749   3.978   5.714  14.222  1.3427 -0.8100  1.6641
19420TIP3   OH279750   4.986   6.016   0.074  0.0651 -0.0161  0.3177
19420TIP3    H179751   4.925   6.086   0.050 -0.6619 -0.1999  1.5437
19420TIP3    H279752   5.065   6.034   0.023 -0.3302  1.3308  0.1459
19421TIP3   OH279753   5.880   1.975   3.644 -0.6094  0.0756  0.3270
19421TIP3    H179754   5.854   1.883   3.636 -0.4975  0.1566 -1.4796
19421TIP3    H279755   5.895   1.988   3.737 -2.2800 -1.2873  0.8460
19422TIP3   OH279756   0.821   6.960   2.402  0.5708  0.5951 -0.2070
19422TIP3    H179757   0.775   6.924   2.478 -0.3735  1.1864 -0.4742
19422TIP3    H279758   0.756   6.957   2.332  1.1399  0.9000 -0.7529
19423TIP3   OH279759   7.111   7.088  15.183 -0.4057  0.3705  0.5348
19423TIP3    H179760   7.021   7.057  15.185  0.0507 -2.0208 -3.7723
19423TIP3    H279761   7.108   7.170  15.135 -0.2082 -0.3387 -0.7133
19424TIP3   OH279762   6.857   0.290   2.444  0.0909  0.5462  0.0155
19424TIP3    H179763   6.826   0.235   2.371  1.2872  1.0638 -0.9173
19424TIP3    H279764   6.803   0.368   2.440  1.8761  1.7917 -2.0957
19425TIP3   OH279765   6.314   0.110  11.103 -0.5157 -0.3139  0.1033
19425TIP3    H179766   6.304   0.023  11.066 -0.4503  0.0606 -0.8393
19425TIP3    H279767   6.240   0.160  11.069  1.4396  1.0361 -2.5952
19426TIP3   OH279768   3.903   1.326   5.904 -0.2527  0.1173  0.0932
19426TIP3    H179769   3.975   1.367   5.952  0.2957  1.4130 -1.7030
19426TIP3    H279770   3.921   1.232   5.908  0.9947  0.3651  0.5185
19427TIP3   OH279771   3.075   6.663   2.393 -0.2436 -0.0841 -0.2914
19427TIP3    H179772   2.989   6.699   2.368 -1.0088 -1.6878 -0.1465
19427TIP3    H279773   3.054   6.579   2.434  1.3154  0.2129  1.2334
19428TIP3   OH279774   5.062   3.750   1.068 -0.1414  0.1576 -0.4189
19428TIP3    H179775   5.127   3.812   1.102  0.0158 -0.1979 -0.0689
19428TIP3    H279776   4.986   3.763   1.125 -0.3301  0.4682 -0.7361
19429TIP3   OH279777   4.300   5.108   4.164 -0.3360 -0.6169  0.2205
19429TIP3    H179778   4.289   5.203   4.154 -0.6661 -0.7803 -1.0562
19429TIP3    H279779   4.296   5.094   4.259  0.3529  0.7150  0.4786
19430TIP3   OH279780   1.550   3.993   1.132  0.2508  0.4121  0.0158
19430TIP3    H179781   1.587   4.051   1.198 -1.0535  1.4481 -0.1178
19430TIP3    H279782   1.625   3.964   1.080  0.8812  2.4680 -0.2811
19431TIP3   OH279783   3.664   5.619  13.343 -0.5366 -0.0154 -0.0193
19431TIP3    H179784   3.731   5.582  13.401 -3.2701 -1.3099  2.5571
19431TIP3    H279785   3.671   5.714  13.356  0.1821 -0.1840  0.9056
19432TIP3   OH279786   5.101   1.035   5.231  0.4622 -0.2107  0.0274
19432TIP3    H179787   5.175   1.012   5.174 -0.9193  1.0465 -2.4315
19432TIP3    H279788   5.024   1.028   5.174 -1.1578 -0.0555  2.1062
19433TIP3   OH279789   2.150   5.905   1.646  0.3806 -0.2181 -0.3026
19433TIP3    H179790   2.121   5.983   1.599  0.2591  1.0163  1.7064
19433TIP3    H279791   2.193   5.938   1.724  0.2619 -2.1816  0.6655
19434TIP3   OH279792   0.015   4.734  11.915  0.3660  0.5924  0.1880
19434TIP3    H179793   0.000   4.646  11.883  0.5022  0.4254  0.5763
19434TIP3    H279794  -0.031   4.791  11.853  1.1919  0.3261 -0.6892
19435TIP3   OH279795   6.471   1.777   4.782 -0.6282 -0.5919 -0.4297
19435TIP3    H179796   6.529   1.755   4.709  1.3743 -0.0584  0.9241
19435TIP3    H279797   6.525   1.763   4.860 -1.8919  1.2601  0.8414
19436TIP3   OH279798   2.486   3.997  10.817 -0.4175 -0.6012  0.6156
19436TIP3    H179799   2.563   4.018  10.870 -0.7140 -0.4702  0.9983
19436TIP3    H279800   2.499   4.047  10.737 -0.2394 -0.3578  0.7916
19437TIP3   OH279801   4.500   4.160   3.943 -0.0909  0.2202 -0.1495
19437TIP3    H179802   4.484   4.123   4.030 -0.6113  0.0868 -0.2946
19437TIP3    H279803   4.592   4.186   3.944 -0.2296  0.7234  0.6300
19438TIP3   OH279804   7.007   3.710   5.696  0.5582 -0.3935 -0.1382
19438TIP3    H179805   7.070   3.770   5.735  0.8139 -1.1616  0.6831
19438TIP3    H279806   7.026   3.626   5.738 -2.1537 -0.3008  1.4839
19439TIP3   OH279807   1.462   3.986   0.002 -0.2583 -0.5385 -0.1410
19439TIP3    H179808   1.515   3.918  -0.040 -2.4314 -2.2061 -0.3713
19439TIP3    H279809   1.433   3.946   0.084  0.8230  1.2805  1.2026
19440TIP3   OH279810   2.510   7.070   3.482  0.1018 -0.0774  0.0318
19440TIP3    H179811   2.567   7.032   3.549  1.8075  1.3764 -0.4966
19440TIP3    H279812   2.431   7.096   3.530  0.4329 -0.8902  1.0682
19441TIP3   OH279813   3.721   0.228   3.246  0.2217  0.1985 -0.3034
19441TIP3    H179814   3.661   0.205   3.317 -0.8757 -2.8916 -2.0312
19441TIP3    H279815   3.791   0.163   3.252  2.5387  2.5978  0.5169
19442TIP3   OH279816   2.516   4.004  15.102  0.5314  0.7345  0.0092
19442TIP3    H179817   2.494   4.091  15.069 -0.3688  0.7562  0.6424
19442TIP3    H279818   2.464   3.944  15.049  0.4075  0.6522  0.2207
19443TIP3   OH279819   3.360   3.512  12.571  0.1498  0.2553 -0.6068
19443TIP3    H179820   3.371   3.524  12.665  4.1039 -1.2408 -0.6675
19443TIP3    H279821   3.316   3.427  12.562 -1.4487  1.0129 -0.1710
19444TIP3   OH279822   1.048   3.176  12.288 -0.3133  0.3266 -0.1157
19444TIP3    H179823   1.099   3.097  12.304  1.0110  0.2479 -3.7468
19444TIP3    H279824   1.100   3.226  12.226 -3.5707  1.3345 -2.3191
19445TIP3   OH279825   5.784   1.980   4.384 -0.0845 -0.3799  0.3481
19445TIP3    H179826   5.824   2.038   4.319  1.2515 -0.2657  1.2336
19445TIP3    H279827   5.809   1.892   4.355 -0.0742 -0.3724  0.3341
19446TIP3   OH279828   3.215   5.672  12.660 -0.9720  0.4231 -0.4149
19446TIP3    H179829   3.163   5.723  12.722 -0.7706 -0.2378  0.3080
19446TIP3    H279830   3.184   5.701  12.574 -0.8542  1.7580 -0.0291
19447TIP3   OH279831   4.064   2.506   3.551  0.1301 -0.3134  0.5518
19447TIP3    H179832   4.091   2.573   3.488  0.8512 -0.6705  0.4690
19447TIP3    H279833   4.117   2.524   3.629 -1.7174  0.9702  1.5896
19448TIP3   OH279834   4.081   1.251   2.070 -0.0688  0.3920  0.0595
19448TIP3    H179835   4.166   1.292   2.055 -0.3962  0.4940 -1.6410
19448TIP3    H279836   4.074   1.247   2.166  0.5450  3.1308  0.3110
19449TIP3   OH279837   1.947   0.296   5.565  0.0710  0.3433 -0.2839
19449TIP3    H179838   1.961   0.279   5.658  0.6183  0.3523 -0.3602
19449TIP3    H279839   1.880   0.364   5.563 -0.4561 -0.1570  0.0800
19450TIP3   OH279840   0.734   2.589  11.676 -0.3505  0.2797 -0.3366
19450TIP3    H179841   0.773   2.634  11.600 -1.6326  0.2386 -1.0500
19450TIP3    H279842   0.664   2.536  11.638 -0.9636  0.2037  0.8798
19451TIP3   OH279843   5.931   6.075   4.604  0.2906 -0.0173  0.0649
19451TIP3    H179844   5.975   6.112   4.680  0.9023 -0.8525  0.1344
19451TIP3    H279845   5.863   6.138   4.583  1.0208  0.9293  0.4341
19452TIP3   OH279846   1.463   5.699  14.936 -0.0283  0.0016  0.1166
19452TIP3    H179847   1.402   5.722  14.866  1.4695 -0.1002 -1.2908
19452TIP3    H279848   1.498   5.783  14.966  0.5063 -0.0468 -0.3688
19453TIP3   OH279849   3.009   1.890   0.029  0.1868 -0.4221  0.2307
19453TIP3    H179850   3.036   1.799   0.041 -1.1910 -0.9350 -0.3185
19453TIP3    H279851   3.004   1.925   0.118  1.6911 -0.5609  0.3990
19454TIP3   OH279852   5.567   3.018   4.468  0.1445 -0.1974  0.5028
19454TIP3    H179853   5.587   3.049   4.379 -0.5929 -1.6987 -0.2224
19454TIP3    H279854   5.540   2.927   4.456  2.0996 -1.1303  2.5292
19455TIP3   OH279855   6.103   5.116   4.471 -0.4241  0.2260  0.5970
19455TIP3    H179856   6.107   5.052   4.400 -0.1790  0.3868  0.4643
19455TIP3    H279857   6.101   5.201   4.426  1.0974  0.3919  0.8009
19456TIP3   OH279858   4.695   5.024   4.886  0.4451  0.4560 -0.5065
19456TIP3    H179859   4.670   5.109   4.922  0.1334 -0.0987  0.6390
19456TIP3    H279860   4.777   5.002   4.930 -0.6150 -0.8313  0.9013
19457TIP3   OH279861   2.645   1.063   5.708 -0.5230  0.6013 -0.0823
19457TIP3    H179862   2.600   1.012   5.775 -2.3541 -1.0891 -2.4116
19457TIP3    H279863   2.589   1.054   5.630  2.3236  0.9529 -2.3318
19458TIP3   OH279864   2.767   1.063   4.685 -0.4748 -0.1151 -0.0982
19458TIP3    H179865   2.843   1.038   4.738  0.8868  2.4233 -0.6384
19458TIP3    H279866   2.709   1.108   4.746  0.7546  2.1577 -0.4845
19459TIP3   OH279867   1.531   6.712  14.082 -0.1282 -0.0538 -0.3850
19459TIP3    H179868   1.613   6.730  14.037  2.2697 -1.4064  3.0130
19459TIP3    H279869   1.530   6.772  14.156 -1.3253 -1.1992  0.5933
19460TIP3   OH279870   7.109   4.215  10.898 -0.2008  0.2041 -0.0329
19460TIP3    H179871   7.031   4.174  10.937 -0.7946  1.2084 -0.1249
19460TIP3    H279872   7.096   4.206  10.804  0.2320 -0.3944 -0.0428
19461TIP3   OH279873   5.485   5.829  14.371  0.7839  0.1648 -0.1796
19461TIP3    H179874   5.515   5.870  14.452  0.5623 -0.6326  0.3207
19461TIP3    H279875   5.396   5.863  14.358  1.2201  1.1417 -0.6929
19462TIP3   OH279876   5.426   0.584   5.317  0.1241  0.3864 -0.2259
19462TIP3    H179877   5.509   0.536   5.326  0.3203  0.4064 -1.7639
19462TIP3    H279878   5.415   0.627   5.402  2.9026  2.2867 -0.6915
19463TIP3   OH279879   1.798   2.787  14.718  0.0530  0.0561  0.3850
19463TIP3    H179880   1.761   2.702  14.693 -1.1599  0.8184 -0.5025
19463TIP3    H279881   1.854   2.811  14.644 -2.4343  1.6532 -1.1353
19464TIP3   OH279882   6.652   0.638   2.186 -0.0374 -0.0470  0.5560
19464TIP3    H179883   6.702   0.719   2.195  0.7858 -0.2061 -1.8559
19464TIP3    H279884   6.586   0.658   2.120  1.0323 -1.6815 -1.0826
19465TIP3   OH279885   1.331   0.143   2.837  0.0567  0.2845  0.3935
19465TIP3    H179886   1.274   0.130   2.761 -0.4352  0.5274  0.7212
19465TIP3    H279887   1.291   0.214   2.886  0.3102  0.0533  0.9476
19466TIP3   OH279888   2.735   4.141   2.812 -0.1090  0.5050 -0.2130
19466TIP3    H179889   2.654   4.095   2.836 -0.6239  1.2136 -0.5521
19466TIP3    H279890   2.793   4.129   2.887 -0.5546  0.0541  0.0656
19467TIP3   OH279891   6.614   5.527   3.040 -0.0551  0.6152  0.1602
19467TIP3    H179892   6.680   5.507   3.106 -1.1550  0.0258  1.1252
19467TIP3    H279893   6.560   5.596   3.080 -0.0778  1.0327 -0.5749
19468TIP3   OH279894   0.286   4.710   1.687  0.3584 -0.4878  0.1317
19468TIP3    H179895   0.198   4.726   1.722  0.6018  1.0765  0.0713
19468TIP3    H279896   0.278   4.730   1.594  0.9465  0.3375  0.2577
19469TIP3   OH279897   2.807   1.087   0.458 -0.0041 -0.1133 -0.0028
19469TIP3    H179898   2.743   1.137   0.508  1.5897  1.8081  0.2528
19469TIP3    H279899   2.760   1.008   0.431 -2.0331  0.5566  1.3101
19470TIP3   OH279900   2.964   0.633  13.906 -0.1635  0.4415 -0.1312
19470TIP3    H179901   3.046   0.666  13.941  0.3771 -0.5448 -0.4108
19470TIP3    H279902   2.896   0.680  13.954  0.5411 -0.3620  1.7449
19471TIP3   OH279903   1.807   6.746  13.602 -0.0031  0.0336 -0.1153
19471TIP3    H179904   1.787   6.686  13.530 -1.8426 -0.6852  0.9350
19471TIP3    H279905   1.807   6.833  13.561  0.8423 -0.4916 -1.3064
19472TIP3   OH279906   3.826   5.703   2.830 -0.3449 -0.2619 -0.8945
19472TIP3    H179907   3.733   5.708   2.849 -0.0872 -1.8865  1.1390
19472TIP3    H279908   3.856   5.626   2.878  2.3478  1.1594 -0.0839
19473TIP3   OH279909   1.558   0.151   2.626 -0.2625 -0.1776 -0.1187
19473TIP3    H179910   1.474   0.110   2.606 -0.4520 -0.4792  1.2249
19473TIP3    H279911   1.582   0.117   2.712  1.4781 -0.4706 -0.6863
19474TIP3   OH279912   0.952   0.718   0.346  0.3513  0.2650 -0.0141
19474TIP3    H179913   0.930   0.634   0.388 -1.0501  1.1728  1.1691
19474TIP3    H279914   1.044   0.732   0.368  0.5640 -0.8867 -0.1055
19475TIP3   OH279915   5.192   0.334  10.232 -0.0781 -0.2125 -0.5564
19475TIP3    H179916   5.157   0.344  10.144  1.4652  1.8585 -1.0256
19475TIP3    H279917   5.287   0.346  10.222  0.5435 -3.0179  0.9893
19476TIP3   OH279918   5.366   6.299   3.775  0.1169 -0.1797  0.0727
19476TIP3    H179919   5.390   6.305   3.683 -0.3480  0.5218 -0.0115
19476TIP3    H279920   5.403   6.216   3.804  2.3434  0.6969 -0.1194
19477TIP3   OH279921   4.682   2.613   3.870  0.1028  0.5928  0.8175
19477TIP3    H179922   4.731   2.534   3.851  0.2450  0.8083  0.2918
19477TIP3    H279923   4.741   2.685   3.846  0.2018  0.8705  1.8347
19478TIP3   OH279924   1.087   4.389   2.241  1.3422 -0.0872 -0.4509
19478TIP3    H179925   1.032   4.462   2.267 -0.0516 -1.2964  0.1811
19478TIP3    H279926   1.121   4.413   2.155  0.6772  1.1513 -0.3797
19479TIP3   OH279927   3.690   3.050   2.926 -0.1364  0.4625  0.2601
19479TIP3    H179928   3.670   2.959   2.905 -1.5412  0.5761  0.9675
19479TIP3    H279929   3.610   3.083   2.967  0.2571  2.0833 -0.1931
19480TIP3   OH279930   2.264   4.186   5.362 -0.2220  0.2189  0.5422
19480TIP3    H179931   2.329   4.130   5.403  1.5580  2.1886  0.5821
19480TIP3    H279932   2.253   4.260   5.423 -1.4540  0.6240 -0.1201
19481TIP3   OH279933   1.596   1.928   3.448 -0.4542 -0.4238 -0.9082
19481TIP3    H179934   1.518   1.975   3.479 -0.0704  0.1075 -0.7407
19481TIP3    H279935   1.669   1.971   3.492 -0.2001 -2.2699  0.6072
19482TIP3   OH279936   1.238   0.517  13.927 -0.2598  0.7507 -0.3069
19482TIP3    H179937   1.321   0.480  13.958 -0.1209  1.8148  0.6481
19482TIP3    H279938   1.180   0.441  13.918  1.0645 -0.1460 -1.9026
19483TIP3   OH279939   5.095   4.374   4.422 -0.2218 -0.1384  0.1740
19483TIP3    H179940   5.019   4.360   4.479 -0.3235  1.5006  0.5159
19483TIP3    H279941   5.126   4.462   4.446  1.3600 -0.4980 -0.4556
19484TIP3   OH279942   0.908   4.140   2.141  0.2569 -0.1439 -0.1192
19484TIP3    H179943   0.947   4.212   2.190 -1.3557  0.0064  0.9865
19484TIP3    H279944   0.857   4.183   2.072  1.4026 -0.3336 -1.1433
19485TIP3   OH279945   7.091   1.397  10.971 -0.3997 -0.2014  0.3548
19485TIP3    H179946   7.081   1.443  11.054 -2.2621  0.7357 -0.3178
19485TIP3    H279947   7.165   1.439  10.929 -0.5183  0.4887  0.8179
19486TIP3   OH279948   3.439   4.339   4.102 -0.0448  0.8014 -0.0326
19486TIP3    H179949   3.481   4.386   4.175  0.4525  2.5783 -1.3996
19486TIP3    H279950   3.346   4.355   4.113 -0.4219 -2.0155  2.2261
19487TIP3   OH279951   2.620   2.242   2.398  0.0308  0.5285 -0.3296
19487TIP3    H179952   2.570   2.220   2.319  1.0157  1.0832 -1.1439
19487TIP3    H279953   2.700   2.282   2.364  0.9011 -0.0998  0.9453
19488TIP3   OH279954   0.375   0.211   5.730 -0.1102  0.1783 -0.4170
19488TIP3    H179955   0.461   0.203   5.689  0.8294 -2.6415  1.8263
19488TIP3    H279956   0.321   0.145   5.686 -0.3490  0.1300 -0.0558
19489TIP3   OH279957   5.904   4.858  14.791  0.4674  0.7663 -0.0852
19489TIP3    H179958   5.989   4.884  14.825  1.5060 -2.2229 -0.0436
19489TIP3    H279959   5.903   4.890  14.701  1.8764  0.4069 -0.2472
19490TIP3   OH279960   3.273   5.493   4.113 -0.0435 -0.0038 -0.5489
19490TIP3    H179961   3.236   5.419   4.162  1.0309 -0.1732  0.0129
19490TIP3    H279962   3.205   5.561   4.118  0.0758  0.0211  1.2505
19491TIP3   OH279963   2.747   0.605   3.709  0.0198 -0.2595  0.2034
19491TIP3    H179964   2.665   0.624   3.754  0.5438  0.9687  0.7093
19491TIP3    H279965   2.728   0.623   3.616 -0.6137 -1.2069  0.1394
19492TIP3   OH279966   4.040   1.679   0.458  0.2570 -0.4199  0.5971
19492TIP3    H179967   4.124   1.634   0.448  0.2932 -0.4024  0.8266
19492TIP3    H279968   4.017   1.706   0.369  0.6975 -0.0520  0.5906
19493TIP3   OH279969   0.033   5.660   5.771 -0.3017 -0.0625  0.1126
19493TIP3    H179970   0.018   5.600   5.698 -4.2087 -1.5447  1.9091
19493TIP3    H279971   0.088   5.611   5.832  0.7665  0.1946 -0.6130
19494TIP3   OH279972   2.120   0.657  13.887 -0.0960 -0.2693  0.7769
19494TIP3    H179973   2.183   0.704  13.942  0.1640 -0.8919  1.0175
19494TIP3    H279974   2.105   0.715  13.813  3.2944 -1.4490 -1.0209
19495TIP3   OH279975   0.571   4.875   3.949 -0.1114  0.0408 -0.1245
19495TIP3    H179976   0.547   4.812   3.882 -0.5405 -0.7433  0.7348
19495TIP3    H279977   0.665   4.887   3.938 -0.5377  1.9383 -2.5093
19496TIP3   OH279978   5.708   7.045   5.410 -0.3833 -0.1102  0.3425
19496TIP3    H179979   5.629   7.022   5.460 -0.6799  0.1464 -0.0003
19496TIP3    H279980   5.753   6.961   5.397 -1.0629 -0.3989 -0.2295
19497TIP3   OH279981   0.715   5.717   4.355 -0.0222 -0.2286 -0.1573
19497TIP3    H179982   0.793   5.704   4.408 -1.0061 -1.4987  1.0375
19497TIP3    H279983   0.688   5.629   4.330 -0.0245  0.2960 -2.1778
19498TIP3   OH279984   2.855   5.384   4.437 -0.4209 -0.2966 -0.3527
19498TIP3    H179985   2.904   5.373   4.519 -0.9047  0.8574  0.1108
19498TIP3    H279986   2.767   5.354   4.458 -0.1827 -1.4584 -0.9154
19499TIP3   OH279987   4.890   2.423   3.750 -0.0501  0.3728 -0.2076
19499TIP3    H179988   4.838   2.381   3.680  0.8141 -1.9998  0.4613
19499TIP3    H279989   4.933   2.350   3.793  1.0399  1.9848  1.5382
19500TIP3   OH279990   0.357   3.881  10.501 -0.0528 -0.6849  0.8662
19500TIP3    H179991   0.344   3.976  10.506  2.6645 -0.1190 -0.7197
19500TIP3    H279992   0.415   3.861  10.574  0.3716 -0.8883  0.4798
19501TIP3   OH279993   4.544   5.861   5.450 -0.0539  0.5452  0.1025
19501TIP3    H179994   4.619   5.820   5.494 -1.1866 -0.3122  1.3422
19501TIP3    H279995   4.472   5.852   5.513 -1.6592 -0.3451 -1.7581
19502TIP3   OH279996   3.373   5.041   0.222 -0.8928  0.0436  0.0259
19502TIP3    H179997   3.436   5.113   0.226 -0.4726 -0.3720  2.0432
19502TIP3    H279998   3.428   4.962   0.224 -1.3660 -0.3761 -1.7265
19503TIP3   OH279999   5.587   6.078   5.793  0.3806 -0.3075  1.0842
19503TIP3    H180000   5.622   6.021   5.725  0.2854  0.0884  0.6954
19503TIP3    H280001   5.631   6.051   5.873  1.8984  0.4364  0.5490
19504TIP3   OH280002   1.870   1.488   1.023 -0.1794 -0.2297 -0.1818
19504TIP3    H180003   1.950   1.518   0.980 -0.4440  1.7485  0.5906
19504TIP3    H280004   1.849   1.558   1.085 -2.2147 -0.9593  0.0205
19505TIP3   OH280005   0.720   1.321   2.133  0.0291  0.2089  0.0993
19505TIP3    H180006   0.645   1.285   2.086  0.5336 -2.1035  0.9232
19505TIP3    H280007   0.779   1.353   2.065  0.2461 -2.0397 -0.8469
19506TIP3   OH280008   5.433   4.715  15.682  0.5359 -0.2137 -0.0266
19506TIP3    H180009   5.353   4.742  15.727 -0.7191 -1.0640 -1.6854
19506TIP3    H280010   5.465   4.795  15.640 -0.5359 -0.2574 -0.9650
19507TIP3   OH280011   5.930   2.265   0.760  0.2514  0.2524  0.3092
19507TIP3    H180012   5.844   2.279   0.719 -0.1158 -0.5167  0.7985
19507TIP3    H280013   5.910   2.238   0.849  1.0367  1.1167  0.7595
19508TIP3   OH280014   2.917   0.187  11.691 -0.1147  0.3665 -0.8385
19508TIP3    H180015   2.827   0.157  11.676  0.1601 -1.3380  0.5759
19508TIP3    H280016   2.909   0.280  11.709 -1.4944  0.4153 -1.5996
19509TIP3   OH280017   4.720   2.631   3.017 -0.4356 -0.1721 -0.4715
19509TIP3    H180018   4.807   2.596   3.035 -0.3149  1.2582  2.3272
19509TIP3    H280019   4.729   2.678   2.935  1.3914 -0.2066 -0.3274
19510TIP3   OH280020   2.559   3.884   4.378 -0.4403 -0.4861  0.8292
19510TIP3    H180021   2.505   3.896   4.456 -2.1427  0.1100 -0.3776
19510TIP3    H280022   2.496   3.862   4.309  1.0471 -1.2999 -0.3249
19511TIP3   OH280023   5.985   2.945   3.207 -0.0336  0.4677  0.3148
19511TIP3    H180024   5.950   2.857   3.188  2.4816 -1.2369  2.7087
19511TIP3    H280025   5.908   3.000   3.215 -1.8401 -1.8526  0.1184
19512TIP3   OH280026   3.404   0.011   4.386  0.4368  0.1601 -0.1769
19512TIP3    H180027   3.373  -0.018   4.300  0.9382  0.1159 -0.3408
19512TIP3    H280028   3.447   0.095   4.370  2.3969 -0.8183 -0.3188
19513TIP3   OH280029   1.732   6.950   4.491 -0.0856 -0.5568 -0.0534
19513TIP3    H180030   1.661   6.900   4.450  0.3345 -1.0025 -0.2375
19513TIP3    H280031   1.812   6.908   4.461  0.2337 -1.4961  1.9958
19514TIP3   OH280032   3.238   6.489   3.015 -0.9385  0.1686 -0.3169
19514TIP3    H180033   3.327   6.481   3.050 -0.5450 -1.0686 -1.5246
19514TIP3    H280034   3.189   6.533   3.085  0.2105 -0.6651  1.0739
19515TIP3   OH280035   6.251   0.481   2.750  0.3315  0.1360 -0.1177
19515TIP3    H180036   6.158   0.505   2.755  0.1200 -0.7636  0.6110
19515TIP3    H280037   6.274   0.494   2.658 -0.0130  2.1299  0.0155
19516TIP3   OH280038   3.425   6.152   4.125 -0.8104 -0.4416 -0.5085
19516TIP3    H180039   3.481   6.229   4.111 -0.3388 -0.2894  1.8841
19516TIP3    H280040   3.435   6.101   4.044 -1.7780  2.3175 -2.5191
19517TIP3   OH280041   1.413   3.878  10.140  0.6844  0.3267 -0.2571
19517TIP3    H180042   1.451   3.854  10.056  0.1964  0.6522 -0.5746
19517TIP3    H280043   1.335   3.823  10.148 -0.5307  1.8575 -1.0606
19518TIP3   OH280044   4.732   5.016   2.936 -0.2681 -0.3193  0.3706
19518TIP3    H180045   4.661   5.028   2.874  0.6317 -0.2799 -0.6999
19518TIP3    H280046   4.747   4.921   2.938 -1.0678 -0.4384  1.4534
19519TIP3   OH280047   1.890   6.841   0.314  0.4193 -0.0937 -0.0163
19519TIP3    H180048   1.803   6.828   0.352 -0.1716  0.9450 -0.9419
19519TIP3    H280049   1.949   6.793   0.371 -0.5964  0.3347  1.4374
19520TIP3   OH280050   4.445   6.476   1.172 -0.4988  0.1432 -0.1680
19520TIP3    H180051   4.528   6.514   1.143  1.3364 -3.0021  0.4916
19520TIP3    H280052   4.444   6.490   1.266  0.9085 -2.3901  0.3222
19521TIP3   OH280053   4.320   1.169  14.517  0.0714 -0.2386 -0.9710
19521TIP3    H180054   4.331   1.256  14.479  0.3495  1.1795  1.9830
19521TIP3    H280055   4.235   1.138  14.486 -0.0310  1.0817 -2.0806
19522TIP3   OH280056   0.150   7.053  13.934 -0.1246  0.6884 -0.1874
19522TIP3    H180057   0.070   7.098  13.906 -1.4276  0.7330  3.2173
19522TIP3    H280058   0.214   7.123  13.947  0.4363  0.6898 -2.4966
19523TIP3   OH280059   3.592   5.824   2.611 -0.1489 -0.2355 -0.6890
19523TIP3    H180060   3.499   5.803   2.619 -0.2930  0.7965  0.6650
19523TIP3    H280061   3.636   5.739   2.616 -0.9683 -0.6482 -0.2525
19524TIP3   OH280062   3.644   1.617   3.706  0.1917 -0.4229 -0.0715
19524TIP3    H180063   3.677   1.650   3.789 -0.0648 -1.0773  0.2966
19524TIP3    H280064   3.706   1.648   3.641  1.1402 -1.0429  0.5214
19525TIP3   OH280065   4.523   3.247   2.487  0.4267  0.6024 -0.8308
19525TIP3    H180066   4.563   3.333   2.495 -1.3678  1.6267 -2.1411
19525TIP3    H280067   4.431   3.261   2.507 -0.1476 -0.7387 -2.3085
19526TIP3   OH280068   4.056   0.856   2.638 -0.0284  0.3920 -0.7505
19526TIP3    H180069   4.115   0.928   2.659 -0.2843  0.8710 -1.6239
19526TIP3    H280070   3.990   0.856   2.707  0.0431  0.9181 -0.6835
19527TIP3   OH280071   4.820   6.117   3.481 -0.0957  0.6042 -0.7756
19527TIP3    H180072   4.751   6.099   3.417  0.2171  0.9003 -1.2013
19527TIP3    H280073   4.892   6.059   3.456 -0.9218 -1.2845  0.9459
19528TIP3   OH280074   1.847   0.086   3.282  0.5210 -0.2080 -0.0153
19528TIP3    H180075   1.767   0.050   3.244 -0.5580  0.8677  1.0976
19528TIP3    H280076   1.826   0.099   3.375  1.3667  1.7019 -0.0232
19529TIP3   OH280077   4.075   0.099   5.521 -0.2421 -0.0981 -0.4082
19529TIP3    H180078   4.074   0.023   5.462 -0.3652 -0.6988  0.3492
19529TIP3    H280079   4.155   0.146   5.497  0.8377 -1.4704  0.3298
19530TIP3   OH280080   0.513   1.598   3.157  0.2246 -0.0076 -0.1871
19530TIP3    H180081   0.487   1.688   3.178 -0.0994 -0.1393 -0.0075
19530TIP3    H280082   0.604   1.592   3.184  0.5528  0.5667 -1.1388
19531TIP3   OH280083   6.963   0.342   2.721 -0.1320 -0.2655  0.0972
19531TIP3    H180084   6.961   0.436   2.743  2.3272  0.1644 -1.1945
19531TIP3    H280085   6.954   0.339   2.626 -0.3909 -1.3759  0.1411
19532TIP3   OH280086   2.099   2.747  11.921 -0.0248  0.1664 -0.3955
19532TIP3    H180087   2.146   2.785  11.847  0.1773 -1.7083 -1.2762
19532TIP3    H280088   2.027   2.808  11.937  0.1938  0.8535 -1.8303
19533TIP3   OH280089   1.568   4.289  14.607 -0.5226  0.1412  0.1655
19533TIP3    H180090   1.502   4.228  14.639 -1.6693  0.5761 -1.2685
19533TIP3    H280091   1.534   4.375  14.631 -0.8942  0.4098 -1.2384
19534TIP3   OH280092   6.607   3.058   2.005 -0.3224 -0.5562 -0.1891
19534TIP3    H180093   6.547   3.084   2.075  0.3489  1.6707 -0.3777
19534TIP3    H280094   6.583   3.112   1.930  0.8720 -0.7901 -0.7666
19535TIP3   OH280095   4.894   5.918   1.853  0.0439 -0.0239  0.6888
19535TIP3    H180096   4.964   5.853   1.866 -2.0650 -2.1017  2.6892
19535TIP3    H280097   4.896   5.971   1.932  0.5843  1.2551 -0.1462
19536TIP3   OH280098   1.913   6.082   4.960 -0.0691  0.5478 -0.1129
19536TIP3    H180099   1.825   6.117   4.974  1.3150  3.9997  1.1767
19536TIP3    H280100   1.955   6.088   5.046  1.3351 -1.4492 -0.5836
19537TIP3   OH280101   2.269   0.527   4.260 -0.5358 -0.5913 -0.4984
19537TIP3    H180102   2.296   0.587   4.331  0.9034  0.5512 -1.9164
19537TIP3    H280103   2.317   0.446   4.277  1.0017  0.1855 -0.9317
19538TIP3   OH280104   3.820   2.404  14.811  0.3234  0.6137 -0.0060
19538TIP3    H180105   3.836   2.332  14.872  1.8497 -0.9757 -2.1594
19538TIP3    H280106   3.727   2.425  14.823 -0.4762 -2.4206 -0.0057
19539TIP3   OH280107   3.210   0.156   2.751  0.4737  0.3818  0.1132
19539TIP3    H180108   3.248   0.204   2.678 -1.1524  0.6745 -0.5629
19539TIP3    H280109   3.224   0.213   2.827  3.2329 -0.4377  0.3342
19540TIP3   OH280110   6.765   4.236   1.787 -0.1344  0.6153 -0.1070
19540TIP3    H180111   6.753   4.202   1.875 -0.1810 -0.9924 -0.7003
19540TIP3    H280112   6.789   4.328   1.799 -1.4699  0.7959  1.5217
19541TIP3   OH280113   3.105   4.671   3.960 -0.0326 -0.4506  0.8033
19541TIP3    H180114   3.170   4.738   3.935 -0.4012  0.1576  1.4594
19541TIP3    H280115   3.158   4.594   3.981  0.4002 -0.3651  0.0708
19542TIP3   OH280116   0.704   1.609   0.081  0.0595 -0.2148 -0.2780
19542TIP3    H180117   0.776   1.636   0.137  0.1003 -1.6048  0.3955
19542TIP3    H280118   0.685   1.519   0.108 -1.8832  0.0828 -0.4862
19543TIP3   OH280119   5.928   4.520   0.998  0.0564 -0.0628 -0.4330
19543TIP3    H180120   5.987   4.470   1.055 -2.1350 -2.4781 -0.0615
19543TIP3    H280121   5.858   4.549   1.057 -0.1516  1.0204 -1.1975
19544TIP3   OH280122   1.008   0.625  15.294  0.1328  0.2054 -0.4270
19544TIP3    H180123   0.957   0.550  15.324  1.5038 -0.6849 -0.2500
19544TIP3    H280124   1.019   0.611  15.200 -0.3019  0.6196 -0.5426
19545TIP3   OH280125   1.987   4.512   1.990 -0.1580 -0.4908  0.2120
19545TIP3    H180126   1.919   4.458   1.950 -1.1275 -1.4980  3.0178
19545TIP3    H280127   2.063   4.453   1.997 -0.2365 -0.5586  0.5135
19546TIP3   OH280128   3.689   6.750   1.959 -0.1849 -0.3403 -0.4451
19546TIP3    H180129   3.609   6.728   1.912 -0.7249  1.5583 -0.5104
19546TIP3    H280130   3.658   6.781   2.044  0.5941 -1.0457  0.1036
19547TIP3   OH280131   4.956   1.977   2.827 -0.0310 -0.0433  0.1421
19547TIP3    H180132   4.950   2.044   2.759 -1.1412 -1.3743 -1.1528
19547TIP3    H280133   5.049   1.955   2.831  0.0207 -0.1797 -1.2228
19548TIP3   OH280134   6.573   1.223   2.599  0.4593 -0.1781 -0.2248
19548TIP3    H180135   6.486   1.184   2.598 -0.2115  1.1486 -2.9717
19548TIP3    H280136   6.617   1.182   2.674 -1.4300 -3.2566 -0.6239
19549TIP3   OH280137   1.976   3.271   2.015 -0.2322 -0.4321  0.8118
19549TIP3    H180138   1.974   3.343   2.077 -0.9994  1.0112 -0.8099
19549TIP3    H280139   1.903   3.214   2.041 -0.3625 -0.0026  1.3979
19550TIP3   OH280140   2.586   2.816   0.706  0.1758 -0.0133 -0.5455
19550TIP3    H180141   2.502   2.824   0.661 -0.5436 -1.3636  0.4950
19550TIP3    H280142   2.649   2.858   0.646 -1.5546  3.4714 -0.1578
19551TIP3   OH280143   1.118   4.761   3.854  0.1761  0.0979 -0.5476
19551TIP3    H180144   1.117   4.710   3.773  0.0443 -0.8380  0.0282
19551TIP3    H280145   1.094   4.699   3.922  0.1658  0.9004  0.2040
19552TIP3   OH280146   5.695   5.571   3.924  0.0236  0.0872 -0.1575
19552TIP3    H180147   5.643   5.642   3.888 -0.9121  0.1473  1.2128
19552TIP3    H280148   5.776   5.612   3.953 -0.9084  0.8440  1.5386
19553TIP3   OH280149   0.266   1.110  15.068  0.0497  0.2591 -0.1148
19553TIP3    H180150   0.333   1.042  15.065 -0.7585 -0.6347  1.2180
19553TIP3    H280151   0.244   1.126  14.976  0.5828 -0.9540 -0.4732
19554TIP3   OH280152   2.664   2.907   2.357  0.4220 -0.0802 -0.0153
19554TIP3    H180153   2.634   2.958   2.281 -2.0182  2.7751  2.5865
19554TIP3    H280154   2.603   2.834   2.363 -1.5227  1.5367  0.9506
19555TIP3   OH280155   3.993   3.379   4.959 -0.1790  0.1770 -0.1203
19555TIP3    H180156   4.066   3.352   5.014  0.0523  0.1277 -0.4494
19555TIP3    H280157   4.010   3.471   4.939 -0.6643  0.4136  0.5198
19556TIP3   OH280158   1.432   0.105   2.347 -0.3106 -0.1089  0.1011
19556TIP3    H180159   1.368   0.168   2.314  0.0992  1.0770  1.4697
19556TIP3    H280160   1.390   0.067   2.425  0.9135  1.2728  1.4899
19557TIP3   OH280161   5.040   2.652   0.627 -0.0990  0.1492 -0.2240
19557TIP3    H180162   5.104   2.622   0.562 -0.0060 -0.6213  0.2077
19557TIP3    H280163   4.979   2.578   0.635  0.7445 -0.3879  1.6678
19558TIP3   OH280164   4.831   1.739   3.402  0.3794 -0.4070 -0.3118
19558TIP3    H180165   4.871   1.813   3.355  0.9016 -0.6423 -0.2448
19558TIP3    H280166   4.834   1.666   3.340 -0.0264 -0.4098 -0.3334
19559TIP3   OH280167   2.089   1.112  13.899 -0.4610  0.0361  0.4122
19559TIP3    H180168   2.116   1.159  13.977 -1.0518  0.2529  0.4921
19559TIP3    H280169   2.116   1.167  13.826  0.3931 -0.3234  0.4427
19560TIP3   OH280170   6.265   3.923   3.139 -0.1125 -0.4363  0.2145
19560TIP3    H180171   6.276   3.838   3.096  0.2630 -0.2075 -0.1544
19560TIP3    H280172   6.298   3.986   3.075 -0.1172 -0.0392  0.6012
19561TIP3   OH280173   4.183   5.370  14.366 -0.0163  0.5102 -0.3810
19561TIP3    H180174   4.214   5.394  14.454  0.1300 -0.6453 -0.0996
19561TIP3    H280175   4.264   5.354  14.317 -0.1078 -0.4413 -0.2462
19562TIP3   OH280176   1.124   4.103   1.854 -0.3900 -0.4961  0.3065
19562TIP3    H180177   1.164   4.154   1.925 -0.5047 -2.9611  2.3066
19562TIP3    H280178   1.194   4.090   1.791  0.2118  0.3245  0.7879
19563TIP3   OH280179   1.458   3.946   0.834  0.4069 -0.2020 -0.1423
19563TIP3    H180180   1.416   3.873   0.880 -1.1797  0.0871 -1.0468
19563TIP3    H280181   1.446   3.925   0.741  0.2291  1.0257 -0.4076
19564TIP3   OH280182   3.138   3.490   2.776 -0.8257  0.5667 -0.4816
19564TIP3    H180183   3.148   3.568   2.721  0.2757  0.7746 -0.0069
19564TIP3    H280184   3.208   3.497   2.841 -0.0172 -1.3427 -1.0775
19565TIP3   OH280185   0.956   1.026   5.676 -0.0231 -0.3936  0.0102
19565TIP3    H180186   1.006   1.085   5.733  0.6392 -1.5568  0.6668
19565TIP3    H280187   0.877   1.076   5.654  0.6059  0.8118  0.3694
19566TIP3   OH280188   4.069   4.376   4.353  0.3291  0.1191  0.0188
19566TIP3    H180189   4.008   4.365   4.280  2.5339  0.6103 -2.0199
19566TIP3    H280190   4.076   4.289   4.392 -1.1358 -0.0841 -0.1061
19567TIP3   OH280191   0.109   1.371   5.916 -0.5033  0.2842 -0.2982
19567TIP3    H180192   0.117   1.287   5.871 -0.6310  0.9154 -1.5250
19567TIP3    H280193   0.023   1.367   5.958 -1.5864  0.7197 -2.3601
19568TIP3   OH280194   0.179   0.976   5.348  0.3444 -0.4345  0.1541
19568TIP3    H180195   0.233   0.991   5.426  0.4128 -0.0447  0.0341
19568TIP3    H280196   0.242   0.963   5.277  0.2965  0.6364 -0.1043
19569TIP3   OH280197   0.301   5.958  14.548 -0.1949  0.0916 -0.4440
19569TIP3    H180198   0.315   5.980  14.456 -0.8778 -0.7411 -0.7525
19569TIP3    H280199   0.229   6.014  14.576  0.2161  0.5651 -0.3285
19570TIP3   OH280200   1.871   1.383   4.638 -0.4936  0.0653  0.2382
19570TIP3    H180201   1.786   1.388   4.683 -0.5173  0.6056  0.1482
19570TIP3    H280202   1.934   1.364   4.707 -0.5869  0.4741  0.4409
19571TIP3   OH280203   4.420   4.795   1.864 -0.1767 -0.3510 -0.2140
19571TIP3    H180204   4.508   4.817   1.893 -0.6300  0.1900  0.7920
19571TIP3    H280205   4.422   4.701   1.848 -0.4234 -1.1449  3.6303
19572TIP3   OH280206   4.645   5.973  14.484  0.7470 -0.3971  0.1746
19572TIP3    H180207   4.629   5.910  14.555  2.0664 -0.4576  0.4566
19572TIP3    H280208   4.720   6.024  14.515  0.5316  0.4285 -0.6356
19573TIP3   OH280209   6.463   5.985  14.478 -0.6456  0.5483  0.4084
19573TIP3    H180210   6.368   5.992  14.463 -0.7031  2.3620  1.3564
19573TIP3    H280211   6.476   6.019  14.566  0.7944 -0.6635  0.7060
19574TIP3   OH280212   1.417   6.225  12.766  0.0563  0.7077  0.0685
19574TIP3    H180213   1.371   6.302  12.733  0.4173  0.9025  0.0075
19574TIP3    H280214   1.433   6.244  12.859 -1.8044 -0.2513  0.6311
19575TIP3   OH280215   6.837   0.820   5.869  0.2611 -0.2057  0.1427
19575TIP3    H180216   6.765   0.840   5.929 -0.1109  2.1672 -0.9689
19575TIP3    H280217   6.824   0.880   5.795  3.1875  0.1088 -0.2437
19576TIP3   OH280218   5.762   3.283  10.441 -0.3908  0.1273 -0.3440
19576TIP3    H180219   5.840   3.229  10.438 -0.7571 -0.3829 -0.7071
19576TIP3    H280220   5.795   3.372  10.453  0.2390 -0.0946 -0.4097
19577TIP3   OH280221   1.427   4.692   4.187  0.1866 -0.5271 -0.2332
19577TIP3    H180222   1.389   4.622   4.133 -0.2370 -1.8571  1.6764
19577TIP3    H280223   1.360   4.709   4.254  0.3407  1.6661 -0.5618
19578TIP3   OH280224   5.974   4.968   2.276 -0.1520 -0.4179 -0.3008
19578TIP3    H180225   6.052   5.023   2.285 -0.6434  0.5584 -1.7202
19578TIP3    H280226   5.935   4.994   2.192 -0.0783 -3.3659 -1.3741
19579TIP3   OH280227   2.039   2.068   5.107 -0.8653  1.0288 -0.5776
19579TIP3    H180228   2.085   2.076   5.023 -1.7124  0.6868 -1.0848
19579TIP3    H280229   2.104   2.095   5.172 -0.0115  0.7551 -1.2931
19580TIP3   OH280230   1.462   6.771   3.672  0.0105  0.2852  0.3680
19580TIP3    H180231   1.396   6.731   3.615  0.1898 -0.9418  0.9951
19580TIP3    H280232   1.527   6.807   3.611 -0.2058 -0.2960 -0.2225
19581TIP3   OH280233   4.529   0.707   2.470  0.3829 -0.1330  0.2271
19581TIP3    H180234   4.568   0.629   2.431  0.4546 -0.0097  0.0500
19581TIP3    H280235   4.506   0.681   2.559  0.5802 -0.3002  0.2289
19582TIP3   OH280236   6.310   0.513  12.764 -0.4587  0.4276 -0.7225
19582TIP3    H180237   6.372   0.586  12.769 -0.2858  0.5569 -3.3921
19582TIP3    H280238   6.354   0.441  12.809  1.7330  0.4889 -2.6156
19583TIP3   OH280239   1.621   3.780   2.809  0.3520  0.1130 -0.4027
19583TIP3    H180240   1.592   3.769   2.719  2.5300 -0.2079 -1.1194
19583TIP3    H280241   1.592   3.701   2.854 -1.4839  0.6533 -0.5830
19584TIP3   OH280242   0.076   5.401   4.541  0.6442  0.0701 -0.6044
19584TIP3    H180243   0.090   5.362   4.454  0.3411  0.0042 -0.6239
19584TIP3    H280244   0.021   5.338   4.587  0.7527  0.1358 -0.3830
19585TIP3   OH280245   4.232   5.811  15.219  0.5096  0.6569 -0.1453
19585TIP3    H180246   4.274   5.849  15.297  1.3857 -0.5347 -0.0254
19585TIP3    H280247   4.283   5.844  15.146 -0.2013  1.6256 -0.2295
19586TIP3   OH280248   3.065   6.039   2.227  0.1582  0.2642 -0.8339
19586TIP3    H180249   3.076   6.069   2.317 -0.4990 -1.7006 -0.0468
19586TIP3    H280250   3.114   6.102   2.174 -1.7470  3.1506  0.5677
19587TIP3   OH280251   1.896   6.187  15.600 -0.0930 -0.0997 -0.2098
19587TIP3    H180252   1.946   6.267  15.612 -0.2074  0.3064 -2.1050
19587TIP3    H280253   1.813   6.204  15.645  0.7185 -0.0698  1.3509
19588TIP3   OH280254   2.011   5.293   5.478  0.2440 -0.2417  0.3447
19588TIP3    H180255   1.987   5.264   5.566 -0.8555  0.3174  0.2499
19588TIP3    H280256   1.977   5.225   5.420 -0.6041  0.2485  0.2501
19589TIP3   OH280257   1.564   3.836   1.781  0.0079  0.2777  1.0235
19589TIP3    H180258   1.537   3.903   1.844  0.7910  1.5482  0.0669
19589TIP3    H280259   1.491   3.830   1.720  0.2047  0.7922  0.7229
19590TIP3   OH280260   5.660   5.844  15.261  0.1842 -0.4831  0.2156
19590TIP3    H180261   5.702   5.929  15.256  0.1417 -0.4982 -0.6332
19590TIP3    H280262   5.574   5.861  15.301 -0.0872 -0.0167 -0.5384
19591TIP3   OH280263   5.002   3.095   3.154 -0.2337 -0.4013 -0.2487
19591TIP3    H180264   4.974   3.003   3.160 -1.2618 -0.0340  0.9625
19591TIP3    H280265   4.951   3.131   3.082  0.8015 -0.9617 -1.3099
19592TIP3   OH280266   1.372   5.197  13.936  0.5260 -0.7176 -0.3308
19592TIP3    H180267   1.297   5.256  13.936 -0.3476 -1.7969  0.7764
19592TIP3    H280268   1.426   5.227  13.862 -0.8506  0.2352 -0.9836
19593TIP3   OH280269   6.069   2.216  13.416  0.4243  0.5871  0.1100
19593TIP3    H180270   6.027   2.135  13.444  1.1207 -0.3487 -1.3996
19593TIP3    H280271   6.037   2.283  13.477 -2.1783 -0.3092 -0.1250
19594TIP3   OH280272   0.184   4.096  13.464 -0.5406 -0.0404  0.3865
19594TIP3    H180273   0.122   4.038  13.419 -0.0750  0.5694 -1.1127
19594TIP3    H280274   0.209   4.159  13.397  0.9747  0.2931  1.2442
19595TIP3   OH280275   6.574   3.645   3.366  0.6312  0.0285  0.3815
19595TIP3    H180276   6.665   3.673   3.372  1.2173 -1.4350 -0.9299
19595TIP3    H280277   6.550   3.659   3.275  0.3329 -1.8004  0.1438
19596TIP3   OH280278   3.045   7.000   3.656  0.3311  0.3027  0.0474
19596TIP3    H180279   3.087   7.038   3.579 -0.2872 -0.4999 -0.7042
19596TIP3    H280280   3.081   7.049   3.730 -0.0554  1.9770 -0.8407
19597TIP3   OH280281   5.623   4.603   3.784  0.4772  0.6184  0.0643
19597TIP3    H180282   5.697   4.582   3.840  0.5723  1.1352  0.1438
19597TIP3    H280283   5.601   4.693   3.807  0.0359  0.5789 -0.1942
19598TIP3   OH280284   0.367   2.539   0.648  0.7210 -0.2255  0.1868
19598TIP3    H180285   0.294   2.587   0.611 -1.6534 -3.6533 -0.0642
19598TIP3    H280286   0.436   2.544   0.581 -0.6711  0.0069 -1.2785
19599TIP3   OH280287   2.871   3.495   1.723  0.1750 -0.1582 -0.1068
19599TIP3    H180288   2.940   3.539   1.673 -0.7598  0.4506 -0.9003
19599TIP3    H280289   2.820   3.566   1.761 -0.2213 -0.5935  0.1829
19600TIP3   OH280290   5.975   3.650   2.460 -0.6679 -0.8229 -0.2446
19600TIP3    H180291   6.054   3.672   2.411 -0.5097 -0.7530  0.0383
19600TIP3    H280292   6.003   3.584   2.523 -0.4599  0.3723  0.9614
19601TIP3   OH280293   1.679   2.061   1.135  0.2697  0.9028  0.5540
19601TIP3    H180294   1.751   2.108   1.177  0.5373 -0.3050  1.4992
19601TIP3    H280295   1.719   1.982   1.099 -0.7325 -0.3253  2.0296
19602TIP3   OH280296   6.399   3.477   4.947 -0.0884 -0.6765  0.2724
19602TIP3    H180297   6.326   3.418   4.968  0.5813 -1.6717 -0.0791
19602TIP3    H280298   6.371   3.563   4.978 -1.6460 -0.9137 -0.3766
19603TIP3   OH280299   2.529   4.178   4.244 -0.1290  0.9101  0.0014
19603TIP3    H180300   2.600   4.161   4.306 -0.6140 -1.1601  0.0568
19603TIP3    H280301   2.573   4.208   4.164  0.7236  0.5496  0.3330
19604TIP3   OH280302   3.347   5.868   9.699  0.0532  0.5212 -0.3961
19604TIP3    H180303   3.359   5.774   9.715  2.8575  0.7035 -0.8399
19604TIP3    H280304   3.274   5.873   9.638 -0.9949 -1.2544  0.6320
19605TIP3   OH280305   4.184   3.270   5.587  0.3939  0.0373  0.0226
19605TIP3    H180306   4.163   3.269   5.680 -1.5404 -0.3970 -0.3787
19605TIP3    H280307   4.209   3.180   5.567  0.9257  0.1564  0.1305
19606TIP3   OH280308   2.625   6.840   3.311 -0.2237  0.2554 -0.2371
19606TIP3    H180309   2.672   6.909   3.265 -0.6477  0.0233 -1.0278
19606TIP3    H280310   2.588   6.883   3.388 -0.7852  0.9879 -0.9137
19607TIP3   OH280311   7.019   1.428  15.374  0.0121 -0.3041 -0.4293
19607TIP3    H180312   7.033   1.522  15.366 -0.3401 -0.2845 -0.8473
19607TIP3    H280313   7.075   1.401  15.447  1.4378 -0.0613 -1.3896
19608TIP3   OH280314   1.623   3.674   4.423  0.0948  0.3562  0.0639
19608TIP3    H180315   1.564   3.749   4.418 -1.2245 -0.6884 -3.8792
19608TIP3    H280316   1.574   3.608   4.472  0.3760  1.3240  1.6831
19609TIP3   OH280317   5.453   4.022   2.046  0.1428 -0.4939 -0.5366
19609TIP3    H180318   5.515   3.956   2.077  1.4199  0.6153 -0.6731
19609TIP3    H280319   5.502   4.104   2.046 -2.0347  0.9556  1.8633
19610TIP3   OH280320   6.928   1.825   2.687  0.2554 -0.1021  0.2134
19610TIP3    H180321   6.940   1.792   2.598  1.1449  0.2933  0.1785
19610TIP3    H280322   6.951   1.751   2.743 -1.5820 -0.7832  0.1351
19611TIP3   OH280323   3.925   3.109   1.371 -0.2849  0.4360  0.8276
19611TIP3    H180324   3.963   3.140   1.454  0.2394  0.2587  0.6544
19611TIP3    H280325   3.912   3.189   1.320 -0.2192  0.5048  0.9169
19612TIP3   OH280326   1.679   5.797   2.388 -0.2391  0.3078 -0.1427
19612TIP3    H180327   1.671   5.708   2.355  0.4147  0.0162  0.4528
19612TIP3    H280328   1.655   5.790   2.481  1.9960  0.2982  0.4788
19613TIP3   OH280329   0.977   2.951   5.495 -0.0269 -0.0255  0.0920
19613TIP3    H180330   0.922   2.898   5.552  0.0547  1.0215  1.1707
19613TIP3    H280331   0.967   3.040   5.527  1.4634  0.3411 -0.3512
19614TIP3   OH280332   3.383   3.634   2.447  0.0355 -0.0510 -0.2494
19614TIP3    H180333   3.339   3.710   2.482 -2.3170 -1.8448  0.9518
19614TIP3    H280334   3.452   3.614   2.511 -0.5148  0.0213  0.3699
19615TIP3   OH280335   4.952   0.202  15.460 -0.7387 -0.3326  0.0353
19615TIP3    H180336   4.857   0.202  15.446 -0.6899 -1.1834 -0.3038
19615TIP3    H280337   4.970   0.287  15.501 -1.5122  0.2246 -0.7670
19616TIP3   OH280338   6.996   4.078  14.391 -0.1184 -0.4183  0.5783
19616TIP3    H180339   6.919   4.121  14.354 -1.6468 -3.3511  0.0005
19616TIP3    H280340   6.973   4.062  14.483  1.1499  1.4214  1.2658
19617TIP3   OH280341   2.334   5.850  11.805 -0.0459 -0.3977 -0.3567
19617TIP3    H180342   2.376   5.935  11.823 -1.8088 -0.0101  2.7720
19617TIP3    H280343   2.389   5.786  11.850 -0.7949 -0.3442  0.6778
19618TIP3   OH280344   6.433   6.616   5.446 -0.1610  0.4833  0.0740
19618TIP3    H180345   6.486   6.694   5.459 -1.6824  1.4408  0.8987
19618TIP3    H280346   6.387   6.604   5.529  0.8335 -1.9679  0.3757
19619TIP3   OH280347   6.943   3.618  11.118  0.1720  0.0788  0.1862
19619TIP3    H180348   6.849   3.599  11.111  0.0814  0.6276 -0.2249
19619TIP3    H280349   6.980   3.541  11.161 -0.6633  0.3898  1.5271
19620TIP3   OH280350   3.794   3.023  14.692 -0.2177  0.5441 -0.1417
19620TIP3    H180351   3.803   3.081  14.616 -2.2174  0.7917 -0.2205
19620TIP3    H280352   3.705   2.989  14.687 -0.2990  0.3254  1.9470
19621TIP3   OH280353   5.304   1.953  15.140 -0.6231 -0.6510 -0.5696
19621TIP3    H180354   5.283   1.884  15.077 -0.1487 -0.5406 -0.8559
19621TIP3    H280355   5.391   1.929  15.174  0.4283  0.7825 -2.0766
19622TIP3   OH280356   3.934   1.206   1.839  0.1715 -0.0574 -0.5451
19622TIP3    H180357   3.921   1.122   1.884  0.6571 -0.3705 -0.9709
19622TIP3    H280358   3.975   1.262   1.905  0.4616 -0.3709 -0.4548
19623TIP3   OH280359   4.555   5.579  11.893  0.0878 -0.4959  0.2840
19623TIP3    H180360   4.592   5.564  11.806 -0.0549 -0.2836  0.1857
19623TIP3    H280361   4.599   5.657  11.925 -0.2752 -0.2414  0.1658
19624TIP3   OH280362   6.788   5.257   9.806  0.1510  0.2676 -0.0868
19624TIP3    H180363   6.803   5.185   9.744 -0.4019  0.8556 -0.9194
19624TIP3    H280364   6.854   5.243   9.874  1.0899 -0.1202 -1.0401
19625TIP3   OH280365   1.831   2.147   1.510  0.1317  0.1455  0.1246
19625TIP3    H180366   1.860   2.158   1.419 -1.5582 -0.9047 -0.6029
19625TIP3    H280367   1.910   2.123   1.558  1.1404  1.1285 -0.9702
19626TIP3   OH280368   0.973   1.583   2.881  0.3119  0.0652 -0.6903
19626TIP3    H180369   0.918   1.644   2.831  0.2948 -0.5911 -1.4865
19626TIP3    H280370   1.013   1.527   2.815  1.2448 -0.0490 -0.0557
19627TIP3   OH280371   5.106   6.987   1.514  0.2702 -0.3145 -0.1160
19627TIP3    H180372   5.041   6.917   1.506 -1.0044  0.9515 -1.3671
19627TIP3    H280373   5.075   7.040   1.587  0.7284 -0.5099  0.2298
19628TIP3   OH280374   3.994   5.461   5.580 -0.1087  0.3093  0.0717
19628TIP3    H180375   4.041   5.533   5.623  1.3494 -0.3065 -0.4367
19628TIP3    H280376   4.061   5.396   5.562 -1.2378 -0.7747 -0.3711
19629TIP3   OH280377   0.637   3.012   2.525 -0.1179  0.3679 -0.7445
19629TIP3    H180378   0.579   2.944   2.490 -1.4503  0.8117  0.4752
19629TIP3    H280379   0.581   3.090   2.530  0.8347  1.0424 -0.3062
19630TIP3   OH280380   4.254   6.459  15.431 -0.2938 -0.4474 -0.3844
19630TIP3    H180381   4.172   6.487  15.473 -0.2152  0.1478 -0.6205
19630TIP3    H280382   4.293   6.540  15.399  0.7238 -0.6439  0.3094
19631TIP3   OH280383   3.950   6.090   1.513  0.0930  0.3603 -0.6292
19631TIP3    H180384   4.032   6.133   1.536 -0.8617  1.0617  1.7906
19631TIP3    H280385   3.965   5.997   1.533  0.3425  0.4705 -0.2934
19632TIP3   OH280386   1.058   0.062   4.752  0.1985 -0.1024 -0.7865
19632TIP3    H180387   1.026   0.150   4.773  0.7388 -0.4775  2.1113
19632TIP3    H280388   0.981   0.006   4.759  0.1369 -0.0539 -1.0868
19633TIP3   OH280389   6.069   4.157   4.108 -0.3626  0.0949  0.6460
19633TIP3    H180390   6.016   4.138   4.186  1.6964  0.0288  2.1125
19633TIP3    H280391   6.118   4.236   4.131  1.3411 -0.7375  0.0035
19634TIP3   OH280392   6.026   2.922  15.504  0.3687 -0.1506 -0.0063
19634TIP3    H180393   5.934   2.928  15.479  0.3791  0.9055  0.1393
19634TIP3    H280394   6.051   2.832  15.485 -0.2888 -0.0558 -1.4591
19635TIP3   OH280395   3.407   2.227  13.985  0.2160 -0.4819 -0.4821
19635TIP3    H180396   3.392   2.303  13.928  1.7359 -1.3420 -2.1656
19635TIP3    H280397   3.342   2.235  14.054  0.1001  2.1592 -0.7831
19636TIP3   OH280398   5.244   0.940   0.985 -0.5852 -0.1992 -0.3983
19636TIP3    H180399   5.300   0.929   1.062  0.2484 -0.5853 -1.0418
19636TIP3    H280400   5.156   0.918   1.016 -0.1552 -1.0389  0.2715
19637TIP3   OH280401   4.820   3.707   4.113  0.4183 -0.3402 -0.1159
19637TIP3    H180402   4.760   3.762   4.163 -0.2570 -0.4766 -0.7573
19637TIP3    H280403   4.907   3.742   4.133  0.0871  0.1982  0.4080
19638TIP3   OH280404   0.449   2.351  14.426 -0.2857  0.1839  0.1410
19638TIP3    H180405   0.384   2.395  14.481 -0.1854  1.3914 -0.6792
19638TIP3    H280406   0.397   2.303  14.362 -0.3938  1.1350 -0.5032
19639TIP3   OH280407   0.270   6.908   4.898  0.0011  0.0179 -0.4455
19639TIP3    H180408   0.265   6.887   4.992  2.2275  0.4943 -0.1589
19639TIP3    H280409   0.265   6.823   4.854 -0.7089 -0.2412  0.1021
19640TIP3   OH280410   1.336   5.814  14.347 -0.4401 -0.0090  0.0873
19640TIP3    H180411   1.352   5.853  14.432 -0.2725 -0.7391  0.3934
19640TIP3    H280412   1.240   5.818  14.337 -0.3338  1.9422 -0.6006
19641TIP3   OH280413   2.450   1.565   3.947  0.4281  0.1274 -0.0047
19641TIP3    H180414   2.504   1.516   3.885 -0.7489 -0.7737 -0.3711
19641TIP3    H280415   2.373   1.591   3.896 -0.1710  0.0905  0.8595
19642TIP3   OH280416   5.941   0.310   4.309 -0.3534  0.4013  0.0319
19642TIP3    H180417   5.877   0.345   4.371  0.3332 -0.6980  1.4140
19642TIP3    H280418   5.891   0.252   4.252 -0.6948 -0.0284  0.7593
19643TIP3   OH280419   6.360   3.909   6.350  0.1980 -0.7455  0.1443
19643TIP3    H180420   6.403   3.833   6.388  0.5574 -0.2223  0.8063
19643TIP3    H280421   6.421   3.940   6.282  1.9767  1.2662  2.4929
19644TIP3   OH280422   5.573   4.712   4.782 -0.2950 -0.4627 -0.2655
19644TIP3    H180423   5.559   4.777   4.713 -1.5734 -0.3286  0.0827
19644TIP3    H280424   5.653   4.667   4.757  0.6510  1.2714 -0.4994
19645TIP3   OH280425   5.599   1.639  14.510 -0.4450 -0.3155 -0.3427
19645TIP3    H180426   5.671   1.644  14.573  0.4152 -1.6688 -1.1665
19645TIP3    H280427   5.597   1.726  14.470  1.8934 -0.7041 -1.4946
19646TIP3   OH280428   3.483   5.029   3.728  0.1129 -0.1704  0.4060
19646TIP3    H180429   3.525   4.944   3.716 -0.2313 -0.2635 -0.1753
19646TIP3    H280430   3.432   5.019   3.808 -1.8062 -1.3018 -0.8799
19647TIP3   OH280431   1.589   6.988   4.706  0.1931  0.0471  0.8494
19647TIP3    H180432   1.559   7.078   4.712 -0.3117 -0.0219 -0.3740
19647TIP3    H280433   1.642   6.985   4.627 -1.8849 -1.2586 -0.5942
19648TIP3   OH280434   3.677   4.930   0.272  0.2411 -0.3830 -0.8379
19648TIP3    H180435   3.720   4.844   0.271  1.1427  0.0548 -1.3380
19648TIP3    H280436   3.699   4.967   0.358 -0.4185 -0.7730 -0.4940
19649TIP3   OH280437   6.305   2.177   4.269  0.0746 -0.2306 -0.0973
19649TIP3    H180438   6.303   2.269   4.243  1.8166 -0.3998 -1.0409
19649TIP3    H280439   6.390   2.167   4.312 -1.0429 -0.9242  2.0580
19650TIP3   OH280440   1.603   6.982  12.925  0.2245  0.6506 -0.3705
19650TIP3    H180441   1.536   6.994  12.857 -0.5895  1.0108  0.4790
19650TIP3    H280442   1.661   7.057  12.915  1.5944 -0.5626 -2.2777
19651TIP3   OH280443   7.142   1.379   3.941 -0.0893  0.1701  0.2802
19651TIP3    H180444   7.163   1.465   3.976 -1.3556  1.9477 -2.9164
19651TIP3    H280445   7.048   1.382   3.925 -0.1817 -1.8602  0.1710
19652TIP3   OH280446   2.581   3.125   2.200 -0.5233 -0.0347  0.3265
19652TIP3    H180447   2.673   3.151   2.198 -0.7071  0.6012 -0.7920
19652TIP3    H280448   2.550   3.142   2.111 -1.1240 -2.4559  0.0161
19653TIP3   OH280449   0.080   0.696   4.240  0.1183 -0.1168 -0.1166
19653TIP3    H180450   0.045   0.782   4.261 -2.1318 -0.8485 -0.5480
19653TIP3    H280451   0.089   0.652   4.324 -3.2862 -1.0262 -0.0938
19654TIP3   OH280452   1.374   3.809   3.009  0.6314 -0.2432 -0.1712
19654TIP3    H180453   1.446   3.747   3.016  0.4724 -0.5019 -0.8161
19654TIP3    H280454   1.357   3.816   2.915  0.6852  0.8181 -0.1182
19655TIP3   OH280455   3.961   5.303   5.936 -0.6302 -0.2841  0.5810
19655TIP3    H180456   4.032   5.242   5.919 -1.4101 -1.5386  1.6269
19655TIP3    H280457   4.000   5.370   5.992 -0.4699 -1.4912  1.9652
19656TIP3   OH280458   2.644   0.322   1.074 -0.0077 -0.2658  0.5229
19656TIP3    H180459   2.731   0.313   1.035 -0.7624 -1.1156 -1.0842
19656TIP3    H280460   2.591   0.360   1.004 -1.7221 -3.0086  0.1769
19657TIP3   OH280461   4.520   2.284   2.830  0.3874  0.4851  0.9614
19657TIP3    H180462   4.448   2.261   2.888  0.1424 -0.9037  0.1577
19657TIP3    H280463   4.492   2.254   2.744  1.2224  1.4552  0.3265
19658TIP3   OH280464   4.774   6.259   3.192  0.1019 -0.8054  0.3428
19658TIP3    H180465   4.721   6.319   3.244  0.5467  0.4541 -0.5991
19658TIP3    H280466   4.712   6.193   3.160 -0.5360 -0.4421  0.8106
19659TIP3   OH280467   4.962   0.455  15.556 -0.2601  0.1193 -0.6246
19659TIP3    H180468   5.036   0.454  15.495  0.2357  1.1727 -0.0752
19659TIP3    H280469   4.919   0.539  15.541 -1.9925 -0.9040 -1.6533
19660TIP3   OH280470   4.224   4.637   5.645  0.7972  0.3844  0.4276
19660TIP3    H180471   4.194   4.578   5.576 -1.0166  1.2499  0.4104
19660TIP3    H280472   4.238   4.580   5.720 -0.2058 -0.1851  0.2043
19661TIP3   OH280473   3.388   5.845   0.636 -0.2578  0.1733  0.6843
19661TIP3    H180474   3.326   5.888   0.578 -0.0777 -0.4582  0.0077
19661TIP3    H280475   3.422   5.772   0.585  2.3377  1.4843  0.3572
19662TIP3   OH280476   3.424   5.616   1.797  0.3151 -0.1987 -0.3755
19662TIP3    H180477   3.406   5.651   1.885  1.0899 -1.6458  0.3979
19662TIP3    H280478   3.425   5.693   1.740 -0.9706  0.6891  0.7428
19663TIP3   OH280479   2.679   1.175   5.386 -0.4691 -0.1846  0.2729
19663TIP3    H180480   2.771   1.202   5.392 -1.2714  2.6541  1.0129
19663TIP3    H280481   2.634   1.249   5.347 -2.6209 -1.1269  0.8025
19664TIP3   OH280482   0.669   5.837  11.477 -0.1090 -0.3196  0.9310
19664TIP3    H180483   0.739   5.772  11.482 -0.4481 -0.6623  1.2564
19664TIP3    H280484   0.667   5.878  11.563  0.6609  0.7189  0.4777
19665TIP3   OH280485   6.938   2.800   0.241 -0.1927 -0.6829  0.0507
19665TIP3    H180486   6.843   2.802   0.235 -0.2588  0.5270  1.1461
19665TIP3    H280487   6.957   2.730   0.304 -0.3716 -0.6797  0.1086
19666TIP3   OH280488   2.800   3.367   1.266 -0.2818  0.0552  0.7248
19666TIP3    H180489   2.882   3.319   1.281  1.0644  1.9125 -0.1809
19666TIP3    H280490   2.781   3.409   1.350 -0.9018 -1.1885  1.2278
19667TIP3   OH280491   0.785   3.755   4.106 -0.1469 -0.9782 -0.2559
19667TIP3    H180492   0.783   3.695   4.031 -1.8356 -1.0796 -0.1683
19667TIP3    H280493   0.695   3.787   4.113 -0.1462 -1.3498  2.0362
19668TIP3   OH280494   0.699   5.078   1.237 -0.6254 -0.5934 -0.5851
19668TIP3    H180495   0.655   5.048   1.157 -0.9244  0.3405 -0.7785
19668TIP3    H280496   0.696   5.173   1.232  0.5394 -0.5193 -0.0982
19669TIP3   OH280497   1.321   6.244   4.610  0.5501 -0.6155  0.6744
19669TIP3    H180498   1.311   6.263   4.703  0.0332 -1.4142  0.7895
19669TIP3    H280499   1.259   6.173   4.593 -2.1779  1.9520 -1.0771
19670TIP3   OH280500   1.792   4.818   0.619 -0.0224  0.1100 -0.3389
19670TIP3    H180501   1.830   4.829   0.707 -1.3171 -1.6717  0.5120
19670TIP3    H280502   1.868   4.809   0.562  0.8581  0.0132  0.7970
19671TIP3   OH280503   5.261   2.055   2.504 -0.7864  0.0531  0.3413
19671TIP3    H180504   5.251   2.150   2.496  1.4436  0.3179  0.0736
19671TIP3    H280505   5.311   2.043   2.584  0.8135 -0.7090 -0.7212
19672TIP3   OH280506   5.071   1.613   4.917 -0.0182 -0.5738  0.0222
19672TIP3    H180507   4.987   1.622   4.873  0.6737  1.2867 -1.0570
19672TIP3    H280508   5.063   1.669   4.994 -0.0279 -1.0414  0.3657
19673TIP3   OH280509   1.254   3.507   2.818  0.2449 -0.0970 -0.4327
19673TIP3    H180510   1.167   3.471   2.835  0.0028  0.9543  0.7018
19673TIP3    H280511   1.238   3.600   2.799  0.9990 -0.1903 -1.6889
19674TIP3   OH280512   2.890   3.488   2.918 -0.3867  0.1913  0.3035
19674TIP3    H180513   2.962   3.514   2.860 -0.7755  1.4353  0.3511
19674TIP3    H280514   2.811   3.519   2.874 -0.6582  1.5682  1.6737
19675TIP3   OH280515   6.117   4.298   2.499 -1.1360 -0.3162  0.4611
19675TIP3    H180516   6.032   4.302   2.457 -1.1284 -0.3805  0.4398
19675TIP3    H280517   6.175   4.349   2.442 -1.1265 -0.3999  0.3956
19676TIP3   OH280518   0.566   3.415   4.546 -0.6855  0.7962  0.3264
19676TIP3    H180519   0.492   3.476   4.547 -1.2119  0.1979 -0.5289
19676TIP3    H280520   0.561   3.370   4.630 -2.4887 -0.5835 -0.4396
19677TIP3   OH280521   2.198   2.321   0.643 -0.0394 -0.3190  0.0541
19677TIP3    H180522   2.145   2.396   0.669 -1.8850 -2.0595  1.6255
19677TIP3    H280523   2.227   2.283   0.725  0.6894 -1.4496 -0.7039
19678TIP3   OH280524   4.572   0.708   0.064 -0.4803  0.4137 -0.2404
19678TIP3    H180525   4.602   0.797   0.045 -1.6328  0.7170 -0.7487
19678TIP3    H280526   4.556   0.669  -0.023  1.9603 -1.0275 -0.1355
19679TIP3   OH280527   5.543   0.785   3.813 -0.6823 -0.2636 -0.0912
19679TIP3    H180528   5.610   0.717   3.806  1.3155  1.6975 -1.8018
19679TIP3    H280529   5.516   0.801   3.722 -2.2610  0.1631  0.4326
19680TIP3   OH280530   1.013   2.522   0.719  0.2255  0.3481  0.1753
19680TIP3    H180531   1.022   2.616   0.732  1.9624  0.2746 -0.1643
19680TIP3    H280532   1.054   2.505   0.634 -3.0634 -0.3142 -1.4505
19681TIP3   OH280533   3.565   3.047   4.718 -0.5154  0.1905 -0.0131
19681TIP3    H180534   3.504   3.120   4.707 -2.5165 -1.4080 -0.1121
19681TIP3    H280535   3.621   3.074   4.790 -0.7000  2.1266 -0.5337
19682TIP3   OH280536   4.661   2.739   0.652  0.2933  0.0107 -0.3002
19682TIP3    H180537   4.676   2.654   0.692 -0.0042 -0.0475 -0.3133
19682TIP3    H280538   4.749   2.771   0.631  0.3541 -0.9800 -1.7358
19683TIP3   OH280539   5.672   3.306   5.224  0.2172 -0.0757 -0.8022
19683TIP3    H180540   5.702   3.226   5.267 -0.6406 -0.8914 -1.6791
19683TIP3    H280541   5.662   3.282   5.132 -0.1433  1.0127 -1.0617
19684TIP3   OH280542   0.482   7.052  15.505 -0.0300  0.4921  0.3813
19684TIP3    H180543   0.450   6.983  15.446  1.0077  0.5066 -0.2238
19684TIP3    H280544   0.559   7.087  15.461  1.1169  0.1256  2.0237
19685TIP3   OH280545   5.872   6.542   1.564  0.1298 -0.3086 -0.2179
19685TIP3    H180546   5.940   6.579   1.621 -1.8151  0.8519  1.5179
19685TIP3    H280547   5.863   6.606   1.494  0.0609  0.1117  0.1669
19686TIP3   OH280548   2.424   5.094   5.506 -0.7989 -0.3538 -0.1952
19686TIP3    H180549   2.380   5.153   5.568  0.0873  0.8595 -0.6653
19686TIP3    H280550   2.377   5.011   5.513 -1.4668  0.1185  1.2222
19687TIP3   OH280551   3.607   4.124   2.533 -0.3161  0.3253  0.3426
19687TIP3    H180552   3.640   4.051   2.585  0.5749  0.3111 -0.2163
19687TIP3    H280553   3.667   4.196   2.551  0.6152  0.0451 -1.3658
19688TIP3   OH280554   6.485   3.354   2.871 -0.1378 -0.4561  0.1756
19688TIP3    H180555   6.493   3.289   2.801  2.1172  1.5977 -1.6507
19688TIP3    H280556   6.401   3.397   2.856 -1.2173 -2.2426  0.8494
19689TIP3   OH280557   5.333   1.695   2.434 -0.5262 -0.3660 -0.1836
19689TIP3    H180558   5.268   1.681   2.365  1.3140 -1.7251 -1.7384
19689TIP3    H280559   5.378   1.611   2.442  1.6463  0.7753  0.1679
19690TIP3   OH280560   6.799   2.574   2.221 -0.2240  0.5264  0.4552
19690TIP3    H180561   6.822   2.502   2.279 -0.6442  0.2329  0.2595
19690TIP3    H280562   6.876   2.585   2.165  0.5433  1.4012  1.6408
19691TIP3   OH280563   5.332   6.792  15.375 -0.3662 -0.5681 -0.3249
19691TIP3    H180564   5.385   6.714  15.360  0.5551 -0.0375  0.1318
19691TIP3    H280565   5.395   6.862  15.391 -1.2006  0.1040  0.1164
19692TIP3   OH280566   5.607   1.906   1.086  0.2096  0.4196 -0.0412
19692TIP3    H180567   5.582   1.842   1.152 -1.7451  0.2585 -0.8815
19692TIP3    H280568   5.639   1.981   1.137  0.8426 -0.5178  0.9907
19693TIP3   OH280569   1.369   5.640   3.182 -0.1656  0.3803 -0.3270
19693TIP3    H180570   1.400   5.551   3.197  0.6722  0.4749 -1.3891
19693TIP3    H280571   1.378   5.683   3.267 -0.1480 -0.4188  0.0812
19694TIP3   OH280572   1.981   4.585  15.285 -0.0186  0.0043 -0.4330
19694TIP3    H180573   2.031   4.573  15.204  0.6399  0.8590 -0.1745
19694TIP3    H280574   1.895   4.614  15.256 -0.3557 -1.3535 -0.8810
19695TIP3   OH280575   4.598   0.254  12.411 -0.5733  0.1039 -0.1833
19695TIP3    H180576   4.662   0.312  12.452 -0.9259  0.1035  0.3767
19695TIP3    H280577   4.550   0.310  12.350 -0.1559  0.1428 -0.4756
19696TIP3   OH280578   4.921   3.126   0.545  0.2612  0.1001 -0.1525
19696TIP3    H180579   4.941   3.126   0.452 -1.0549 -2.2166 -0.5038
19696TIP3    H280580   5.006   3.124   0.589  0.8685 -0.4635 -1.3303
19697TIP3   OH280581   0.091   3.777   2.249 -0.4076  0.0833 -0.0213
19697TIP3    H180582   0.107   3.714   2.178  0.5414 -1.3512  1.3827
19697TIP3    H280583   0.062   3.856   2.205 -0.3236 -0.9108 -1.9747
19698TIP3   OH280584   3.381   4.162   4.432  0.1617 -0.4545 -0.1333
19698TIP3    H180585   3.304   4.171   4.377 -1.0017 -0.9693  1.3490
19698TIP3    H280586   3.406   4.252   4.453 -0.1751 -0.2928 -0.4166
19699TIP3   OH280587   3.688   6.498   5.920 -0.7446  0.2813  0.0914
19699TIP3    H180588   3.604   6.454   5.929 -0.7724  0.5274  1.2066
19699TIP3    H280589   3.666   6.585   5.887 -0.8619  0.1134 -0.2752
19700TIP3   OH280590   0.665   5.750   3.712 -0.7021 -0.3950 -0.7581
19700TIP3    H180591   0.603   5.716   3.776 -2.2396  0.9122 -1.4538
19700TIP3    H280592   0.701   5.673   3.669  0.0245 -1.2824  1.3221
19701TIP3   OH280593   1.328   5.892  12.642 -0.4618 -0.0219 -0.2706
19701TIP3    H180594   1.366   5.886  12.730  2.6972  2.6779 -1.2677
19701TIP3    H280595   1.273   5.970  12.645 -3.1197 -1.7640  0.0625
19702TIP3   OH280596   6.166   5.525   1.718  0.1382 -0.2059 -0.7152
19702TIP3    H180597   6.246   5.579   1.725  0.0007 -0.0766 -0.0668
19702TIP3    H280598   6.103   5.570   1.774  0.3362 -1.6014  0.6901
19703TIP3   OH280599   5.497   3.285  15.076 -0.0469  0.3389  0.6511
19703TIP3    H180600   5.408   3.249  15.069  0.1011 -0.2791  1.6532
19703TIP3    H280601   5.554   3.210  15.062  0.3649  0.9662 -1.2418
19704TIP3   OH280602   2.219   2.055   5.343 -0.1916 -0.2516  0.1624
19704TIP3    H180603   2.307   2.068   5.308  1.2890  0.5146  3.7503
19704TIP3    H280604   2.211   2.117   5.415 -2.0024 -3.1037  2.7161
19705TIP3   OH280605   1.399   6.605   4.135  0.0391  0.8120  0.2866
19705TIP3    H180606   1.437   6.577   4.218 -0.4599 -0.7135  0.0249
19705TIP3    H280607   1.472   6.645   4.087  0.6840  0.3398  0.8599
19706TIP3   OH280608   6.823   0.031   3.660  0.7392  0.0947 -0.1556
19706TIP3    H180609   6.779  -0.053   3.646 -3.8004  1.6963  2.3311
19706TIP3    H280610   6.808   0.079   3.578  0.4761 -0.4097 -0.4123
19707TIP3   OH280611   1.385   5.087   5.513 -0.0359  0.3419 -0.2334
19707TIP3    H180612   1.381   5.085   5.609  0.6978 -0.6911 -0.2017
19707TIP3    H280613   1.465   5.135   5.494  1.0276 -1.3624 -0.2537
19708TIP3   OH280614   2.027   1.594   0.830 -0.4666  0.1586  0.5131
19708TIP3    H180615   1.964   1.662   0.806  0.1723  0.4592 -0.3753
19708TIP3    H280616   2.061   1.563   0.746  1.0669  0.4959  0.9747
19709TIP3   OH280617   0.643   5.546   0.072 -0.0264 -0.5349  0.8061
19709TIP3    H180618   0.653   5.454   0.048 -2.6112 -0.6950  0.0034
19709TIP3    H280619   0.726   5.569   0.113  0.9780 -3.0005  0.3601
19710TIP3   OH280620   0.668   3.568   1.325  0.1858 -0.0672 -0.1555
19710TIP3    H180621   0.682   3.659   1.298  1.1867 -0.4605 -1.0417
19710TIP3    H280622   0.649   3.521   1.243 -2.3342 -0.3407  0.5093
19711TIP3   OH280623   3.301   1.811   2.332  0.3258  0.4369  0.5751
19711TIP3    H180624   3.242   1.873   2.374  0.2293 -0.0040  1.1068
19711TIP3    H280625   3.283   1.727   2.376 -1.0353 -0.4643 -1.5199
19712TIP3   OH280626   6.891   3.999   5.992  0.1228 -0.3730  0.3263
19712TIP3    H180627   6.824   4.057   6.027 -0.9236 -0.3826 -1.5570
19712TIP3    H280628   6.867   3.912   6.024 -0.5871 -0.3253 -0.0569
19713TIP3   OH280629   1.890   4.233   4.081  0.1954  0.9571  0.3038
19713TIP3    H180630   1.835   4.219   4.158 -0.9137  1.8462 -0.3056
19713TIP3    H280631   1.973   4.266   4.116  0.2373 -0.0672  1.2054
19714TIP3   OH280632   6.818   3.158   4.108  0.4472  0.0488  0.4083
19714TIP3    H180633   6.902   3.177   4.067  1.0649  0.4953  1.8308
19714TIP3    H280634   6.765   3.121   4.037  1.6252  0.3279 -0.6578
19715TIP3   OH280635   3.051   4.436   2.431 -0.0303 -0.0159 -0.0742
19715TIP3    H180636   2.998   4.466   2.357 -2.1238  1.1278  1.7451
19715TIP3    H280637   3.079   4.516   2.475  2.0566 -0.6454 -0.1455
19716TIP3   OH280638   4.483   5.636  14.462 -0.4637  0.3494  0.5053
19716TIP3    H180639   4.427   5.713  14.451  0.8065  1.4836  1.5742
19716TIP3    H280640   4.528   5.627  14.378 -1.0043  0.4558  0.1996
19717TIP3   OH280641   2.815   6.057   2.406  0.1905 -0.1561 -0.0783
19717TIP3    H180642   2.886   6.042   2.344  0.5075 -1.8677  0.6382
19717TIP3    H280643   2.796   5.970   2.442 -2.4894  0.2027 -0.4583
19718TIP3   OH280644   0.168   2.695   1.538 -0.5263 -0.0071 -0.4979
19718TIP3    H180645   0.073   2.685   1.536 -0.7989  1.4499  1.9587
19718TIP3    H280646   0.201   2.605   1.540 -1.8623 -0.5250 -0.5147
19719TIP3   OH280647   3.605   5.062   1.958  0.0392  0.4364  0.2279
19719TIP3    H180648   3.655   5.084   2.037  0.0345  0.2792  0.2772
19719TIP3    H280649   3.627   4.970   1.942  0.4438  0.6162 -0.2562
19720TIP3   OH280650   6.912   6.974   4.555 -0.5153  0.4092 -0.4546
19720TIP3    H180651   6.955   6.999   4.473 -0.0304  0.0686 -0.3093
19720TIP3    H280652   6.818   6.982   4.536 -0.5039 -1.5538 -1.6897
19721TIP3   OH280653   5.812   2.241   2.234  0.1572 -0.3251  1.0004
19721TIP3    H180654   5.804   2.273   2.144 -0.2104 -0.0622  1.1239
19721TIP3    H280655   5.760   2.162   2.236 -0.2764 -0.0387  1.1202
19722TIP3   OH280656   2.778   2.181  14.928 -0.0707 -0.3031  0.5067
19722TIP3    H180657   2.729   2.101  14.911  1.7897 -1.5481  0.7006
19722TIP3    H280658   2.823   2.165  15.010 -0.1839  1.2373  0.9017
19723TIP3   OH280659   4.056   6.411   5.107 -0.4044  0.1198 -0.0178
19723TIP3    H180660   4.011   6.490   5.077  0.2136  0.7574  0.6993
19723TIP3    H280661   4.028   6.343   5.046  1.0272  1.4111 -2.2549
19724TIP3   OH280662   4.700   0.729   0.600 -0.2218  0.0594  0.4472
19724TIP3    H180663   4.689   0.691   0.513 -1.9743  0.2502  0.5455
19724TIP3    H280664   4.743   0.813   0.584  2.3050 -1.1940  0.0950
19725TIP3   OH280665   2.346   7.130   5.020  0.7552  0.1392 -0.4133
19725TIP3    H180666   2.401   7.203   5.049 -1.6874  1.3344  1.5997
19725TIP3    H280667   2.356   7.128   4.925  3.1910  1.1367 -0.2447
19726TIP3   OH280668   4.544   4.087   2.097 -0.1796 -0.2363  0.2670
19726TIP3    H180669   4.494   4.077   2.016 -0.2763 -0.9016  0.3981
19726TIP3    H280670   4.478   4.105   2.164 -0.4196 -2.2178  0.6452
19727TIP3   OH280671   3.290   2.300   5.487 -0.3648  0.0812 -0.2321
19727TIP3    H180672   3.321   2.266   5.403  0.0605 -1.6541  0.5775
19727TIP3    H280673   3.358   2.276   5.550 -1.4203 -0.1377  0.8828
19728TIP3   OH280674   1.541   5.469   5.148  0.4900  0.3754  0.4270
19728TIP3    H180675   1.557   5.454   5.241 -1.4427  1.0301  0.9014
19728TIP3    H280676   1.447   5.456   5.138  0.7005  0.0909 -1.5006
19729TIP3   OH280677   6.558   1.503   0.675 -0.0992  0.3593  0.4018
19729TIP3    H180678   6.492   1.462   0.620  1.0365  0.8274 -1.3638
19729TIP3    H280679   6.509   1.531   0.753 -2.5175  2.6850 -1.7527
19730TIP3   OH280680   3.921   2.706  15.496 -0.4384  0.2648 -0.1979
19730TIP3    H180681   3.886   2.787  15.533 -0.2536  0.0034  0.5702
19730TIP3    H280682   4.008   2.731  15.463 -0.3552  0.3632  0.0943
19731TIP3   OH280683   4.359   0.368  15.630  0.1354 -0.4485  0.3625
19731TIP3    H180684   4.451   0.392  15.631  0.1963 -0.3208 -2.0004
19731TIP3    H280685   4.335   0.359  15.722  2.1528  0.8296  1.0817
19732TIP3   OH280686   6.805   4.559  11.513  0.4778  0.2497  0.3409
19732TIP3    H180687   6.799   4.518  11.427 -1.7993  0.6930  0.2296
19732TIP3    H280688   6.851   4.495  11.567  1.7181 -0.1447 -1.1206
19733TIP3   OH280689   6.875   5.231   1.280  0.4950  0.3220 -0.1066
19733TIP3    H180690   6.828   5.248   1.362  0.6473  1.9584 -0.3225
19733TIP3    H280691   6.943   5.167   1.304  0.4438  0.6669  1.0184
19734TIP3   OH280692   2.875   0.941   1.736 -0.1779 -0.4896 -0.1882
19734TIP3    H180693   2.918   0.978   1.659  0.9002 -1.5447 -0.1291
19734TIP3    H280694   2.813   1.008   1.763  1.5160  1.1917 -0.2154
19735TIP3   OH280695   5.427   4.838  11.219  0.2763  0.3030 -0.1017
19735TIP3    H180696   5.409   4.932  11.213  2.3875  0.8643  1.0628
19735TIP3    H280697   5.510   4.827  11.173  1.4945 -0.4200  2.0945
19736TIP3   OH280698   0.724   4.212   1.122 -0.2411  0.3243 -0.0275
19736TIP3    H180699   0.777   4.223   1.201 -2.6827  1.8876  1.5113
19736TIP3    H280700   0.683   4.126   1.132  1.3770 -0.5899 -0.8930
19737TIP3   OH280701   6.923   3.173   2.770  0.2961  0.5979  0.0054
19737TIP3    H180702   6.849   3.112   2.771  0.8006 -0.0168  0.2158
19737TIP3    H280703   6.883   3.259   2.786 -0.5460  0.4857 -1.3659
19738TIP3   OH280704   0.758   2.368   2.949 -0.2484 -0.2690  0.5866
19738TIP3    H180705   0.708   2.286   2.938  0.2226 -1.1575  3.8807
19738TIP3    H280706   0.848   2.339   2.960 -0.0099  0.7252  1.3345
19739TIP3   OH280707   4.247   3.935   2.732  0.2113  0.7175  0.0453
19739TIP3    H180708   4.221   3.847   2.758  0.4907 -0.0467 -2.0248
19739TIP3    H280709   4.333   3.947   2.771 -0.0562  0.2813  0.7789
19740TIP3   OH280710   4.653   5.936  15.203  0.0627  0.9619 -0.2160
19740TIP3    H180711   4.736   5.964  15.241  0.2864  0.1717 -0.0945
19740TIP3    H280712   4.595   5.924  15.278  0.5666 -0.8015 -0.0521
19741TIP3   OH280713   6.816   4.759  12.733  0.4382  0.3699 -0.2396
19741TIP3    H180714   6.744   4.800  12.685  0.1786 -0.5748 -0.6632
19741TIP3    H280715   6.883   4.828  12.738 -0.9328  1.6911  1.2288
19742TIP3   OH280716   2.683   4.481   3.698 -0.2818  0.5803  0.2409
19742TIP3    H180717   2.696   4.387   3.686  0.0167  0.6424  0.0693
19742TIP3    H280718   2.745   4.505   3.767  0.6875  0.9087 -0.7025
19743TIP3   OH280719   5.043   1.030   6.129  0.4108  0.2578  0.3074
19743TIP3    H180720   5.123   1.084   6.137 -1.6012  3.4362  0.7782
19743TIP3    H280721   4.987   1.079   6.069 -0.8707 -2.4050 -0.8151
19744TIP3   OH280722   1.618   1.526   1.852  0.1563 -0.1816  0.0019
19744TIP3    H180723   1.576   1.611   1.842 -0.3960 -0.5846 -1.1687
19744TIP3    H280724   1.597   1.499   1.942 -2.8725 -0.7701 -0.7869
19745TIP3   OH280725   5.589   1.318  15.101  1.0440  0.3210 -0.2331
19745TIP3    H180726   5.563   1.228  15.079  0.3120  0.5331 -0.2754
19745TIP3    H280727   5.663   1.308  15.160  0.1198 -0.3448  0.8575
19746TIP3   OH280728   6.075   6.565   1.773 -0.2743  0.2585  1.0445
19746TIP3    H180729   6.009   6.625   1.809  0.3055  0.2430  2.1744
19746TIP3    H280730   6.132   6.621   1.721 -1.2621  0.2459 -0.0847
19747TIP3   OH280731   6.670   0.375   3.932 -0.3517 -0.2560 -0.0390
19747TIP3    H180732   6.596   0.434   3.949 -0.6056 -0.0246 -1.7468
19747TIP3    H280733   6.743   0.414   3.979 -0.9240  0.4481  0.2887
19748TIP3   OH280734   0.611   3.115   3.145 -0.0297  0.3534  0.3365
19748TIP3    H180735   0.519   3.109   3.172  0.7441  0.7934  3.3917
19748TIP3    H280736   0.659   3.125   3.227  2.7630  0.2495 -1.1981
19749TIP3   OH280737   6.390   1.054   5.927  0.8740  0.1817 -0.5980
19749TIP3    H180738   6.364   1.146   5.934 -2.0145 -0.4673 -1.4198
19749TIP3    H280739   6.315   1.012   5.886  1.6152 -2.7869  0.8617
19750TIP3   OH280740   1.313   1.607   3.991  0.3320 -0.3239 -0.0725
19750TIP3    H180741   1.326   1.580   4.082  0.8008 -0.0213 -0.0490
19750TIP3    H280742   1.235   1.558   3.963 -0.6415  0.6061  0.9134
19751TIP3   OH280743   5.710   1.332  13.483 -0.5363 -0.0622 -0.4102
19751TIP3    H180744   5.658   1.371  13.413  0.6414  0.8421 -0.8119
19751TIP3    H280745   5.784   1.392  13.495 -0.0319 -0.8665  0.7261
19752TIP3   OH280746   6.232   0.881  12.626 -0.4180  0.0153 -0.0058
19752TIP3    H180747   6.256   0.917  12.540  0.9166 -0.6888  0.0326
19752TIP3    H280748   6.315   0.878  12.673 -0.9699 -0.5704  0.9427
19753TIP3   OH280749   1.941   4.519   4.670 -0.8326 -0.0210  0.6831
19753TIP3    H180750   2.003   4.580   4.630 -0.0796 -0.6249  0.9080
19753TIP3    H280751   1.855   4.546   4.637 -0.4844  1.0147  0.6029
19754TIP3   OH280752   0.604   1.817   2.542 -0.2800  0.2439 -0.0745
19754TIP3    H180753   0.529   1.790   2.488 -0.2480  1.7583 -0.9412
19754TIP3    H280754   0.586   1.908   2.564  1.8580  1.0279 -1.3165
19755TIP3   OH280755   1.711   6.160   2.318  0.9875 -0.2601  0.2726
19755TIP3    H180756   1.753   6.096   2.376 -2.7648 -2.4218  0.9118
19755TIP3    H280757   1.711   6.119   2.232  1.2049  0.2800  0.0057
19756TIP3   OH280758   1.103   2.229   3.289 -0.1735 -0.8020  0.0608
19756TIP3    H180759   1.164   2.176   3.237  0.5511 -1.3989  1.4510
19756TIP3    H280760   1.020   2.183   3.283 -1.5351  1.6254 -4.4348
19757TIP3   OH280761   1.447   0.437   4.047 -0.0786 -0.3433  0.1574
19757TIP3    H180762   1.414   0.414   4.134  0.4778 -1.0624  0.1833
19757TIP3    H280763   1.532   0.478   4.063 -0.0105 -0.4030 -0.0495
19758TIP3   OH280764   5.091   2.266  14.196  0.0415  0.0492  0.7784
19758TIP3    H180765   5.070   2.205  14.267  1.3075 -1.3159  0.0442
19758TIP3    H280766   5.076   2.215  14.116  0.2965  0.9888  0.1150
19759TIP3   OH280767   5.064   3.877   0.165  0.6831  0.0097 -0.2750
19759TIP3    H180768   5.072   3.791   0.125 -0.0927  0.2269 -0.9134
19759TIP3    H280769   4.971   3.886   0.186  0.5096  1.2142 -1.4254
19760TIP3   OH280770   4.581   5.063   3.205  0.2759  0.5425  0.3368
19760TIP3    H180771   4.487   5.070   3.217  0.1714 -0.2015  0.0571
19760TIP3    H280772   4.592   5.054   3.110  0.7968  2.7484  0.1440
19761TIP3   OH280773   5.692   0.626   9.860  0.3875 -0.2167 -0.3417
19761TIP3    H180774   5.607   0.586   9.843  0.2065 -0.6023  1.2684
19761TIP3    H280775   5.728   0.644   9.774 -1.3996  0.1325 -1.0486
19762TIP3   OH280776   7.128   6.503  14.795 -0.0841  0.4560 -0.3735
19762TIP3    H180777   7.078   6.470  14.869  0.1041  0.4561 -0.2457
19762TIP3    H280778   7.115   6.438  14.726  1.1296 -0.4515  0.2062
19763TIP3   OH280779   4.102   4.037   2.395 -0.2725 -0.1057  0.1453
19763TIP3    H180780   4.147   3.976   2.337 -2.4004  0.0277 -1.8104
19763TIP3    H280781   4.057   3.981   2.459  0.3750 -0.3692  0.3803
19764TIP3   OH280782   3.711   4.389   1.089  0.4411  0.3153 -0.0943
19764TIP3    H180783   3.678   4.418   1.003  0.1498 -2.5869 -1.0596
19764TIP3    H280784   3.802   4.417   1.090  0.9764 -1.1366 -2.1790
19765TIP3   OH280785   0.577   2.685   4.432  0.2307  0.2313  0.4729
19765TIP3    H180786   0.495   2.735   4.440  0.0128 -0.1223  0.4709
19765TIP3    H280787   0.554   2.612   4.374  0.9876  1.0666 -0.9262
19766TIP3   OH280788   1.391   5.042   2.322  0.7459  0.9156 -0.0088
19766TIP3    H180789   1.401   5.125   2.276 -1.1499  0.4996 -1.2442
19766TIP3    H280790   1.453   4.983   2.279  0.8856  1.2297 -0.2423
19767TIP3   OH280791   6.763   6.013  14.013 -0.2146  0.1836 -0.3041
19767TIP3    H180792   6.718   6.093  13.985  1.3724  1.6030  0.9907
19767TIP3    H280793   6.846   6.015  13.966 -0.3747 -1.0078 -0.6606
19768TIP3   OH280794   3.526   3.117   4.101 -0.4201  1.0095  1.3969
19768TIP3    H180795   3.446   3.103   4.151 -1.5377 -1.0047 -0.7568
19768TIP3    H280796   3.593   3.135   4.168 -1.7806 -1.5806  3.6665
19769TIP3   OH280797   4.751   5.828   0.059  0.5411  0.1122  0.0422
19769TIP3    H180798   4.664   5.795   0.083 -0.4968  1.1725 -2.0539
19769TIP3    H280799   4.741   5.923   0.055  1.0949  0.1256 -2.6181
19770TIP3   OH280800   5.207   1.632   2.218 -0.1623 -0.3379  0.0378
19770TIP3    H180801   5.118   1.609   2.247 -0.0876 -1.4968 -0.5808
19770TIP3    H280802   5.231   1.561   2.158  0.4677  0.9385 -1.2507
19771TIP3   OH280803   5.711   6.804   5.991  0.0176 -0.4544 -0.3111
19771TIP3    H180804   5.709   6.882   6.047 -1.2374 -0.7363  0.0817
19771TIP3    H280805   5.785   6.817   5.933 -1.5034  2.1606 -1.8444
19772TIP3   OH280806   1.513   4.960   2.701 -0.1543  0.3909  0.8934
19772TIP3    H180807   1.559   4.884   2.666  1.4520  1.4613  0.5717
19772TIP3    H280808   1.473   4.929   2.782 -0.0001 -0.9335  0.4759
19773TIP3   OH280809   6.767   0.766   3.936 -0.0667 -0.0132  0.5638
19773TIP3    H180810   6.704   0.776   4.008  0.3322  3.4397  0.5617
19773TIP3    H280811   6.852   0.780   3.977  0.3656 -0.3744 -0.2001
19774TIP3   OH280812   5.009   1.230  12.922  0.2026  0.1615  0.1237
19774TIP3    H180813   5.103   1.224  12.905 -0.1369 -0.1253 -1.9262
19774TIP3    H280814   4.971   1.255  12.837 -1.6807 -0.8737  0.6121
19775TIP3   OH280815   3.404   5.211   4.315 -0.3201  0.0346 -0.1752
19775TIP3    H180816   3.423   5.251   4.400 -0.5597 -0.0041 -0.1033
19775TIP3    H280817   3.457   5.131   4.313  4.0196  2.5848 -2.2496
19776TIP3   OH280818   0.140   4.743   3.977 -0.1544  0.7349  0.2161
19776TIP3    H180819   0.056   4.773   4.013  1.0789  1.7309  2.4303
19776TIP3    H280820   0.190   4.714   4.053  1.0055 -1.3018 -1.2170
19777TIP3   OH280821   3.163   3.972   3.557 -0.3086 -0.6489 -0.2445
19777TIP3    H180822   3.249   3.936   3.582 -1.1577 -1.7593  1.2411
19777TIP3    H280823   3.118   3.898   3.516 -1.0015 -0.4296  0.1184
19778TIP3   OH280824   4.946   1.416   4.259  0.0295  0.1537  0.4254
19778TIP3    H180825   4.970   1.400   4.350  0.5394 -0.9226  0.1265
19778TIP3    H280826   4.922   1.329   4.226  2.5314  0.0088 -1.2275
19779TIP3   OH280827   1.870   1.250   5.728  1.0502  0.0310  0.4484
19779TIP3    H180828   1.938   1.218   5.787  0.2790  0.0073  1.3538
19779TIP3    H280829   1.808   1.178   5.722  1.2437 -0.0652 -0.6257
19780TIP3   OH280830   1.507   5.268   2.415  0.6476  0.5256 -0.1108
19780TIP3    H180831   1.468   5.262   2.502  1.0484  0.2908  0.0569
19780TIP3    H280832   1.514   5.177   2.385  2.7353  0.3812  0.6230
19781TIP3   OH280833   2.317   4.109  12.344  0.5785 -0.6369  0.3032
19781TIP3    H180834   2.231   4.068  12.343 -0.5696  1.5769  1.5328
19781TIP3    H280835   2.357   4.083  12.261 -1.4032 -1.4325 -0.4454
19782TIP3   OH280836   7.010   0.616  14.730  0.1487 -0.3383  0.2622
19782TIP3    H180837   6.928   0.662  14.713 -0.9166 -2.6661 -1.5047
19782TIP3    H280838   7.012   0.606  14.825 -3.1371 -2.5678  0.2830
19783TIP3   OH280839   7.048   4.979   2.555 -0.2800 -0.2913  0.6177
19783TIP3    H180840   7.020   4.990   2.646  1.1718  2.7195  0.8287
19783TIP3    H280841   7.135   4.939   2.560 -0.2864 -0.3157  0.5396
19784TIP3   OH280842   1.943   1.305  14.387  0.0232 -0.5654  0.0587
19784TIP3    H180843   1.980   1.387  14.420 -0.9533 -0.1113  0.0433
19784TIP3    H280844   1.855   1.301  14.423  0.3955 -2.1411  0.9345
19785TIP3   OH280845   3.886   2.507   3.864 -0.6579 -0.4050  0.1699
19785TIP3    H180846   3.974   2.544   3.876  0.2866 -1.9219 -1.5237
19785TIP3    H280847   3.861   2.477   3.951  0.7242 -0.3597  0.6134
19786TIP3   OH280848   0.311   4.412   4.710 -0.0322  0.3975 -0.1333
19786TIP3    H180849   0.367   4.460   4.772  0.1621  1.1622 -0.8832
19786TIP3    H280850   0.237   4.470   4.696 -0.2530  0.0635 -0.3394
19787TIP3   OH280851   2.798   1.783   0.217 -0.0035 -0.3052  0.1459
19787TIP3    H180852   2.831   1.704   0.260  0.0736 -1.1211 -1.3586
19787TIP3    H280853   2.792   1.759   0.125 -1.7507  0.8656 -0.0768
19788TIP3   OH280854   0.541   6.752   4.262 -0.6790 -0.0738  0.2271
19788TIP3    H180855   0.456   6.722   4.295 -0.8633  0.7887  0.5717
19788TIP3    H280856   0.574   6.678   4.212 -0.4544 -1.4295  2.2306
19789TIP3   OH280857   0.143   4.969  13.694  0.1947 -0.3673  0.1905
19789TIP3    H180858   0.089   4.957  13.772  2.7503 -0.9249  1.9990
19789TIP3    H280859   0.118   4.896  13.636 -0.8539 -0.6855  1.0124
19790TIP3   OH280860   1.527   4.410   1.858 -0.0218  0.2914 -0.8543
19790TIP3    H180861   1.462   4.354   1.815  0.0486 -1.2858  0.9452
19790TIP3    H280862   1.553   4.360   1.935  0.7889  2.4306  0.3204
19791TIP3   OH280863   3.516   6.089   2.581  0.0798  0.2729 -0.1642
19791TIP3    H180864   3.595   6.110   2.631  1.2882  0.7288 -2.1529
19791TIP3    H280865   3.497   5.998   2.604  0.8888  0.3004  0.7098
19792TIP3   OH280866   6.936   5.516   4.193 -0.1448 -0.1090  0.3393
19792TIP3    H180867   6.932   5.557   4.106  1.3178  0.2276  0.3927
19792TIP3    H280868   6.965   5.587   4.251  0.1244 -0.6366  0.8579
19793TIP3   OH280869   5.004   0.305   2.938 -0.7455  0.3039  0.1083
19793TIP3    H180870   4.963   0.346   2.861  0.8148  1.3059 -0.2345
19793TIP3    H280871   5.061   0.238   2.902 -0.8193  0.0495  0.4651
19794TIP3   OH280872   0.564   4.286   2.407 -0.4148  0.2561 -0.1161
19794TIP3    H180873   0.534   4.329   2.328 -2.0231  0.1704  0.4230
19794TIP3    H280874   0.547   4.348   2.477  0.2470  0.0105  0.2768
19795TIP3   OH280875   3.018   5.628   1.424  0.2301  0.5791  0.3014
19795TIP3    H180876   3.087   5.648   1.361 -0.7922 -0.0110 -1.0487
19795TIP3    H280877   2.968   5.709   1.431 -1.5053 -0.1765 -2.0913
19796TIP3   OH280878   2.305   6.403  15.557 -0.3310 -0.5136  0.0753
19796TIP3    H180879   2.392   6.438  15.540 -0.4887 -0.0903  0.1308
19796TIP3    H280880   2.308   6.374  15.649  0.1637 -1.7474 -0.3113
19797TIP3   OH280881   1.307   2.272   5.140 -0.1554 -0.5235  0.0559
19797TIP3    H180882   1.321   2.367   5.142 -1.0541 -0.3476 -0.9002
19797TIP3    H280883   1.388   2.237   5.104  0.4676 -0.1942  1.1089
19798TIP3   OH280884   6.564   0.903  13.468  0.4757 -0.4337  0.3082
19798TIP3    H180885   6.657   0.921  13.475  0.2775  1.2727 -0.8800
19798TIP3    H280886   6.554   0.855  13.386  0.1782  0.6015 -0.2770
19799TIP3   OH280887   5.588   1.862   3.996 -0.8534 -0.0065  0.3815
19799TIP3    H180888   5.558   1.824   3.913 -1.3741 -1.4981  1.2080
19799TIP3    H280889   5.583   1.789   4.059 -0.1488  0.9947  1.6519
19800TIP3   OH280890   4.893   2.633   4.094  0.1534 -0.0788  0.1080
19800TIP3    H180891   4.857   2.721   4.109  0.7084  0.1041  0.3832
19800TIP3    H280892   4.926   2.635   4.004  1.3942  0.4377  0.5540
19801TIP3   OH280893   0.392   1.830   1.852 -0.2176  0.3868  0.2744
19801TIP3    H180894   0.449   1.767   1.808 -0.1477  2.0791 -2.2182
19801TIP3    H280895   0.448   1.870   1.919  1.0549  0.8073 -0.9876
19802TIP3   OH280896   3.314   5.066  13.568  0.3872  0.0410 -0.2181
19802TIP3    H180897   3.318   5.098  13.659 -1.1791 -2.1946  0.7185
19802TIP3    H280898   3.241   5.115  13.530  1.0801  1.0262 -0.3373
19803TIP3   OH280899   0.495   4.889  14.789 -0.1026 -0.1694 -0.0498
19803TIP3    H180900   0.530   4.970  14.753 -0.3943  0.4074  0.9333
19803TIP3    H280901   0.403   4.908  14.809 -0.2114 -0.7762  0.0613
19804TIP3   OH280902   6.430   2.510  13.881 -0.3474  0.4168 -0.0695
19804TIP3    H180903   6.397   2.584  13.830 -1.3270  0.9326  1.2391
19804TIP3    H280904   6.472   2.551  13.957 -0.3044 -0.3627  0.3301
19805TIP3   OH280905   2.311   5.293   5.652 -0.2310  0.2195 -0.2972
19805TIP3    H180906   2.224   5.287   5.692 -0.9397 -0.2164 -1.8465
19805TIP3    H280907   2.303   5.362   5.587  0.4744 -0.1056 -0.7341
19806TIP3   OH280908   0.291   2.864   2.103  0.0879  0.5534  0.8403
19806TIP3    H180909   0.379   2.899   2.093 -0.3211  1.2930 -0.4732
19806TIP3    H280910   0.277   2.811   2.025 -0.3885 -0.1092  1.3677
19807TIP3   OH280911   4.032   3.721  14.387 -0.8278  0.3005  0.1337
19807TIP3    H180912   4.085   3.653  14.346 -2.5289 -0.4690 -0.8840
19807TIP3    H280913   4.004   3.683  14.470 -1.1927  0.0467 -0.1077
19808TIP3   OH280914   5.290   0.732   4.309 -0.2215  0.2248  0.2586
19808TIP3    H180915   5.368   0.767   4.353  0.4196 -3.0946  2.0536
19808TIP3    H280916   5.303   0.753   4.217  2.2216  0.7839  0.6591
19809TIP3   OH280917   1.220   0.118  15.509 -0.2798  0.2297  0.1014
19809TIP3    H180918   1.222   0.209  15.480 -1.3208  0.3043  0.2377
19809TIP3    H280919   1.237   0.123  15.603 -0.1349  0.2663  0.0729
19810TIP3   OH280920   0.420   3.561   5.276 -0.0434 -0.3901 -0.2315
19810TIP3    H180921   0.442   3.504   5.349  1.8084 -0.2219 -0.6042
19810TIP3    H280922   0.332   3.593   5.296  1.1297  1.2392  2.9718
19811TIP3   OH280923   3.389   4.081  10.433 -0.2120 -0.4374 -0.3711
19811TIP3    H180924   3.399   4.082  10.528 -0.5883 -0.4546 -0.3317
19811TIP3    H280925   3.404   3.990  10.408 -2.5146 -0.9498 -0.0617
19812TIP3   OH280926   2.872   4.186   1.544  0.7453  0.5657 -0.4206
19812TIP3    H180927   2.900   4.165   1.633  1.1832 -0.6658 -0.8251
19812TIP3    H280928   2.776   4.179   1.546  0.8125 -0.5304 -0.2798
19813TIP3   OH280929   0.977   2.795  14.527  0.4648  0.1167 -0.1585
19813TIP3    H180930   0.935   2.738  14.463 -1.5363  0.8308  0.4104
19813TIP3    H280931   1.048   2.743  14.564 -0.8019 -1.7451 -0.2075
19814TIP3   OH280932   4.813   5.617   2.137  0.5303  0.1458  1.4580
19814TIP3    H180933   4.725   5.580   2.132  0.1850  1.0652 -0.3227
19814TIP3    H280934   4.804   5.705   2.100  2.4190 -0.2313 -0.1025
19815TIP3   OH280935   5.564   6.834  14.929  0.3367 -0.4162  0.4961
19815TIP3    H180936   5.470   6.843  14.916  0.6643 -0.6923 -3.2535
19815TIP3    H280937   5.573   6.771  15.000 -2.3477 -1.2540  0.1998
19816TIP3   OH280938   5.040   5.012   4.774  0.1111  0.1698 -0.7373
19816TIP3    H180939   5.044   5.013   4.869  0.8780 -0.6179 -0.7457
19816TIP3    H280940   5.024   5.103   4.749  0.6449  0.5090  0.1209
19817TIP3   OH280941   4.307   5.055   5.087  0.4072 -0.2656  0.2348
19817TIP3    H180942   4.359   4.978   5.110  0.2792 -0.8684 -1.3892
19817TIP3    H280943   4.248   5.066   5.161  0.5853 -1.5957  0.6114
19818TIP3   OH280944   3.204   6.624   2.159  0.3701 -0.6164 -0.2197
19818TIP3    H180945   3.167   6.648   2.244 -0.7614 -1.5468 -0.4227
19818TIP3    H280946   3.129   6.621   2.100  1.0456 -0.6914 -1.0991
19819TIP3   OH280947   1.236   4.729   2.381  0.5299  0.8484 -0.4519
19819TIP3    H180948   1.211   4.698   2.294 -0.1358 -0.0054  0.0291
19819TIP3    H280949   1.331   4.718   2.384  0.2900 -1.8233 -0.0849
19820TIP3   OH280950   0.075   4.066   3.013  0.3035 -0.1482 -0.4464
19820TIP3    H180951  -0.010   4.022   3.004  0.3595 -0.6259  1.0903
19820TIP3    H280952   0.083   4.119   2.933 -1.0311 -0.7765 -1.0272
19821TIP3   OH280953   5.572   3.269   1.839 -0.2274 -0.2927  0.8009
19821TIP3    H180954   5.641   3.290   1.902  1.0612 -0.7950 -0.3725
19821TIP3    H280955   5.618   3.262   1.755 -1.8987  0.4948 -0.2377
19822TIP3   OH280956   1.892   2.553  13.397  0.0891  0.0479  0.4044
19822TIP3    H180957   1.922   2.470  13.362  1.7978 -0.0921  2.0392
19822TIP3    H280958   1.800   2.538  13.419 -0.2192 -0.7070 -1.2549
19823TIP3   OH280959   2.086   4.185   2.464 -0.0521  0.6169  0.2290
19823TIP3    H180960   2.110   4.164   2.373  0.6660  1.6434  0.1651
19823TIP3    H280961   1.991   4.185   2.464 -0.0803 -0.9109 -0.1531
19824TIP3   OH280962   4.340   5.373   0.470 -0.6206  0.6788 -0.2575
19824TIP3    H180963   4.335   5.460   0.510 -2.3590  0.9599 -1.0157
19824TIP3    H280964   4.429   5.344   0.488 -0.4562  2.0065  1.2661
19825TIP3   OH280965   5.818   0.240  13.156  0.8185 -0.0791  0.1446
19825TIP3    H180966   5.749   0.257  13.220 -1.5182 -2.6009 -1.5071
19825TIP3    H280967   5.826   0.322  13.107  0.0227  0.6958  1.2378
19826TIP3   OH280968   2.709   2.446   5.116  0.2400 -0.0200 -0.0805
19826TIP3    H180969   2.663   2.377   5.066 -1.3068  0.5268  0.5137
19826TIP3    H280970   2.766   2.488   5.052 -1.4039  0.4089 -1.3278
19827TIP3   OH280971   6.916   2.219  14.771  0.0171  0.4976  0.0885
19827TIP3    H180972   6.887   2.291  14.827 -0.5878  0.7411 -0.5235
19827TIP3    H280973   6.858   2.146  14.794 -1.5346  1.1488 -1.5383
19828TIP3   OH280974   0.407   4.100   0.176 -1.3405 -0.2512  0.4018
19828TIP3    H180975   0.437   4.020   0.134 -1.3571 -0.9169  1.6160
19828TIP3    H280976   0.391   4.075   0.267  1.3643  1.7435  1.5588
19829TIP3   OH280977   1.519   7.085  10.306 -0.0650  0.6462 -0.2957
19829TIP3    H180978   1.595   7.132  10.340  0.8177 -0.3672 -0.8176
19829TIP3    H280979   1.556   7.007  10.265 -1.2774  0.8017 -1.7282
19830TIP3   OH280980   6.798   4.641   6.206  0.3152 -0.0962  0.3589
19830TIP3    H180981   6.872   4.623   6.265  2.1087  0.3523 -1.6394
19830TIP3    H280982   6.769   4.729   6.231  0.2073 -0.4014  1.3728
19831TIP3   OH280983   2.190   1.585   2.749 -0.6352 -0.0423 -0.0648
19831TIP3    H180984   2.202   1.672   2.785  1.3416 -0.9284  1.6177
19831TIP3    H280985   2.182   1.528   2.825  0.6796 -1.6309 -1.0361
19832TIP3   OH280986   1.277   4.386   0.111  0.5635  0.4746  0.7866
19832TIP3    H180987   1.325   4.373   0.029  0.1694  1.7628  0.3247
19832TIP3    H280988   1.253   4.298   0.140  0.3473  0.0280 -0.7034
19833TIP3   OH280989   2.323   1.339   0.299 -0.2935 -0.7149 -0.1364
19833TIP3    H180990   2.229   1.337   0.318 -0.8333 -0.9448 -2.5411
19833TIP3    H280991   2.347   1.246   0.296  0.4431 -0.6644  2.0625
19834TIP3   OH280992   4.770   2.657   4.677  0.6995 -0.8704 -0.2306
19834TIP3    H180993   4.830   2.720   4.718  0.4854 -0.4788 -0.5081
19834TIP3    H280994   4.730   2.707   4.605 -2.1817 -0.1497  1.7325
19835TIP3   OH280995   4.302   1.538   1.364 -0.3811 -0.6426 -0.3051
19835TIP3    H180996   4.261   1.480   1.428 -1.9386 -0.3377 -0.9899
19835TIP3    H280997   4.394   1.511   1.363 -1.0031 -2.9717 -0.4488
19836TIP3   OH280998   1.681   6.106   5.751 -0.2591  0.5527 -0.2486
19836TIP3    H180999   1.699   6.193   5.784 -1.6348 -0.7418  4.7837
19836TIP3    H281000   1.586   6.102   5.743 -0.2519 -0.5713 -0.0202
19837TIP3   OH281001   4.675   1.253  14.417  0.4541  0.2963 -0.1808
19837TIP3    H181002   4.586   1.281  14.397 -0.8821 -2.9292  0.6220
19837TIP3    H281003   4.696   1.298  14.499 -0.0439  1.7438 -0.8151
19838TIP3   OH281004   6.711   3.415  14.028 -0.2222 -0.9566  0.2157
19838TIP3    H181005   6.748   3.452  13.948 -0.4732  2.8676  1.6320
19838TIP3    H281006   6.760   3.334  14.043  4.6786  1.5422 -0.3306
19839TIP3   OH281007   2.119   2.390   4.954 -0.8707  0.6781  0.1408
19839TIP3    H181008   2.091   2.453   5.020 -0.3718 -0.7073  1.7624
19839TIP3    H281009   2.063   2.314   4.968  0.6964 -0.4610  0.4781
19840TIP3   OH281010   6.916   2.935   2.291  0.3630 -0.5773 -0.4386
19840TIP3    H181011   6.858   2.913   2.364  0.8975 -1.1915 -0.1792
19840TIP3    H281012   6.901   3.028   2.274 -3.0876 -1.3487 -2.5184
19841TIP3   OH281013   0.258   0.663   5.746 -0.5744 -0.4287 -0.8233
19841TIP3    H181014   0.208   0.742   5.764  0.9699  0.7865 -1.6888
19841TIP3    H281015   0.305   0.645   5.828  0.8061  0.8797 -1.2955
19842TIP3   OH281016   2.874   2.708   4.064  0.3776  0.0286  0.2179
19842TIP3    H181017   2.853   2.643   4.131 -0.5499  1.1428  1.0613
19842TIP3    H281018   2.960   2.684   4.032 -0.0163 -1.7068  0.3835
19843TIP3   OH281019   0.583   6.740   5.020  0.0474  0.4228 -0.0156
19843TIP3    H181020   0.569   6.808   4.954 -1.0316  0.0705 -0.1703
19843TIP3    H281021   0.528   6.667   4.991 -0.9041  0.4706  1.5833
19844TIP3   OH281022   1.498   5.669  14.156  0.1221 -0.3477 -0.7748
19844TIP3    H181023   1.449   5.717  14.223  0.5518  0.4203 -0.9992
19844TIP3    H281024   1.578   5.720  14.143  1.6277 -2.2273  0.5055
19845TIP3   OH281025   0.760   0.514   0.461  0.7269 -1.3046 -0.4423
19845TIP3    H181026   0.675   0.554   0.476  1.0605  0.9118 -3.4608
19845TIP3    H281027   0.742   0.420   0.451 -1.2825 -0.9447 -0.5302
19846TIP3   OH281028   3.772   2.076   2.202 -0.3891  0.5403 -0.4197
19846TIP3    H181029   3.842   2.031   2.248 -0.3880  0.1170 -0.8167
19846TIP3    H281030   3.797   2.072   2.109 -0.9802  0.2859 -0.5789
19847TIP3   OH281031   1.711   5.047   1.815 -0.3276  0.0935 -0.0704
19847TIP3    H181032   1.653   5.086   1.749  0.5461  1.5088 -0.0552
19847TIP3    H281033   1.721   5.117   1.881  1.3237 -0.1412 -0.0464
19848TIP3   OH281034   0.238   6.710   3.601  0.7936  0.0708 -0.1343
19848TIP3    H181035   0.301   6.780   3.614  0.4894  0.0058  1.9165
19848TIP3    H281036   0.163   6.753   3.560  1.2259  0.6149 -0.3738
19849TIP3   OH281037   2.368   2.131   2.258  0.4588 -0.0534  0.0255
19849TIP3    H181038   2.275   2.108   2.260 -0.2312  2.2943 -1.3165
19849TIP3    H281039   2.393   2.126   2.166  1.3185  0.5639  0.2100
19850TIP3   OH281040   3.914   2.393   3.294  0.0079  0.2388  0.0321
19850TIP3    H181041   3.921   2.488   3.287  1.0769  0.1731  0.0379
19850TIP3    H281042   4.000   2.365   3.325 -0.3140 -0.7284  0.0875
19851TIP3   OH281043   6.044   2.089   1.646 -0.4338 -0.1893 -0.4719
19851TIP3    H181044   6.128   2.115   1.609 -0.2070 -0.9323 -0.4896
19851TIP3    H281045   5.998   2.172   1.662  0.9053  0.3161  0.9630
19852TIP3   OH281046   7.030   0.007   3.937  0.2889 -0.3959  0.5316
19852TIP3    H181047   7.046   0.099   3.957 -0.6633 -0.5766  2.3845
19852TIP3    H281048   6.936  -0.005   3.953 -0.1638 -1.1137 -2.2660
19853TIP3   OH281049   2.574   2.638  15.676  0.4707  0.2460 -0.2245
19853TIP3    H181050   2.542   2.724  15.650  1.2463  0.5633 -0.1623
19853TIP3    H281051   2.571   2.586  15.596  0.8020  0.5811 -0.4576
19854TIP3   OH281052   6.719   2.971   1.362 -0.3483  0.1045 -0.0419
19854TIP3    H181053   6.719   2.970   1.458  2.6527  0.9824  0.0543
19854TIP3    H281054   6.641   2.921   1.338 -1.1433 -0.2168  2.8367
19855TIP3   OH281055   3.283   2.783   1.130 -0.1714  0.2630 -0.0673
19855TIP3    H181056   3.348   2.792   1.200  0.1524  1.7905 -0.5115
19855TIP3    H281057   3.323   2.825   1.054 -1.1907  0.1398 -0.6995
19856TIP3   OH281058   6.676   0.789  11.510  0.0191 -0.2917 -0.2348
19856TIP3    H181059   6.761   0.831  11.498 -0.4849  0.9392  0.3217
19856TIP3    H281060   6.658   0.796  11.603 -1.1432  0.4040 -0.4805
19857TIP3   OH281061   0.772   1.483   1.381 -0.3156  0.7097  0.0803
19857TIP3    H181062   0.792   1.463   1.473  0.2758 -0.6740 -0.3338
19857TIP3    H281063   0.857   1.478   1.337 -0.7005  0.7220 -0.6682
19858TIP3   OH281064   5.184   3.677   3.052 -0.3633 -0.1527  0.4001
19858TIP3    H181065   5.207   3.761   3.013  0.5245  0.8032  2.8518
19858TIP3    H281066   5.235   3.613   3.002  0.8888  1.0384  0.0952
19859TIP3   OH281067   0.366   1.621  13.196 -0.2298 -0.2701 -0.3093
19859TIP3    H181068   0.438   1.683  13.204 -0.1344 -0.5088  0.8500
19859TIP3    H281069   0.396   1.543  13.242 -1.1091 -0.4723 -0.0443
19860TIP3   OH281070   0.072   5.221   1.101  0.6840 -0.9182  0.2216
19860TIP3    H181071   0.122   5.158   1.152  2.9187  0.5135 -0.0208
19860TIP3    H281072   0.080   5.190   1.011  0.9865 -0.7996  0.2060
19861TIP3   OH281073   3.960   1.094   5.106 -0.0694 -0.1978  0.1129
19861TIP3    H181074   3.944   1.051   5.022 -1.2152 -1.1738  0.7911
19861TIP3    H281075   3.927   1.183   5.094  0.4472 -0.1014 -0.6856
19862TIP3   OH281076   0.328   3.687   3.620 -0.1671  0.2296 -0.3549
19862TIP3    H181077   0.264   3.747   3.659  0.2847  1.5991 -1.6062
19862TIP3    H281078   0.403   3.691   3.680 -0.6276 -0.0959  0.2499
19863TIP3   OH281079   3.807   4.139   2.730 -1.0590  0.0448 -0.4065
19863TIP3    H181080   3.901   4.151   2.717 -1.4093  1.8022 -1.5584
19863TIP3    H281081   3.792   4.046   2.715  0.4658 -0.2230 -0.3689
19864TIP3   OH281082   5.313   7.079   5.091  0.0988  0.0151 -0.3644
19864TIP3    H181083   5.249   7.075   5.162  0.4104 -1.3341 -0.1397
19864TIP3    H281084   5.344   7.170   5.092 -0.0633  0.0804  1.0892
19865TIP3   OH281085   3.607   6.261   0.076  0.0554  0.1283 -0.0958
19865TIP3    H181086   3.657   6.294   0.001  1.1373  0.0774  0.5787
19865TIP3    H281087   3.628   6.168   0.079 -0.0220  0.1224  0.2487
19866TIP3   OH281088   2.039   3.888  14.795 -0.0486  0.0127 -0.0009
19866TIP3    H181089   2.025   3.923  14.708 -0.0050  1.0677  0.3989
19866TIP3    H281090   1.957   3.844  14.817 -0.0814 -0.1970 -0.5383
19867TIP3   OH281091   0.148   0.205  12.654 -0.0167  0.2416  0.7177
19867TIP3    H181092   0.210   0.265  12.612  0.4428 -0.3401  0.5561
19867TIP3    H281093   0.185   0.118  12.639 -0.3650 -0.0422  1.4680
19868TIP3   OH281094   1.663   5.197   0.980  0.3078  0.2423  0.3259
19868TIP3    H181095   1.671   5.105   1.006 -1.0535 -0.0095 -0.0444
19868TIP3    H281096   1.670   5.196   0.885 -0.9453  0.3393  0.2121
19869TIP3   OH281097   5.647   2.783   3.252  0.1518  0.7037  0.0260
19869TIP3    H181098   5.670   2.858   3.306  0.2036  0.7437 -0.0508
19869TIP3    H281099   5.637   2.711   3.314  0.0670  0.7812  0.1035
19870TIP3   OH281100   6.578   3.180   3.077  0.0189  0.1211 -0.4812
19870TIP3    H181101   6.558   3.233   3.000  0.7731 -1.6180 -1.9639
19870TIP3    H281102   6.541   3.094   3.056  1.6810 -0.8374  0.3754
19871TIP3   OH281103   3.780   5.518   3.044  0.1262 -0.2722  0.6881
19871TIP3    H181104   3.707   5.479   2.995  2.8091 -1.3983 -2.8751
19871TIP3    H281105   3.744   5.598   3.081 -3.2840 -1.5829  0.5427
19872TIP3   OH281106   1.008   1.088   3.586  0.4974 -0.2957  0.5612
19872TIP3    H181107   1.010   1.097   3.491  0.3339  1.2817  0.6867
19872TIP3    H281108   1.090   1.128   3.615  0.1208  0.0647  1.1373
19873TIP3   OH281109   6.158   5.776  10.744 -0.2432 -0.0841 -0.3593
19873TIP3    H181110   6.100   5.723  10.798  0.1520  1.1517  1.3715
19873TIP3    H281111   6.244   5.768  10.787 -0.1186  1.6781 -0.2045
19874TIP3   OH281112   0.542   4.500   3.990 -0.3367  0.5353 -0.6486
19874TIP3    H181113   0.638   4.494   3.993 -0.2716  0.8652  3.8924
19874TIP3    H281114   0.523   4.519   3.898  3.7552 -1.4659 -2.1971
19875TIP3   OH281115   4.910   4.181  14.911 -0.0031 -0.0724  0.3656
19875TIP3    H181116   4.987   4.151  14.864 -0.7247 -0.5281 -0.5605
19875TIP3    H281117   4.838   4.130  14.875 -0.6331 -0.2227  1.7749
19876TIP3   OH281118   6.506   5.376   0.582  0.4325 -0.1093  0.1890
19876TIP3    H181119   6.426   5.424   0.602  0.4330 -0.7010  1.8395
19876TIP3    H281120   6.481   5.314   0.514 -0.1432  0.6455 -0.3089
19877TIP3   OH281121   2.272   1.183   5.329 -0.1350 -0.5050  0.2185
19877TIP3    H181122   2.215   1.117   5.290  1.5855 -1.6189 -0.5141
19877TIP3    H281123   2.289   1.245   5.258 -0.9249  0.1900  0.6193
19878TIP3   OH281124   4.264   2.628   4.116  0.1022 -0.5212  0.1818
19878TIP3    H181125   4.360   2.629   4.117  0.1359 -1.2829  1.7206
19878TIP3    H281126   4.240   2.670   4.034  1.7652 -1.1122 -0.6537
19879TIP3   OH281127   7.016   3.491   2.946 -0.0459 -0.6782 -0.1650
19879TIP3    H181128   6.922   3.503   2.959  0.1277  0.3640  0.2356
19879TIP3    H281129   7.038   3.413   2.996 -0.1984  0.7018  2.1942
19880TIP3   OH281130   5.324   1.094   3.646  0.0794  0.4747 -0.1133
19880TIP3    H181131   5.291   1.113   3.558 -0.1633 -2.2159 -0.6885
19880TIP3    H281132   5.418   1.079   3.634  0.1335  0.5747  0.1709
19881TIP3   OH281133   4.323   3.698   0.555  0.0520  0.0866 -0.6356
19881TIP3    H181134   4.301   3.791   0.562 -0.4235 -0.0185 -0.7408
19881TIP3    H281135   4.257   3.653   0.607  0.2160 -0.2047 -0.6775
19882TIP3   OH281136   0.346   5.045   5.018  0.0060 -0.3443  0.5803
19882TIP3    H181137   0.346   5.094   4.935  2.1981  0.8766  1.2084
19882TIP3    H281138   0.386   5.104   5.081 -1.3354 -1.3567  2.4982
19883TIP3   OH281139   4.816   6.213  10.534  0.2481  0.0696 -0.5140
19883TIP3    H181140   4.847   6.277  10.470  2.4631  0.6210  0.9692
19883TIP3    H281141   4.896   6.176  10.571 -0.9208 -0.3714  1.7533
19884TIP3   OH281142   6.096   6.306   3.969  0.6262  0.1626  0.1096
19884TIP3    H181143   6.048   6.223   3.971 -0.8497  0.9993  1.5733
19884TIP3    H281144   6.063   6.351   3.891  2.1907 -0.9765 -1.3025
19885TIP3   OH281145   1.122   1.349   2.181 -0.4905 -0.5294 -0.0103
19885TIP3    H181146   1.041   1.318   2.221 -0.5462 -0.7087 -0.2598
19885TIP3    H281147   1.172   1.269   2.163 -1.1089 -0.5878 -1.6737
19886TIP3   OH281148   2.710   4.504   4.826  0.1533  0.4030 -0.2805
19886TIP3    H181149   2.746   4.465   4.905  0.2598 -0.4783 -0.7521
19886TIP3    H281150   2.644   4.566   4.857  2.0781  2.1109  0.6176
19887TIP3   OH281151   1.790   6.566  11.062 -0.4611  0.8312 -0.6705
19887TIP3    H181152   1.868   6.621  11.065  0.5886 -0.5356 -1.7415
19887TIP3    H281153   1.736   6.598  11.135  1.4597  1.2591  0.6493
19888TIP3   OH281154   6.884   3.944   0.277 -0.7465  0.1118 -0.0429
19888TIP3    H181155   6.802   3.898   0.292 -0.0688 -2.3336 -2.8770
19888TIP3    H281156   6.895   3.944   0.182  2.1710  1.0181  0.1946
19889TIP3   OH281157   0.322   6.742   1.368  0.4859 -0.9637 -0.0259
19889TIP3    H181158   0.416   6.762   1.367  0.0514  1.4433 -1.6743
19889TIP3    H281159   0.297   6.741   1.276 -1.3416 -0.2207  0.4213
19890TIP3   OH281160   3.011   3.922   5.063 -0.1489  0.2831  0.2071
19890TIP3    H181161   2.992   3.935   4.970 -1.2950 -1.4172  0.1720
19890TIP3    H281162   2.959   3.988   5.108  1.5180  2.1002 -0.3713
19891TIP3   OH281163   5.684   6.337   3.837  0.4124  0.0152  0.0922
19891TIP3    H181164   5.665   6.330   3.931  2.0389  0.8870  0.5154
19891TIP3    H281165   5.704   6.247   3.810  2.8815  0.1057  1.3072
19892TIP3   OH281166   6.924   6.672  14.721  0.5554  0.1758 -0.3929
19892TIP3    H181167   6.874   6.697  14.800 -0.0411 -1.0972 -0.3414
19892TIP3    H281168   6.991   6.612  14.753 -0.2714 -1.0791 -0.9590
19893TIP3   OH281169   6.427   1.518   2.914 -0.6664  0.1276 -0.9734
19893TIP3    H181170   6.436   1.595   2.970  0.1449  0.2657 -1.2752
19893TIP3    H281171   6.507   1.518   2.861  0.0067 -1.6468 -0.0541
19894TIP3   OH281172   3.481   6.160  13.990  0.3532  0.1261 -0.2131
19894TIP3    H181173   3.446   6.111  14.065 -1.6569 -0.4378 -1.4201
19894TIP3    H281174   3.543   6.222  14.028 -0.5834 -0.1468  1.9081
19895TIP3   OH281175   1.160   1.062  12.335  0.8469 -0.4024  0.8915
19895TIP3    H181176   1.121   1.149  12.344  0.7024 -0.5591  1.8909
19895TIP3    H281177   1.193   1.042  12.422  0.2716 -1.6464  0.8278
19896TIP3   OH281178   4.085   4.504   0.660  0.0188 -0.6496  0.1010
19896TIP3    H181179   4.098   4.416   0.694 -1.8633 -0.5108  1.2822
19896TIP3    H281180   4.117   4.562   0.729  0.5644 -0.3833 -0.3642
19897TIP3   OH281181   6.133   0.166   3.742 -0.0687 -0.4823 -0.2198
19897TIP3    H181182   6.072   0.119   3.685 -0.7550 -0.5868  0.5936
19897TIP3    H281183   6.079   0.231   3.787  0.2086 -1.2327  1.2602
19898TIP3   OH281184   6.985   6.667   2.282 -0.5518  0.2215 -0.0789
19898TIP3    H181185   7.029   6.595   2.328  0.2396  1.5569  1.3189
19898TIP3    H281186   6.989   6.642   2.189 -0.1915 -1.4591  0.3521
19899TIP3   OH281187   3.433   5.921   1.887  0.4623 -0.2691  0.2319
19899TIP3    H181188   3.444   5.933   1.792  0.6791 -1.3152  0.1145
19899TIP3    H281189   3.346   5.881   1.896  1.5703 -2.8360  0.2184
19900TIP3   OH281190   4.359   2.034   0.918 -0.1884  0.0649  0.2870
19900TIP3    H181191   4.326   2.008   1.004 -0.5852 -1.2868 -0.2463
19900TIP3    H281192   4.385   2.125   0.929  1.1282 -0.4785  2.2325
19901TIP3   OH281193   4.159   4.571   1.514 -0.6225  0.3692 -0.3180
19901TIP3    H181194   4.172   4.632   1.442  1.2431 -0.4501 -0.7391
19901TIP3    H281195   4.104   4.501   1.477 -0.0160  0.1587 -0.8280
19902TIP3   OH281196   0.048   7.106   2.594 -0.0892  0.0449 -0.6580
19902TIP3    H181197  -0.008   7.160   2.650  0.3812  0.9509 -1.0402
19902TIP3    H281198   0.071   7.031   2.649 -0.2749  0.5328  0.1026
19903TIP3   OH281199   3.824   1.643   5.052  0.0333 -0.8330 -0.3650
19903TIP3    H181200   3.871   1.675   4.975 -0.2668 -0.2936 -0.3265
19903TIP3    H281201   3.862   1.692   5.125  0.7009 -1.7358 -0.0898
19904TIP3   OH281202   4.595   6.200  12.147  0.3596  0.0603  0.1937
19904TIP3    H181203   4.603   6.197  12.051 -1.1294  1.3117 -0.0063
19904TIP3    H281204   4.523   6.140  12.167 -1.2187  1.8678  0.2086
19905TIP3   OH281205   1.316   6.560  15.682  0.2896 -0.1936 -0.1304
19905TIP3    H181206   1.235   6.611  15.684 -0.8952 -2.0066 -0.1888
19905TIP3    H281207   1.322   6.529  15.592  1.2565  0.2135 -0.2133
19906TIP3   OH281208   6.254   4.365   3.833  0.2476  0.5519 -0.8381
19906TIP3    H181209   6.182   4.304   3.848  1.2998 -0.2390  1.4651
19906TIP3    H281210   6.211   4.451   3.826 -1.0396 -0.1130 -1.4532
19907TIP3   OH281211   6.881   2.522   0.102 -0.4027  0.1772  0.2868
19907TIP3    H181212   6.955   2.518   0.041  0.4780  0.9568  1.2689
19907TIP3    H281213   6.825   2.591   0.067 -0.1605  0.2718  0.0785
19908TIP3   OH281214   1.084   7.014   2.466 -0.2361  0.5848  0.4552
19908TIP3    H181215   0.995   6.992   2.442  0.2608 -1.1774  0.0871
19908TIP3    H281216   1.138   6.973   2.399  0.8508  1.8889  0.4902
19909TIP3   OH281217   3.596   0.760   3.859 -0.2737 -0.0198 -0.4429
19909TIP3    H181218   3.523   0.721   3.908 -0.4697  1.0048  0.1061
19909TIP3    H281219   3.672   0.745   3.916 -1.0260  4.4550  2.2174
19910TIP3   OH281220   2.525   3.128  15.403 -0.2581 -0.1977 -0.0758
19910TIP3    H181221   2.580   3.069  15.455  0.3501 -0.1459 -0.6443
19910TIP3    H281222   2.517   3.085  15.318  0.1166  0.4793 -0.4657
19911TIP3   OH281223   6.414   2.597   2.983 -0.1592  0.2052  0.2277
19911TIP3    H181224   6.333   2.546   2.978  0.7273 -1.2089 -0.0329
19911TIP3    H281225   6.479   2.537   3.018  0.9691  1.0989 -0.2609
19912TIP3   OH281226   2.972   4.400   5.533  0.7420  0.4017  0.0334
19912TIP3    H181227   2.960   4.305   5.546 -0.9585  0.6539  0.5342
19912TIP3    H281228   2.971   4.436   5.622  0.5175  0.9746 -0.1999
19913TIP3   OH281229   2.630   6.741   0.620 -0.2794  0.1614  0.4203
19913TIP3    H181230   2.567   6.812   0.610  0.9068  1.4597  1.7024
19913TIP3    H281231   2.693   6.753   0.550 -0.1165  0.3357  0.5962
19914TIP3   OH281232   0.098   2.949   2.247 -0.0032  0.2248  0.0513
19914TIP3    H181233   0.011   2.920   2.218 -0.1704  0.4570  0.3167
19914TIP3    H281234   0.158   2.916   2.180 -0.3419  0.4259 -0.3537
19915TIP3   OH281235   3.180   1.587   5.753 -0.7841 -0.4576 -0.5384
19915TIP3    H181236   3.239   1.559   5.823 -1.4584  1.6501  1.0060
19915TIP3    H281237   3.144   1.506   5.717  1.8786 -1.7419 -0.5500
19916TIP3   OH281238   5.557   1.126   1.925  0.4500 -0.1265 -0.3578
19916TIP3    H181239   5.572   1.156   1.835 -0.5960 -2.0748 -1.2248
19916TIP3    H281240   5.603   1.191   1.979  0.5671  1.4556 -2.2408
19917TIP3   OH281241   7.019   0.692  12.736  0.2833 -0.4739  0.3006
19917TIP3    H181242   6.978   0.691  12.822  1.8394  0.4661  1.0807
19917TIP3    H281243   7.082   0.620  12.739  0.8714  0.0292  0.2365
19918TIP3   OH281244   2.029   0.125   9.925  0.0412 -0.5580  0.8076
19918TIP3    H181245   1.992   0.144   9.838  0.3117 -1.5937  0.4517
19918TIP3    H281246   2.120   0.153   9.920  0.9082 -3.2443 -0.2549
19919TIP3   OH281247   1.874   2.801   1.802  0.0634 -0.3566  0.4877
19919TIP3    H181248   1.892   2.885   1.760  0.8805 -0.2765  0.9776
19919TIP3    H281249   1.789   2.775   1.768  0.1014  0.3522 -0.1778
19920TIP3   OH281250   6.396   4.129   4.141 -0.2513  0.0899  0.6378
19920TIP3    H181251   6.327   4.195   4.144  0.4350  0.9834 -1.3919
19920TIP3    H281252   6.442   4.146   4.059 -0.3377 -3.2236 -0.2405
19921TIP3   OH281253   3.022   1.208   4.260  0.4006  0.0340 -0.6648
19921TIP3    H181254   2.981   1.204   4.347  1.2840 -0.1875 -0.2396
19921TIP3    H281255   2.967   1.268   4.210 -0.6573 -0.5468 -0.2416
19922TIP3   OH281256   3.144   1.939  14.513  0.2472  0.0556 -0.3960
19922TIP3    H181257   3.051   1.917  14.509  0.1393  0.0815  1.2801
19922TIP3    H281258   3.189   1.863  14.477 -0.2817 -1.6291  2.1803
19923TIP3   OH281259   3.131   1.343   5.239 -0.7581  0.3575  0.1998
19923TIP3    H181260   3.169   1.309   5.158 -1.5118 -0.4239  0.1582
19923TIP3    H281261   3.142   1.438   5.234  0.8693  0.1809  0.0438
19924TIP3   OH281262   5.748   1.755   5.334 -0.0912  0.0012 -0.2579
19924TIP3    H181263   5.751   1.666   5.299 -2.6670  0.1384 -1.0360
19924TIP3    H281264   5.700   1.747   5.416 -0.3272  0.6521 -0.3248
19925TIP3   OH281265   2.924   4.761   2.718  0.1241 -0.3321 -0.8357
19925TIP3    H181266   2.857   4.706   2.758 -0.3513  0.1488 -0.9526
19925TIP3    H281267   2.875   4.819   2.659  0.4189  1.2050  0.3619
19926TIP3   OH281268   4.641   1.829   5.110 -0.7168  0.2346  1.0093
19926TIP3    H181269   4.689   1.825   5.028 -1.0242 -1.2855  0.8879
19926TIP3    H281270   4.699   1.878   5.169 -0.0798  0.5012  0.1812
19927TIP3   OH281271   5.342   5.916   4.370  0.1727  0.4466  0.4313
19927TIP3    H181272   5.326   5.946   4.280  1.5649  2.3842  0.7713
19927TIP3    H281273   5.255   5.894   4.403 -0.8413  2.9458 -0.3263
19928TIP3   OH281274   4.777   6.823   2.664 -0.1464 -0.6585 -0.0495
19928TIP3    H181275   4.852   6.779   2.624  0.0879  1.1830 -1.8181
19928TIP3    H281276   4.816   6.881   2.730 -0.2457 -1.3515  0.6307
19929TIP3   OH281277   2.781   5.935   1.996 -0.4988  0.3688  0.2534
19929TIP3    H181278   2.847   5.889   1.944 -0.6994  0.6718 -0.2735
19929TIP3    H281279   2.748   5.868   2.056 -3.1117 -1.2053 -2.6349
19930TIP3   OH281280   0.730   0.758   2.628  0.0653  0.1637 -0.1873
19930TIP3    H181281   0.791   0.781   2.557 -3.4398  0.3067 -3.4792
19930TIP3    H281282   0.703   0.842   2.665  1.9306  0.0875  1.5483
19931TIP3   OH281283   3.667   1.227  14.385  0.0076 -0.3964  0.4353
19931TIP3    H181284   3.584   1.233  14.431 -0.1383 -1.6544  0.3734
19931TIP3    H281285   3.643   1.216  14.293  0.2959  2.0898 -0.0062
19932TIP3   OH281286   1.311   1.058  14.615 -0.0537  0.1698 -0.2210
19932TIP3    H181287   1.240   1.120  14.630  0.6183  1.1464 -0.9190
19932TIP3    H281288   1.282   1.005  14.541 -0.7600 -0.5649  0.5698
19933TIP3   OH281289   0.475   7.036   4.580 -0.1664 -0.7989 -0.0555
19933TIP3    H181290   0.458   7.130   4.574 -0.0875 -0.7508  0.4912
19933TIP3    H281291   0.568   7.026   4.559 -0.4109 -0.8741 -1.1963
19934TIP3   OH281292   6.557   6.424   3.788 -0.0394 -0.1816 -0.2598
19934TIP3    H181293   6.476   6.416   3.837  0.1000 -1.0544 -0.1409
19934TIP3    H281294   6.602   6.341   3.803  0.2527 -0.2576 -1.4162
19935TIP3   OH281295   5.168   5.581   3.252 -0.5144 -0.5781  0.3967
19935TIP3    H181296   5.226   5.528   3.197 -1.4308 -0.8097 -0.3758
19935TIP3    H281297   5.140   5.521   3.320  0.0453 -0.4974  0.7083
19936TIP3   OH281298   1.583   0.776   4.477  0.5969 -0.4399  0.1745
19936TIP3    H181299   1.557   0.817   4.394 -1.2199  0.5033  1.1585
19936TIP3    H281300   1.644   0.838   4.516 -2.8464  2.0030  2.0930
19937TIP3   OH281301   2.420   6.665   1.343 -0.1367  0.4982 -0.1815
19937TIP3    H181302   2.419   6.753   1.306 -1.1506 -0.3063 -2.2458
19937TIP3    H281303   2.345   6.664   1.403  0.4716  1.3111  0.6153
19938TIP3   OH281304   0.330   6.388   3.924 -0.0576 -0.2923 -0.1687
19938TIP3    H181305   0.354   6.341   3.844 -0.6593 -3.2432  1.2273
19938TIP3    H281306   0.251   6.436   3.900 -0.0705 -0.8747 -1.4025
19939TIP3   OH281307   7.141   1.206   4.246 -0.9020 -0.5193  0.0204
19939TIP3    H181308   7.111   1.295   4.227 -1.5578 -0.2517  2.0598
19939TIP3    H281309   7.203   1.216   4.319 -1.0988 -1.7371  0.3840
19940TIP3   OH281310   3.126   0.502   2.052 -0.3918 -0.5255 -0.0801
19940TIP3    H181311   3.102   0.592   2.032  2.0054  0.3564  0.7234
19940TIP3    H281312   3.073   0.480   2.129 -0.4183  0.5053  0.2135
19941TIP3   OH281313   6.262   4.470   3.010 -0.3359 -0.0582  0.3252
19941TIP3    H181314   6.312   4.550   3.027 -0.8958  0.5048 -0.6144
19941TIP3    H281315   6.322   4.414   2.961 -0.8166  0.9046 -1.4441
19942TIP3   OH281316   5.079   5.675   1.650  0.1356 -0.4230 -0.4337
19942TIP3    H181317   5.000   5.651   1.602 -0.4439 -0.4452  0.4912
19942TIP3    H281318   5.103   5.761   1.615 -1.0776  0.1904  0.1662
19943TIP3   OH281319   7.129   3.038   3.691 -0.3098  0.5341 -0.0837
19943TIP3    H181320   7.218   3.061   3.716 -0.2387 -1.3830  1.7263
19943TIP3    H281321   7.139   2.972   3.623 -0.2420 -0.9917  1.3492
19944TIP3   OH281322   3.126   5.351   2.342 -0.8085  0.2258  0.0390
19944TIP3    H181323   3.127   5.273   2.398 -1.1093  0.5632  0.5251
19944TIP3    H281324   3.194   5.408   2.378  0.2101 -0.2855 -1.0220
19945TIP3   OH281325   7.075   3.911   4.484  0.2266  0.5781  0.6086
19945TIP3    H181326   7.089   3.980   4.420  0.5916  0.1713  0.2439
19945TIP3    H281327   7.162   3.890   4.518 -0.0552  1.4873  1.9981
19946TIP3   OH281328   2.063   3.823   5.519  0.2189  0.5917  0.0935
19946TIP3    H181329   2.145   3.788   5.553 -0.6946 -0.3959  1.3993
19946TIP3    H281330   2.064   3.916   5.544  0.4038  0.3039  1.1849
19947TIP3   OH281331   6.623   1.153   1.124 -0.0492 -0.1623  0.1619
19947TIP3    H181332   6.633   1.067   1.167  0.4738  0.3840  1.1691
19947TIP3    H281333   6.663   1.215   1.185  0.0149  0.7475 -0.7778
19948TIP3   OH281334   3.769   4.591   5.522  0.0879 -0.2934 -0.5012
19948TIP3    H181335   3.742   4.679   5.550  0.0364 -0.4463 -0.0688
19948TIP3    H281336   3.705   4.532   5.563  1.8847 -0.7925  1.7381
19949TIP3   OH281337   4.418   5.930   1.639 -0.6151 -0.2178 -0.3779
19949TIP3    H181338   4.470   6.007   1.615  0.6456 -0.3663  1.6279
19949TIP3    H281339   4.343   5.966   1.686  0.7136 -0.1797  1.8590
19950TIP3   OH281340   3.758   5.472   2.137 -0.1488 -0.2537 -0.1217
19950TIP3    H181341   3.753   5.470   2.232  2.0763  2.3462  0.1540
19950TIP3    H281342   3.707   5.548   2.111 -0.0199 -0.4330 -0.9514
19951TIP3   OH281343   6.781   5.260   5.286 -0.3867  0.1561  0.0646
19951TIP3    H181344   6.779   5.239   5.192 -1.9092 -1.0311  0.3180
19951TIP3    H281345   6.693   5.291   5.306  0.7367  3.4606  0.5338
19952TIP3   OH281346   4.097   5.982  13.852  0.2135 -0.0112  0.2792
19952TIP3    H181347   4.037   5.907  13.847 -1.7397  1.4608  0.2617
19952TIP3    H281348   4.108   6.010  13.761  1.4180 -0.6041  0.2267
19953TIP3   OH281349   2.938   2.526  10.588  0.1670  0.0638  0.3628
19953TIP3    H181350   2.917   2.488  10.673  0.3524  2.1043  1.3653
19953TIP3    H281351   2.868   2.495  10.530 -1.2625  0.4861  1.8086
19954TIP3   OH281352   3.854   5.957   2.844  0.9005 -0.2603  0.4282
19954TIP3    H181353   3.858   5.866   2.816 -1.6552 -0.5042  0.5417
19954TIP3    H281354   3.814   6.004   2.771 -0.4653  0.1741  1.3887
19955TIP3   OH281355   5.499   5.251  15.392  0.1859 -0.1256  0.1507
19955TIP3    H181356   5.504   5.346  15.389 -0.5972 -0.0895 -0.8635
19955TIP3    H281357   5.405   5.233  15.398  0.1179 -0.8447 -2.2586
19956TIP3   OH281358   5.648   2.545   0.629  0.5990 -0.8015  0.4990
19956TIP3    H181359   5.644   2.453   0.656 -1.0465 -0.5267  1.2919
19956TIP3    H281360   5.605   2.547   0.544  0.5107 -0.7381  0.5452
19957TIP3   OH281361   0.218   6.686  15.411  0.0674 -0.3897  0.4992
19957TIP3    H181362   0.284   6.747  15.377  0.8200 -1.5365 -0.1513
19957TIP3    H281363   0.135   6.720  15.377  0.8727 -2.4817 -4.3780
19958TIP3   OH281364   0.555   1.380   4.892  0.4572  0.0412 -0.1848
19958TIP3    H181365   0.463   1.389   4.868  0.2628 -4.1390 -1.7634
19958TIP3    H281366   0.601   1.439   4.832 -1.0793  1.6818  0.1717
19959TIP3   OH281367   2.007   6.781   3.662 -0.1797 -0.0935 -0.2024
19959TIP3    H181368   2.046   6.739   3.584 -2.6764 -1.9442 -0.5704
19959TIP3    H281369   1.942   6.841   3.627 -0.5965 -0.1618  0.4521
19960TIP3   OH281370   0.481   0.251  15.512  0.2932  0.3400  0.2013
19960TIP3    H181371   0.415   0.310  15.476  0.1839  0.9382  1.3327
19960TIP3    H281372   0.526   0.216  15.435  0.7045  2.2865 -0.5075
19961TIP3   OH281373   1.327   3.769  11.197  0.0106  0.6596  0.2109
19961TIP3    H181374   1.373   3.824  11.134  1.3448  0.6395  1.1336
19961TIP3    H281375   1.236   3.801  11.194  0.3311  1.5646 -0.7059
19962TIP3   OH281376   3.920   1.647   1.928 -0.2088 -0.2269  0.4084
19962TIP3    H181377   3.931   1.634   1.834 -1.3686  0.3075  0.1768
19962TIP3    H281378   3.840   1.599   1.950 -0.7013  0.7639  0.8464
19963TIP3   OH281379   2.689   2.374  10.900  0.4645 -0.4321  0.4917
19963TIP3    H181380   2.647   2.364  10.986  1.6291 -0.1338  1.1177
19963TIP3    H281381   2.746   2.450  10.911  0.1261  0.0219 -0.7641
19964TIP3   OH281382   6.609   2.787   1.920  0.3732 -0.3124  0.0031
19964TIP3    H181383   6.642   2.867   1.961 -0.2228 -0.5124  0.9299
19964TIP3    H281384   6.513   2.796   1.923  0.2903  0.0815 -2.2420
19965TIP3   OH281385   0.917   0.222   5.286 -0.2144 -0.1652  0.6244
19965TIP3    H181386   1.011   0.225   5.273 -0.4120  0.5878 -0.7470
19965TIP3    H281387   0.897   0.300   5.339 -0.1960  0.2676 -0.0009
19966TIP3   OH281388   0.008   6.518   5.102 -0.2309  0.2788  0.3587
19966TIP3    H181389  -0.011   6.604   5.066 -1.1992 -0.5612 -1.2820
19966TIP3    H281390  -0.072   6.492   5.146 -1.1436 -1.0153 -1.8685
19967TIP3   OH281391   3.460   5.492  14.785  0.0584  0.1996 -0.0714
19967TIP3    H181392   3.524   5.562  14.795 -1.0022  1.1577  0.2088
19967TIP3    H281393   3.508   5.412  14.810  1.0441  0.9239  0.4368
19968TIP3   OH281394   1.442   3.114  15.062  0.3924  0.1432 -0.3819
19968TIP3    H181395   1.431   3.113  14.967  1.3555  0.1610 -0.5019
19968TIP3    H281396   1.440   3.022  15.087  0.7632  0.1020 -0.4996
19969TIP3   OH281397   6.367   2.376   4.708 -0.0822  0.4748  0.2901
19969TIP3    H181398   6.314   2.312   4.660 -1.4867  1.1264  0.9143
19969TIP3    H281399   6.409   2.324   4.777  0.5447 -0.1461 -0.5332
19970TIP3   OH281400   6.306   4.374  10.454  0.1228 -0.2822  0.3794
19970TIP3    H181401   6.249   4.384  10.531 -1.1897  0.6177 -0.6563
19970TIP3    H281402   6.392   4.403  10.484  0.2788 -2.3055  2.1886
19971TIP3   OH281403   1.074   0.724   1.901  0.5496  0.1440 -0.0989
19971TIP3    H181404   1.155   0.753   1.857  1.2519 -1.9782 -0.3227
19971TIP3    H281405   1.067   0.631   1.879 -1.3313 -0.0010  0.9223
19972TIP3   OH281406   6.426   2.701  13.677 -0.3078 -0.0721 -0.4536
19972TIP3    H181407   6.408   2.793  13.659 -0.4318 -0.3923 -2.1901
19972TIP3    H281408   6.521   2.695  13.678 -0.2696  0.3532  1.4284
19973TIP3   OH281409   2.748   6.057  11.145  0.0532 -0.4934  0.0174
19973TIP3    H181410   2.793   6.016  11.071  0.2638 -0.0585 -0.1035
19973TIP3    H281411   2.668   6.007  11.155  1.1620 -2.1366  1.0918
19974TIP3   OH281412   1.629   0.411   5.241  0.3011  0.2832  0.3444
19974TIP3    H181413   1.702   0.409   5.179 -0.9921 -0.7831 -1.2198
19974TIP3    H281414   1.644   0.335   5.298  0.6458  0.3272  0.3135
19975TIP3   OH281415   3.794   3.375   5.569  0.4279 -0.1519  0.4491
19975TIP3    H181416   3.837   3.290   5.563  0.3280 -0.1326 -0.6749
19975TIP3    H281417   3.734   3.365   5.643  0.6645 -0.9464  0.5498
19976TIP3   OH281418   6.015   4.758   1.260 -0.5269  0.2451  0.5596
19976TIP3    H181419   6.064   4.679   1.281  0.4826  0.8216  0.4377
19976TIP3    H281420   6.001   4.753   1.165  1.7217  1.3627  0.0847
19977TIP3   OH281421   1.610   2.592   4.740  0.3586  0.0487 -0.3454
19977TIP3    H181422   1.633   2.499   4.735 -0.6997 -0.4090  2.0171
19977TIP3    H281423   1.600   2.619   4.648  2.3376 -1.6989 -1.1572
19978TIP3   OH281424   4.111   4.027   1.333 -0.0755  0.4558  0.2517
19978TIP3    H181425   4.203   4.020   1.360 -0.4586  0.5005  1.6423
19978TIP3    H281426   4.062   4.032   1.415 -1.2937  0.8971 -0.4690
19979TIP3   OH281427   5.222   5.523   1.017 -0.2675  0.2009  0.1552
19979TIP3    H181428   5.245   5.531   0.925 -1.1027  0.3675 -0.0474
19979TIP3    H281429   5.180   5.606   1.039 -0.2997  0.0646  0.6202
19980TIP3   OH281430   5.152   6.063   4.200  0.7224  0.4445 -0.7631
19980TIP3    H181431   5.151   6.010   4.120 -0.8611 -0.2656 -0.3235
19980TIP3    H281432   5.063   6.097   4.207  1.3072  1.9142 -0.1976
19981TIP3   OH281433   1.939   6.805   4.360  0.2870 -0.4197 -0.0222
19981TIP3    H181434   1.919   6.809   4.266  0.2023 -3.0175 -0.1722
19981TIP3    H281435   2.034   6.789   4.363  0.4327  0.4445  0.3971
19982TIP3   OH281436   2.583   2.072  15.559  0.3711 -0.0265  0.5917
19982TIP3    H181437   2.610   2.118  15.639  0.4550  0.3266  0.3637
19982TIP3    H281438   2.653   2.090  15.497  0.6932 -0.9481  0.6740
19983TIP3   OH281439   0.209   3.965  15.743 -0.3090  0.4616  0.6465
19983TIP3    H181440   0.297   3.930  15.758  0.4075  2.4003  1.2758
19983TIP3    H281441   0.155   3.927  15.812 -0.3431 -1.8357 -0.5565
19984TIP3   OH281442   1.671   0.798  14.156  0.7028 -0.1199  0.0921
19984TIP3    H181443   1.603   0.843  14.105 -0.4627 -0.5207  1.2276
19984TIP3    H281444   1.741   0.862  14.165  0.4235  0.3561 -1.0042
19985TIP3   OH281445   1.953   5.303   3.880 -0.2974  0.0276 -0.1255
19985TIP3    H181446   1.974   5.274   3.969 -0.7394  0.1225  0.0071
19985TIP3    H281447   2.035   5.342   3.848 -0.6293  1.5796  0.8579
19986TIP3   OH281448   2.704   4.041   4.697 -0.6699 -0.2644  0.1818
19986TIP3    H181449   2.750   3.975   4.750  0.3502  0.3510  0.1024
19986TIP3    H281450   2.673   4.105   4.760  1.1934  0.8616  0.0474
19987TIP3   OH281451   6.891   2.837  14.099 -0.6353  0.1263 -0.0996
19987TIP3    H181452   6.817   2.876  14.145 -0.5723  0.9352 -0.6550
19987TIP3    H281453   6.855   2.813  14.013 -1.1498 -2.7469  0.7993
19988TIP3   OH281454   2.401   2.905   5.322 -0.2809  0.0617  0.3978
19988TIP3    H181455   2.493   2.877   5.323  0.5255  2.2333 -2.1034
19988TIP3    H281456   2.402   2.993   5.358 -1.5338 -0.1339  0.9639
19989TIP3   OH281457   1.053   3.729   5.237 -0.0794 -0.0435 -0.0576
19989TIP3    H181458   0.996   3.749   5.312 -0.5273 -1.4760  0.0049
19989TIP3    H281459   1.049   3.634   5.228  0.0730  0.0815 -1.8296
19990TIP3   OH281460   5.435   2.954   3.091 -0.0240  0.0516  0.1260
19990TIP3    H181461   5.349   2.952   3.133 -1.2894  0.3127 -2.2750
19990TIP3    H281462   5.495   2.922   3.159 -1.7709  1.1279  2.3291
19991TIP3   OH281463   3.760   4.123  12.239 -0.2502  0.0630  0.4860
19991TIP3    H181464   3.726   4.170  12.164  0.8950 -0.1615 -0.2072
19991TIP3    H281465   3.713   4.039  12.239  1.1289 -0.7693 -1.2112
19992TIP3   OH281466   3.083   1.546   3.634 -0.2397 -0.8079  0.3617
19992TIP3    H181467   3.096   1.582   3.547 -0.1692 -0.4891  0.5018
19992TIP3    H281468   3.103   1.619   3.694 -1.3188 -0.7022  0.6157
19993TIP3   OH281469   5.849   2.329   1.674 -0.2516 -0.1304 -0.4206
19993TIP3    H181470   5.767   2.360   1.712  0.1789  0.5840 -0.0357
19993TIP3    H281471   5.890   2.408   1.639 -0.6893 -0.7747 -2.5285
19994TIP3   OH281472   2.435   6.510   0.252 -0.2474  0.1888  0.4300
19994TIP3    H181473   2.416   6.523   0.345  1.1405  1.0220  0.6275
19994TIP3    H281474   2.516   6.558   0.237 -1.3452  1.5512 -1.6142
19995TIP3   OH281475   3.192   2.209   1.128  0.0687  0.2299  0.2785
19995TIP3    H181476   3.139   2.218   1.049 -1.0353  0.9862  1.0704
19995TIP3    H281477   3.198   2.298   1.163  0.7490 -0.0578  0.9121
19996TIP3   OH281478   0.105   6.836  15.187 -0.2189 -0.4211 -0.7203
19996TIP3    H181479   0.013   6.813  15.195 -0.4157  0.0233 -1.6376
19996TIP3    H281480   0.106   6.931  15.178  0.5444 -0.0255  2.4292
19997TIP3   OH281481   5.257   1.317  10.431  0.2011  0.2599  0.0910
19997TIP3    H181482   5.349   1.334  10.449  1.2506 -3.5358 -0.6697
19997TIP3    H281483   5.250   1.325  10.336 -0.9900  2.9952  0.3224
19998TIP3   OH281484   6.589   0.335   2.290  0.4161 -0.7825 -0.0503
19998TIP3    H181485   6.604   0.422   2.252 -2.2254 -0.5697 -0.7845
19998TIP3    H281486   6.640   0.276   2.234 -0.1643 -0.0103 -1.4471
19999TIP3   OH281487   5.901   2.199   4.234 -0.3322 -0.0188  0.2076
19999TIP3    H181488   5.916   2.222   4.143 -2.7223 -0.4275 -0.3464
19999TIP3    H281489   5.974   2.240   4.281  2.0233 -1.3587 -2.0123
20000TIP3   OH281490   3.736   1.190   4.339  0.1492 -0.1179 -0.0453
20000TIP3    H181491   3.765   1.264   4.392  0.5235  0.3529 -0.8812
20000TIP3    H281492   3.814   1.134   4.332 -0.3294 -0.9802  1.1935
20001TIP3   OH281493   4.848   6.763   4.052  0.4058 -0.1014 -0.1113
20001TIP3    H181494   4.914   6.831   4.066  1.3743 -0.9907 -0.2227
20001TIP3    H281495   4.822   6.735   4.140  0.7836 -0.3081 -0.0626
20002TIP3   OH281496   5.179   6.014   1.498  0.3148 -0.0842 -0.3451
20002TIP3    H181497   5.160   6.107   1.506  1.0638  0.0345  0.1227
20002TIP3    H281498   5.207   5.987   1.586  3.0518 -0.0586 -1.1194
20003TIP3   OH281499   3.281   2.269   2.795 -0.2266  0.0682 -0.4291
20003TIP3    H181500   3.337   2.245   2.869  1.3076  0.7156 -1.3266
20003TIP3    H281501   3.304   2.207   2.726 -3.8241 -2.5480  0.4512
20004TIP3   OH281502   5.225   5.820   5.502 -0.6043  0.2741  0.0631
20004TIP3    H181503   5.317   5.814   5.526 -0.9480  0.8875  1.6707
20004TIP3    H281504   5.215   5.758   5.429  1.2447  0.8637 -0.7690
20005TIP3   OH281505   3.215   4.209   4.701 -0.4406  0.2450  0.4009
20005TIP3    H181506   3.256   4.282   4.653  1.7047 -1.8704 -1.1916
20005TIP3    H281507   3.142   4.182   4.645  0.0851 -0.1893 -0.0756
20006TIP3   OH281508   4.166   1.024   5.252  0.3697  0.4793 -0.3640
20006TIP3    H181509   4.085   1.028   5.202 -0.3077 -1.3816  0.5001
20006TIP3    H281510   4.145   1.065   5.336  0.1651 -0.3928  0.0237
20007TIP3   OH281511   0.356   3.845   2.220  0.2591  0.4471  0.1833
20007TIP3    H181512   0.371   3.895   2.300  1.6548  0.8593 -0.3093
20007TIP3    H281513   0.260   3.836   2.215 -0.1064  3.3396  0.1491
20008TIP3   OH281514   0.010   0.612   3.284 -0.8610 -0.2793  0.2046
20008TIP3    H181515   0.025   0.522   3.256 -1.7706 -0.4989  0.3949
20008TIP3    H281516  -0.082   0.628   3.264 -1.2928 -0.1180  2.1269
20009TIP3   OH281517   4.280   6.632  13.076 -0.0234  0.4517  0.7461
20009TIP3    H181518   4.303   6.581  12.998  1.2814 -0.4268  1.6671
20009TIP3    H281519   4.197   6.674  13.053 -0.4585 -1.0053 -0.5400
20010TIP3   OH281520   4.673   6.919  14.827 -0.2157 -0.2338  0.5712
20010TIP3    H181521   4.739   6.913  14.758  0.4778 -1.8309  1.3295
20010TIP3    H281522   4.617   6.842  14.812 -1.0336  0.3050  0.8238
20011TIP3   OH281523   3.872   2.830   1.937  0.4801 -0.0308 -0.3721
20011TIP3    H181524   3.805   2.776   1.893  1.3481 -0.4941 -1.1569
20011TIP3    H281525   3.840   2.920   1.926 -1.7058 -0.3825  2.1591
20012TIP3   OH281526   3.110   5.669   0.848 -0.1954  0.2984  0.0218
20012TIP3    H181527   3.097   5.660   0.754  0.4440 -0.2048 -0.0312
20012TIP3    H281528   3.204   5.654   0.861  0.1127  2.3505  0.5252
20013TIP3   OH281529   6.064   5.807  15.076 -0.2015  0.1010  0.0480
20013TIP3    H181530   6.101   5.865  15.009  0.4007  1.6547  1.6646
20013TIP3    H281531   6.135   5.746  15.096  1.2950  2.4124  2.3728
20014TIP3   OH281532   1.611   1.956  13.510 -0.0074 -0.4965 -0.2009
20014TIP3    H181533   1.706   1.963  13.498 -0.2777  1.6067 -1.7492
20014TIP3    H281534   1.595   1.863  13.523  2.0749 -1.1759 -1.9232
20015TIP3   OH281535   0.039   4.587   3.394  0.4413 -0.2908 -0.1458
20015TIP3    H181536   0.080   4.623   3.473  1.7361 -0.9729 -0.4858
20015TIP3    H281537   0.103   4.525   3.360 -0.9228 -1.4474 -0.6722
20016TIP3   OH281538   1.616   5.157   0.690 -0.2800  0.0137  0.3193
20016TIP3    H181539   1.693   5.205   0.721  0.6303 -1.4626  0.4329
20016TIP3    H281540   1.561   5.225   0.651  2.0569  0.8675 -1.8173
20017TIP3   OH281541   0.173   2.441   3.509  0.2206 -0.1120  0.3835
20017TIP3    H181542   0.229   2.518   3.518 -0.2667  0.1092  1.6544
20017TIP3    H281543   0.091   2.475   3.473  0.0025 -0.0200  0.9525
20018TIP3   OH281544   6.500   2.925   2.990 -0.1569  0.2983 -0.7880
20018TIP3    H181545   6.518   2.856   3.054  0.6928  1.5191  0.3515
20018TIP3    H281546   6.405   2.925   2.979 -0.4242  0.6166  1.1752
20019TIP3   OH281547   4.688   3.857   3.664  0.6950 -0.6132 -0.4624
20019TIP3    H181548   4.689   3.903   3.580  1.0382 -0.1646 -0.2160
20019TIP3    H281549   4.780   3.833   3.679  0.8681  0.5191  0.4314
20020TIP3   OH281550   2.561   2.366   1.587 -0.5960 -0.2590  0.0686
20020TIP3    H181551   2.508   2.286   1.593  0.3407 -0.8672  0.5541
20020TIP3    H281552   2.509   2.425   1.533 -0.9659 -1.4771 -0.9653
20021TIP3   OH281553   0.111   4.235  11.851 -0.4726  0.5726 -0.0612
20021TIP3    H181554   0.015   4.230  11.853 -0.4586  0.1835 -0.3166
20021TIP3    H281555   0.129   4.301  11.784 -0.5357 -0.7014 -1.3802
20022TIP3   OH281556   4.531   5.035   3.508  0.1078 -0.0289  0.1974
20022TIP3    H181557   4.484   4.955   3.529 -1.3872  0.8697  0.4321
20022TIP3    H281558   4.526   5.040   3.412 -1.3675  0.6467  0.2754
20023TIP3   OH281559   4.291   3.061   1.607  0.0492 -0.4391 -0.1261
20023TIP3    H181560   4.286   3.033   1.698 -2.1589 -1.0207 -0.3504
20023TIP3    H281561   4.373   3.108   1.600  0.9569 -1.6180  1.8040
20024TIP3   OH281562   6.277   4.775   1.442 -0.2641  0.2006 -0.4545
20024TIP3    H181563   6.332   4.734   1.375 -1.5140  0.0005 -1.3879
20024TIP3    H281564   6.340   4.810   1.506  0.8998 -1.4361 -0.6345
20025TIP3   OH281565   1.744   3.967   5.201  0.3652 -0.0616 -0.2970
20025TIP3    H181566   1.759   3.956   5.108 -0.1672  1.0655 -0.5457
20025TIP3    H281567   1.650   3.984   5.208  0.4735  0.3073  0.3922
20026TIP3   OH281568   3.282   0.560   3.647  0.4041 -0.1038 -0.2484
20026TIP3    H181569   3.350   0.512   3.600  1.6964  1.8085 -0.4591
20026TIP3    H281570   3.205   0.554   3.590  1.3079  0.3040 -1.5569
20027TIP3   OH281571   1.947   5.234   0.308 -0.5533  0.2417  0.7509
20027TIP3    H181572   1.856   5.205   0.316 -0.0061 -2.2656 -0.7282
20027TIP3    H281573   1.990   5.198   0.386 -0.4498 -0.4730  0.3774
20028TIP3   OH281574   2.124   6.600   4.221  0.0769 -0.4917 -0.4990
20028TIP3    H181575   2.168   6.553   4.150 -0.0933 -1.8146  0.2204
20028TIP3    H281576   2.074   6.532   4.267  2.6536 -0.3995  2.8185
20029TIP3   OH281577   7.140   3.791  14.389 -0.3460  0.3069 -0.2848
20029TIP3    H181578   7.095   3.856  14.442 -1.2031  1.2421 -2.0756
20029TIP3    H281579   7.184   3.734  14.452 -2.7533  0.2923  1.4931
20030TIP3   OH281580   1.195   1.109  13.131 -0.3278 -0.2322  0.0838
20030TIP3    H181581   1.110   1.110  13.174 -1.2524  1.3608 -1.6179
20030TIP3    H281582   1.232   1.195  13.151  1.2475 -1.1612  1.3883
20031TIP3   OH281583   1.292   4.463   2.574  0.4572  0.2403 -0.7272
20031TIP3    H181584   1.233   4.471   2.649  0.7445 -0.8735 -0.3589
20031TIP3    H281585   1.278   4.543   2.524  0.3517  1.0648  0.5774
20032TIP3   OH281586   5.016   4.760  14.231 -0.2366  0.3581 -0.5779
20032TIP3    H181587   4.953   4.810  14.179  0.3008  3.0247  1.1436
20032TIP3    H281588   4.965   4.729  14.306  0.0383  0.8103 -0.1966
20033TIP3   OH281589   2.143   6.096   1.083 -0.1725  0.0559 -0.6754
20033TIP3    H181590   2.092   6.176   1.075  0.4577  0.8575  2.2726
20033TIP3    H281591   2.234   6.124   1.067 -0.1444 -0.4840 -1.5318
20034TIP3   OH281592   2.492   4.555   5.923  0.1479 -0.0031  0.7829
20034TIP3    H181593   2.538   4.529   6.002  0.3462 -1.2341  0.2794
20034TIP3    H281594   2.400   4.559   5.949  0.1758 -0.6967  1.0087
20035TIP3   OH281595   3.252   2.678   5.559 -0.3695  0.3037 -0.1830
20035TIP3    H181596   3.259   2.744   5.490 -1.3713  1.2511  0.6010
20035TIP3    H281597   3.340   2.672   5.595 -0.3518  1.5465  0.0261
20036TIP3   OH281598   2.887   6.772   3.674  0.0601 -0.2913  0.6140
20036TIP3    H181599   2.944   6.713   3.724  0.0342 -1.3817 -0.5950
20036TIP3    H281600   2.936   6.854   3.671  0.1458 -0.2447  2.2456
20037TIP3   OH281601   3.802   2.535   2.923  0.9237 -0.2035 -0.1706
20037TIP3    H181602   3.818   2.498   2.836 -1.8639  1.7269 -1.6364
20037TIP3    H281603   3.761   2.464   2.972  0.2101 -0.5860 -1.2842
20038TIP3   OH281604   6.424   5.030   2.861 -0.3397  0.2888  0.0956
20038TIP3    H181605   6.336   5.021   2.898  0.6730 -0.1760  2.6084
20038TIP3    H281606   6.458   5.111   2.899  0.5664  0.0743 -0.2305
20039TIP3   OH281607   1.924   2.543   5.707  0.0504 -0.0043  0.2175
20039TIP3    H181608   1.903   2.607   5.775 -1.8541 -0.9885  0.6141
20039TIP3    H281609   2.020   2.545   5.701  0.0949  2.2193  0.8232
20040TIP3   OH281610   3.253   6.750   5.014  0.4072  0.2984  0.4731
20040TIP3    H181611   3.247   6.730   5.108 -0.4860 -1.6583  0.0510
20040TIP3    H281612   3.172   6.797   4.995  0.5453  0.6151  0.6558
20041TIP3   OH281613   0.415   0.568  15.750 -0.3135  0.0031 -0.2625
20041TIP3    H181614   0.468   0.641  15.782  0.6018 -0.5288 -0.5308
20041TIP3    H281615   0.472   0.491  15.758 -0.3494 -0.3071 -2.2742
20042TIP3   OH281616   0.185   6.477   0.004  0.3522  0.1852  0.7235
20042TIP3    H181617   0.098   6.474  -0.034  0.2863 -1.8706  0.8823
20042TIP3    H281618   0.181   6.546   0.070 -0.9916  0.4807  0.3542
20043TIP3   OH281619   0.495   6.131   0.992 -0.0240  0.0804  0.4367
20043TIP3    H181620   0.444   6.206   0.962  1.4551  1.1276  0.4279
20043TIP3    H281621   0.568   6.124   0.931 -0.6649 -2.0432 -0.1808
20044TIP3   OH281622   6.780   2.852   2.509 -0.7252 -0.1298  0.2711
20044TIP3    H181623   6.794   2.771   2.558 -0.9314 -0.5292 -0.3210
20044TIP3    H281624   6.741   2.912   2.573 -1.9459 -0.9681  0.3611
20045TIP3   OH281625   3.593   5.747   3.964  0.2356  0.4465  0.2568
20045TIP3    H181626   3.617   5.666   4.009  0.2342 -0.9222 -2.0353
20045TIP3    H281627   3.498   5.742   3.952  0.5088 -0.4685 -2.0091
20046TIP3   OH281628   6.707   1.821   3.681  1.4585  0.1466  0.2123
20046TIP3    H181629   6.642   1.792   3.745  1.5810  0.6266  0.5645
20046TIP3    H281630   6.690   1.769   3.603  1.2479 -0.3868  0.6079
20047TIP3   OH281631   4.029   3.215   4.347  0.1443 -0.2231  0.3986
20047TIP3    H181632   4.082   3.252   4.277  0.7387 -0.7655  0.5629
20047TIP3    H281633   3.986   3.292   4.387 -2.2076 -0.0605 -2.1109
20048TIP3   OH281634   3.119   5.106   0.182  0.5571  0.0788  0.8460
20048TIP3    H181635   3.203   5.068   0.210  0.9666  1.2237  1.2378
20048TIP3    H281636   3.105   5.178   0.243  0.9531  2.0048 -1.2295
20049TIP3   OH281637   0.539   2.158   3.226  0.3742 -0.4227 -0.3521
20049TIP3    H181638   0.536   2.176   3.320  0.6844 -1.8490 -0.0488
20049TIP3    H281639   0.631   2.138   3.209 -0.1101 -2.7810 -0.4165
20050TIP3   OH281640   5.217   0.241   1.176  0.0451 -0.1535 -0.0958
20050TIP3    H181641   5.154   0.229   1.248 -1.4800 -2.2228 -1.6237
20050TIP3    H281642   5.279   0.169   1.187 -0.3484 -0.6330 -0.9665
20051TIP3   OH281643   3.323   3.494   3.986  0.0258  0.3349 -0.0924
20051TIP3    H181644   3.294   3.507   4.076 -1.5441 -2.1024 -0.1664
20051TIP3    H281645   3.243   3.475   3.937  0.9587  0.6816 -1.8175
20052TIP3   OH281646   1.738   4.897   0.344 -0.0005  0.0379 -0.1205
20052TIP3    H181647   1.814   4.856   0.384 -0.0640 -0.6965 -0.7345
20052TIP3    H281648   1.663   4.849   0.379 -0.0143 -1.3204 -1.8482
20053TIP3   OH281649   2.983   0.406   0.564 -0.0958  0.0440  0.3573
20053TIP3    H181650   2.900   0.365   0.588 -0.3976 -1.0297 -2.1834
20053TIP3    H281651   3.049   0.354   0.610 -0.7280 -0.1351  1.0855
20054TIP3   OH281652   3.262   4.753   0.287 -0.2345 -0.0199  0.4688
20054TIP3    H181653   3.188   4.694   0.280  0.4826 -0.9927  0.8365
20054TIP3    H281654   3.322   4.710   0.348 -1.5170  3.0625  4.3252
20055TIP3   OH281655   4.381   6.617   4.824 -0.6926 -0.2509  0.9456
20055TIP3    H181656   4.383   6.556   4.751 -3.6696 -1.2448  1.5525
20055TIP3    H281657   4.411   6.566   4.899  2.3835  0.7748  0.5490
20056TIP3   OH281658   1.138   4.816  15.083  0.6521  0.1881  0.7750
20056TIP3    H181659   1.074   4.809  15.012  0.4159  0.2265  0.9828
20056TIP3    H281660   1.171   4.726  15.094 -0.1294 -0.0426  1.3622
20057TIP3   OH281661   6.803   5.031   1.844  0.4694  0.4424  0.4705
20057TIP3    H181662   6.723   5.054   1.798  0.9503 -2.6094 -2.2330
20057TIP3    H281663   6.773   4.986   1.923 -0.5482 -0.4242 -0.3730
20058TIP3   OH281664   6.138   1.396   1.877  0.1140 -0.0216 -0.0823
20058TIP3    H181665   6.107   1.422   1.964 -1.0022 -0.0680 -0.4491
20058TIP3    H281666   6.081   1.443   1.816 -0.8038 -1.9019 -0.7652
20059TIP3   OH281667   1.596   6.753   4.315  0.0838  0.4732  0.5907
20059TIP3    H181668   1.541   6.826   4.285  0.3058 -0.2718 -1.8003
20059TIP3    H281669   1.673   6.756   4.258  0.0897 -1.6152  0.4188
20060TIP3   OH281670   2.373   3.511   2.137 -0.2667 -0.5120  0.2249
20060TIP3    H181671   2.368   3.439   2.200  2.0546 -0.7292  0.2257
20060TIP3    H281672   2.430   3.478   2.068 -0.4672  0.7657 -0.5802
20061TIP3   OH281673   2.608   6.943   6.026 -0.0076 -0.1483  0.2435
20061TIP3    H181674   2.674   6.876   6.013 -0.9802 -0.8374 -1.3464
20061TIP3    H281675   2.658   7.025   6.035  1.0570 -0.4479 -2.2323
20062TIP3   OH281676   0.666   3.362  12.873  0.2256 -0.3017  0.1376
20062TIP3    H181677   0.615   3.369  12.792  0.0332 -0.0689  0.2767
20062TIP3    H281678   0.626   3.426  12.932  0.8881  0.1216  0.1404
20063TIP3   OH281679   1.890   1.070   3.026  0.4460 -0.2349  0.9286
20063TIP3    H181680   1.825   1.050   3.093  1.7418 -3.2973  1.4495
20063TIP3    H281681   1.867   1.014   2.952  0.5110  1.2242 -0.2423
20064TIP3   OH281682   0.384   2.505   1.608  0.2352 -0.1721 -0.1884
20064TIP3    H181683   0.438   2.457   1.671 -0.4864 -0.7483 -0.0023
20064TIP3    H281684   0.427   2.490   1.524  0.8081  0.0243  0.0647
20065TIP3   OH281685   6.615   3.477  10.823 -0.2001 -0.0638  0.2772
20065TIP3    H181686   6.560   3.510  10.752 -1.0855 -0.7765  0.6096
20065TIP3    H281687   6.559   3.416  10.871  1.2277 -1.7294 -0.0640
20066TIP3   OH281688   6.016   5.490   2.065  0.4777  0.0438  0.3878
20066TIP3    H181689   6.030   5.439   2.146  2.1607 -1.7189 -0.9149
20066TIP3    H281690   5.925   5.473   2.042  0.8521 -2.1137  0.2577
20067TIP3   OH281691   2.767   0.124  12.928  0.9414 -0.6975 -0.1074
20067TIP3    H181692   2.743   0.214  12.949  2.7452  0.2206 -1.6370
20067TIP3    H281693   2.833   0.101  12.993  0.0004 -1.2011  0.6982
20068TIP3   OH281694   2.566   3.387   0.462 -0.0599  0.0567 -0.3419
20068TIP3    H181695   2.509   3.395   0.539  1.4977 -2.1387  1.1985
20068TIP3    H281696   2.520   3.326   0.404  0.1727 -0.8352  0.3860
20069TIP3   OH281697   2.439   2.940   1.377 -0.2278  0.0917  0.2668
20069TIP3    H181698   2.345   2.929   1.393 -0.4305  0.5958 -0.4977
20069TIP3    H281699   2.481   2.880   1.438 -1.0866 -0.9115 -0.0924
20070TIP3   OH281700   1.284   5.724   2.704  0.5103  0.3397  0.2359
20070TIP3    H181701   1.211   5.662   2.697  0.2053  0.8532 -1.6185
20070TIP3    H281702   1.325   5.703   2.788 -1.0763 -0.7157  0.7927
20071TIP3   OH281703   5.853   1.196   1.856  0.1085 -0.4918  0.3401
20071TIP3    H181704   5.873   1.224   1.945  1.8272 -0.3464 -0.0704
20071TIP3    H281705   5.818   1.275   1.814 -1.4301 -0.7445  1.0459
20072TIP3   OH281706   0.545   6.897  14.616  0.0246 -0.2231  0.4999
20072TIP3    H181707   0.537   6.924  14.707 -2.1624 -0.7402  0.5074
20072TIP3    H281708   0.515   6.806  14.616 -2.0594  0.3972 -1.0266
20073TIP3   OH281709   6.448   1.112   0.889 -0.2782  0.3063  0.0689
20073TIP3    H181710   6.532   1.112   0.936 -0.4869  1.1849  0.4578
20073TIP3    H281711   6.389   1.060   0.943 -0.0691 -0.0871 -0.0715
20074TIP3   OH281712   1.834   5.409   2.252  0.2256  0.5557 -0.6334
20074TIP3    H181713   1.887   5.484   2.225  1.2997 -0.2500 -0.8265
20074TIP3    H281714   1.886   5.367   2.321 -0.8614  0.5797  0.2294
20075TIP3   OH281715   3.077   3.043   4.497 -0.0201 -0.0743 -0.1856
20075TIP3    H181716   2.988   3.037   4.462  0.0878 -0.3204 -0.4252
20075TIP3    H281717   3.127   3.086   4.428  0.2028 -0.5976 -0.3520
20076TIP3   OH281718   4.185   1.739   2.419 -0.0741 -0.1649 -0.9292
20076TIP3    H181719   4.190   1.795   2.496 -0.0479 -1.4694  0.0653
20076TIP3    H281720   4.134   1.663   2.448 -0.6459 -0.3721 -2.4082
20077TIP3   OH281721   3.466   4.661   0.917  0.2774 -0.1916  0.5102
20077TIP3    H181722   3.511   4.584   0.882  0.6352  0.6287 -0.9029
20077TIP3    H281723   3.373   4.644   0.903  0.3727 -0.2490 -0.0516
20078TIP3   OH281724   2.582   3.048   0.873  0.0577 -0.3640  0.0319
20078TIP3    H181725   2.539   2.986   0.813  0.2617  1.4288 -2.0658
20078TIP3    H281726   2.563   3.013   0.960 -1.2669 -2.4313 -0.9985
20079TIP3   OH281727   0.161   5.643   0.604 -0.0052  0.1866  0.1855
20079TIP3    H181728   0.144   5.738   0.601 -0.1470  0.1821  0.7423
20079TIP3    H281729   0.075   5.603   0.589  0.4832  0.0903 -3.0580
20080TIP3   OH281730   5.766   0.852  15.073 -0.4989  0.2121  0.5192
20080TIP3    H181731   5.815   0.855  15.156  0.8873  1.5431 -0.3060
20080TIP3    H281732   5.675   0.860  15.100 -0.0501  1.1197  1.9205
20081TIP3   OH281733   0.960   0.561   4.347  0.0520  0.1091  0.4539
20081TIP3    H181734   1.001   0.548   4.432 -1.2888 -0.4618  1.0315
20081TIP3    H281735   0.947   0.473   4.312  0.5285  0.3330 -0.3213
20082TIP3   OH281736   6.379   0.032   4.417  0.5090 -0.0558  0.4471
20082TIP3    H181737   6.428  -0.025   4.357 -1.7874 -0.9564 -0.6789
20082TIP3    H281738   6.290   0.031   4.383 -0.2102  1.9501  2.1110
20083TIP3   OH281739   4.455   6.129   0.813  0.8586  0.2549 -0.2636
20083TIP3    H181740   4.407   6.184   0.874 -1.5810 -0.5823 -1.2845
20083TIP3    H281741   4.388   6.100   0.750  2.4327 -2.1687 -0.9441
20084TIP3   OH281742   5.582   3.329  15.333  0.1973  0.0729  0.2609
20084TIP3    H181743   5.570   3.296  15.244 -1.2279 -1.3566  0.9149
20084TIP3    H281744   5.543   3.416  15.332 -0.7274 -0.3302 -0.2974
20085TIP3   OH281745   6.559   4.236   0.343 -0.5748  0.4414  0.1037
20085TIP3    H181746   6.575   4.239   0.249 -0.6337 -0.6178  0.0555
20085TIP3    H281747   6.609   4.310   0.378 -0.6773  0.9358 -0.7682
20086TIP3   OH281748   1.416   5.140   3.500  0.2681  0.1466 -0.1585
20086TIP3    H181749   1.455   5.220   3.537  1.1072 -1.1219  1.9079
20086TIP3    H281750   1.326   5.140   3.532  0.5174 -0.1292  0.5677
20087TIP3   OH281751   5.356   4.220   3.928  0.4885  0.6180  0.4234
20087TIP3    H181752   5.307   4.271   3.993 -0.2525  0.7947 -0.2639
20087TIP3    H281753   5.294   4.208   3.856  0.7678 -0.9340  0.4090
20088TIP3   OH281754   5.457   6.320   5.713 -0.0636  0.5596 -0.2894
20088TIP3    H181755   5.378   6.354   5.756 -2.2141 -1.5732 -2.1842
20088TIP3    H281756   5.496   6.261   5.777 -0.7149  0.7348  0.2881
20089TIP3   OH281757   4.926   4.401   1.186 -0.2977 -0.2246 -0.0964
20089TIP3    H181758   4.915   4.315   1.147  1.0408 -0.1566 -0.6937
20089TIP3    H281759   5.005   4.394   1.240 -1.0998  0.1869  1.1876
20090TIP3   OH281760   6.075   1.016   3.074 -0.4429 -0.2574  0.0159
20090TIP3    H181761   6.115   0.979   2.996  0.9039 -1.2078  1.0985
20090TIP3    H281762   6.000   0.960   3.093  0.9794 -1.8954  1.0582
20091TIP3   OH281763   3.234   6.623   0.846  0.0436 -0.2498  0.0128
20091TIP3    H181764   3.277   6.672   0.916  1.1789  0.2576 -1.0061
20091TIP3    H281765   3.158   6.676   0.823 -0.5292 -0.5900  1.0714
20092TIP3   OH281766   2.379   5.034  13.369 -0.2409  0.3641 -0.3241
20092TIP3    H181767   2.430   5.102  13.412  0.2350  0.0265 -0.3519
20092TIP3    H281768   2.433   4.955  13.375 -0.8855 -0.0701 -0.0775
20093TIP3   OH281769   2.367   0.507   1.890  0.0693 -0.0122 -0.2183
20093TIP3    H181770   2.454   0.480   1.861 -0.1326 -0.6614 -0.2347
20093TIP3    H281771   2.322   0.425   1.910 -0.7028  0.2922 -0.6788
20094TIP3   OH281772   2.814   5.981   0.468  0.0440 -0.1156 -0.1433
20094TIP3    H181773   2.856   5.948   0.547  0.8864 -0.0151 -0.5372
20094TIP3    H281774   2.841   6.073   0.463  0.7439 -0.3453 -1.0078
20095TIP3   OH281775   1.318   4.679   3.236  0.1424  0.2859  0.0591
20095TIP3    H181776   1.400   4.653   3.278 -0.3368 -0.6214  0.4395
20095TIP3    H281777   1.253   4.674   3.305 -0.6746 -1.3106 -0.7746
20096TIP3   OH281778   4.409   4.251   4.290 -0.3122  0.3785 -0.2686
20096TIP3    H181779   4.332   4.285   4.244  0.6722 -0.2775 -2.5051
20096TIP3    H281780   4.467   4.327   4.299 -0.0781  0.3012 -1.0664
20097TIP3   OH281781   6.852   1.782   5.169 -0.0972  0.3652  0.9101
20097TIP3    H181782   6.946   1.801   5.162 -0.0874  0.8672  2.1704
20097TIP3    H281783   6.812   1.866   5.188 -0.9609  0.3482 -0.6614
20098TIP3   OH281784   1.003   2.393   2.773 -0.8902 -0.3240 -1.0332
20098TIP3    H181785   1.049   2.419   2.693  1.8344 -1.2239  0.1203
20098TIP3    H281786   0.944   2.466   2.792  0.1498  0.9697 -2.5760
20099TIP3   OH281787   0.594   2.748   1.306  0.6781  0.2013 -0.4946
20099TIP3    H181788   0.519   2.762   1.248 -0.3989  0.9007  0.9990
20099TIP3    H281789   0.610   2.653   1.301 -1.8503 -0.3799  0.9231
20100TIP3   OH281790   6.994   5.139   5.628 -0.1292 -0.4935  0.5515
20100TIP3    H181791   7.084   5.146   5.660 -0.5027  1.6513  1.2682
20100TIP3    H281792   6.942   5.188   5.692 -1.6429 -0.6425 -0.5193
20101TIP3   OH281793   3.315   4.989   5.226  0.5522  0.1092 -0.0361
20101TIP3    H181794   3.350   5.051   5.291 -1.7857  1.2293  0.2659
20101TIP3    H281795   3.224   5.015   5.215  0.5699 -0.7345 -3.0093
20102TIP3   OH281796   0.705   6.991   0.234 -0.4821  0.0325  0.1642
20102TIP3    H181797   0.756   7.068   0.258  1.6704 -1.5490  0.9206
20102TIP3    H281798   0.673   7.011   0.145  0.1204  1.7099  0.2779
20103TIP3   OH281799   1.855   3.511  12.445  0.3974 -0.0381 -0.1737
20103TIP3    H181800   1.854   3.448  12.517 -1.5527  0.6595  0.4650
20103TIP3    H281801   1.776   3.563  12.457 -0.2559 -0.1876 -3.0709
20104TIP3   OH281802   3.099   6.305   4.385 -0.3717  0.1377 -0.2774
20104TIP3    H181803   3.118   6.267   4.471 -0.3341 -0.1072 -0.3927
20104TIP3    H281804   3.050   6.237   4.340  0.5496 -0.1633 -0.8450
20105TIP3   OH281805   0.211   0.559   4.451 -0.7270  0.5035 -0.7155
20105TIP3    H181806   0.167   0.482   4.488 -2.5360  2.0698  0.5962
20105TIP3    H281807   0.304   0.535   4.450 -0.9949 -0.9786  1.5132
20106TIP3   OH281808   3.908   3.239   2.715  0.2381  0.5201  0.1836
20106TIP3    H181809   3.956   3.158   2.697  0.7366  0.8908 -0.1679
20106TIP3    H281810   3.965   3.289   2.773  0.2498  0.9316 -0.1738
20107TIP3   OH281811   0.529   6.151   3.690 -0.2707 -0.0189 -0.1460
20107TIP3    H181812   0.511   6.212   3.619  1.2555  0.5429 -0.0984
20107TIP3    H281813   0.597   6.093   3.655 -2.2863 -2.3195 -0.5003
20108TIP3   OH281814   1.074   4.184   0.288  0.6661 -0.0647  0.3328
20108TIP3    H181815   1.040   4.249   0.350  2.6429  0.2598  1.1520
20108TIP3    H281816   1.068   4.101   0.335  1.7557  0.1199  0.8382
20109TIP3   OH281817   0.794   4.966   3.555  0.1280 -0.0524 -0.0247
20109TIP3    H181818   0.868   5.013   3.516  1.1264 -0.5418  1.1881
20109TIP3    H281819   0.822   4.875   3.555 -2.2257 -0.9610 -3.3577
20110TIP3   OH281820   5.008   5.352   1.052  0.2845 -0.1305  0.3600
20110TIP3    H181821   5.032   5.290   0.983  0.3330  0.4118 -0.1176
20110TIP3    H281822   5.081   5.413   1.054 -0.4548  0.7978 -0.2285
20111TIP3   OH281823   3.208   1.655   2.704  0.0874 -0.0695  0.1568
20111TIP3    H181824   3.230   1.652   2.611  1.3856 -0.4497  0.4548
20111TIP3    H281825   3.198   1.748   2.724 -1.7729 -0.0490 -0.6834
20112TIP3   OH281826   5.263   4.774  15.417  0.1987 -0.0960  0.0806
20112TIP3    H181827   5.328   4.788  15.485 -0.5065 -0.1431  0.7721
20112TIP3    H281828   5.197   4.718  15.457 -0.6691  0.5771 -0.3543
20113TIP3   OH281829   1.572   3.767  15.666  0.3297  0.3833 -0.4778
20113TIP3    H181830   1.664   3.740  15.673  0.7456  1.7999 -0.0899
20113TIP3    H281831   1.550   3.750  15.574  1.1536  0.5323 -0.7182
20114TIP3   OH281832   6.897   5.702   3.599  0.1791 -0.1226  0.1275
20114TIP3    H181833   6.974   5.645   3.599  0.8211  0.7298 -0.3880
20114TIP3    H281834   6.931   5.789   3.620 -0.3045  0.7056 -2.2535
20115TIP3   OH281835   5.652   3.370  15.665 -0.9596 -0.1200  0.0545
20115TIP3    H181836   5.587   3.419  15.614 -0.2281  0.0672 -0.7040
20115TIP3    H281837   5.736   3.394  15.627 -0.2104  1.3820  2.4058
20116TIP3   OH281838   6.963   6.489   4.747  0.2077 -0.1031  0.7806
20116TIP3    H181839   6.926   6.447   4.824 -0.1351 -0.4443  0.4346
20116TIP3    H281840   6.889   6.536   4.707  0.5185  0.5939  1.0000
20117TIP3   OH281841   3.213   4.575   3.145 -0.0641 -0.7345 -0.0719
20117TIP3    H181842   3.139   4.529   3.106 -1.4161  1.2862 -0.0080
20117TIP3    H281843   3.258   4.616   3.071 -0.0224 -0.5199  0.0719
20118TIP3   OH281844   0.075   4.175  15.460  0.2711 -0.2382  0.3426
20118TIP3    H181845   0.154   4.192  15.511  0.8004  1.0456 -0.8510
20118TIP3    H281846   0.024   4.255  15.467 -0.3924 -0.6361  0.1360
20119TIP3   OH281847   2.202   1.703   3.143  0.0259 -0.1321 -0.2745
20119TIP3    H181848   2.234   1.776   3.195  0.1824 -0.7738  0.5408
20119TIP3    H281849   2.205   1.735   3.053 -0.2203  0.9765  0.1005
20120TIP3   OH281850   5.934   5.616   3.358  0.1918  0.0100 -0.5720
20120TIP3    H181851   5.863   5.556   3.337  0.6038 -0.1152 -1.6715
20120TIP3    H281852   5.936   5.619   3.454 -2.7201  1.7420 -0.4522
20121TIP3   OH281853   3.982   3.202   0.292  0.1303 -0.6931 -0.2846
20121TIP3    H181854   3.952   3.184   0.381  1.1016 -1.2201 -0.0435
20121TIP3    H281855   3.930   3.277   0.264 -1.7673 -1.8847 -0.1119
20122TIP3   OH281856   2.904   3.593   3.183  0.0396  0.3649 -0.1553
20122TIP3    H181857   2.843   3.661   3.153 -0.1782 -0.2056 -1.0416
20122TIP3    H281858   2.916   3.537   3.107 -0.1150 -0.8337  0.6803
20123TIP3   OH281859   2.019   4.316  13.760  0.1781  0.0491  0.1009
20123TIP3    H181860   2.058   4.398  13.731  1.5219 -0.3994  0.5334
20123TIP3    H281861   1.954   4.342  13.826 -1.1756  0.8953 -1.4999
20124TIP3   OH281862   3.450   0.254   4.582  0.4299  0.4584 -0.5285
20124TIP3    H181863   3.406   0.194   4.641 -0.2316 -0.3470 -1.8003
20124TIP3    H281864   3.496   0.315   4.640 -1.7323  0.8832  0.8545
20125TIP3   OH281865   3.203   6.198   3.258  0.2552 -0.2219  0.2089
20125TIP3    H181866   3.238   6.274   3.305  2.2815 -0.4852 -0.7664
20125TIP3    H281867   3.281   6.148   3.232 -0.7343 -0.1927 -3.2497
20126TIP3   OH281868   4.433   5.450   1.119 -0.1762 -0.3367  0.3878
20126TIP3    H181869   4.522   5.485   1.124  0.7533 -2.6649  1.6649
20126TIP3    H281870   4.404   5.445   1.210 -0.9536 -1.1513  0.1059
20127TIP3   OH281871   4.110   1.514   5.908 -0.3249 -0.3429 -0.4263
20127TIP3    H181872   4.148   1.459   5.976 -0.4397 -0.5820 -0.5562
20127TIP3    H281873   4.181   1.573   5.883  0.7102 -2.2025 -2.2125
20128TIP3   OH281874   0.262   2.442   2.942 -0.4082  0.5570  0.3800
20128TIP3    H181875   0.286   2.396   3.022  0.8613 -1.8946 -1.2629
20128TIP3    H281876   0.209   2.379   2.893  2.2010  0.2688 -2.4132
20129TIP3   OH281877   1.919   4.467   5.300 -0.6466  0.3121 -0.2001
20129TIP3    H181878   2.009   4.497   5.288 -0.9242  1.4696  0.4143
20129TIP3    H281879   1.925   4.371   5.298  0.7134  0.3502  0.6296
20130TIP3   OH281880   5.460   1.370   0.949 -0.6039 -0.0395  0.0956
20130TIP3    H181881   5.422   1.400   1.032  1.8230  0.4593  1.1196
20130TIP3    H281882   5.536   1.427   0.936 -0.2185 -0.9248 -1.8573
20131TIP3   OH281883   4.334   1.153   2.839  0.0975 -0.1729  0.5796
20131TIP3    H181884   4.413   1.138   2.891  1.2050 -0.3275 -1.0541
20131TIP3    H281885   4.343   1.093   2.765  0.7939  2.8831 -2.0695
20132TIP3   OH281886   4.721   0.571   1.387  0.0935  0.0117  0.6669
20132TIP3    H181887   4.705   0.551   1.295  2.4133 -3.2881  0.7761
20132TIP3    H281888   4.757   0.660   1.386 -1.9854  0.9216 -1.2752
20133TIP3   OH281889   2.641   4.527   2.080 -0.1629  0.4658  0.3952
20133TIP3    H181890   2.716   4.578   2.110  1.1586 -2.2455  2.1136
20133TIP3    H281891   2.617   4.473   2.156 -1.6092 -1.2460 -1.1840
20134TIP3   OH281892   4.190   5.337  15.328 -0.2971  0.5533 -0.0759
20134TIP3    H181893   4.188   5.322  15.423  2.9397 -2.4569 -0.2788
20134TIP3    H281894   4.159   5.255  15.290  0.0253  1.1146 -1.6195
20135TIP3   OH281895   0.528   0.286   1.919  0.5748  0.2240  0.4243
20135TIP3    H181896   0.575   0.205   1.901 -0.4200 -0.0954 -0.8033
20135TIP3    H281897   0.459   0.261   1.981  0.6038  0.2508  0.4679
20136TIP3   OH281898   2.865   6.532   1.506 -0.1701  0.1401  0.5957
20136TIP3    H181899   2.884   6.554   1.597 -0.4513 -2.2158  1.2783
20136TIP3    H281900   2.934   6.575   1.456 -0.0333  1.4921  1.8995
20137TIP3   OH281901   4.657   6.650   0.742  0.9075  0.1836  0.1393
20137TIP3    H181902   4.728   6.605   0.697  0.8831 -0.2334  0.5120
20137TIP3    H281903   4.695   6.735   0.765  1.7501 -0.5183  1.4998
20138TIP3   OH281904   2.354   5.106  13.924 -0.5777  0.0852  0.1872
20138TIP3    H181905   2.333   5.178  13.983  0.8616  0.1185  0.6738
20138TIP3    H281906   2.341   5.027  13.976 -0.4840  0.0640  0.1788
20139TIP3   OH281907   4.723   0.375   5.775  0.0492  0.5053 -0.6515
20139TIP3    H181908   4.672   0.457   5.774 -0.0217  0.6288  2.9159
20139TIP3    H281909   4.807   0.400   5.813  0.3266 -0.9368 -0.2877
20140TIP3   OH281910   3.040   6.115   1.905  0.7145  0.0518 -0.0416
20140TIP3    H181911   2.947   6.125   1.884  0.2463 -0.2116  1.7424
20140TIP3    H281912   3.056   6.178   1.975  1.6327 -0.6202  0.3735
20141TIP3   OH281913   4.305   1.858   3.285  0.8616 -0.0511 -0.3369
20141TIP3    H181914   4.294   1.854   3.190  0.0434  0.6882 -0.2921
20141TIP3    H281915   4.295   1.768   3.315  1.0732 -0.2801 -0.9423
20142TIP3   OH281916   3.054   6.440   0.951 -0.2244 -0.3773  0.2407
20142TIP3    H181917   3.122   6.496   0.914 -0.5531  0.1733  0.4473
20142TIP3    H281918   3.047   6.367   0.891 -0.1910  0.1009 -0.3564
20143TIP3   OH281919   2.257   2.719   1.856 -0.5625 -0.1835 -0.1123
20143TIP3    H181920   2.184   2.725   1.917 -0.2152 -0.2950  0.3223
20143TIP3    H281921   2.254   2.800   1.806 -2.6477 -1.3427 -2.0300
20144TIP3   OH281922   0.405   3.067   4.286 -0.3222 -0.2488 -0.0210
20144TIP3    H181923   0.339   2.998   4.282  0.9192 -1.4790  0.1000
20144TIP3    H281924   0.434   3.077   4.195 -0.3108 -0.0741  0.0019
20145TIP3   OH281925   6.841   4.534   2.306  0.7666  0.5864  0.0898
20145TIP3    H181926   6.892   4.599   2.355 -0.4232  0.8838  0.9731
20145TIP3    H281927   6.782   4.496   2.370 -0.1425  0.2593 -0.9093
20146TIP3   OH281928   1.206   2.111   0.979 -0.1911  0.1716 -0.3445
20146TIP3    H181929   1.131   2.105   1.038 -0.3792 -0.2163 -0.6151
20146TIP3    H281930   1.273   2.056   1.019 -0.0747  0.4627 -0.1382
20147TIP3   OH281931   1.375   5.389  11.036 -0.2826 -0.0537 -1.0446
20147TIP3    H181932   1.427   5.469  11.049 -0.1147 -0.2847 -0.2394
20147TIP3    H281933   1.285   5.416  11.056  0.1599 -0.8072  2.7224
20148TIP3   OH281934   4.057   4.062   0.274  0.7958 -0.3773 -0.2796
20148TIP3    H181935   3.971   4.093   0.301  0.7616 -0.0280 -0.7598
20148TIP3    H281936   4.099   4.139   0.235  1.2344 -0.6005 -0.2553
20149TIP3   OH281937   0.443   3.299   0.485  0.0271 -0.3166 -0.2611
20149TIP3    H181938   0.387   3.357   0.537 -1.3063 -3.3613  2.0500
20149TIP3    H281939   0.384   3.263   0.418  0.1140 -0.9309 -0.0165
20150TIP3   OH281940   2.183   1.656   6.262  0.2095 -0.1357  0.7422
20150TIP3    H181941   2.207   1.564   6.276 -0.3500 -0.4432 -0.2398
20150TIP3    H281942   2.088   1.655   6.253  0.1907  0.5562  0.8276
20151TIP3   OH281943   5.872   6.822   5.365 -0.2142 -0.7164 -0.1363
20151TIP3    H181944   5.948   6.800   5.311 -0.4365  0.8344 -1.1432
20151TIP3    H281945   5.860   6.746   5.422  2.2209 -0.9282  0.1982
20152TIP3   OH281946   5.921   0.348  14.196 -0.2119  0.5452 -0.2503
20152TIP3    H181947   5.904   0.341  14.290  0.0361  0.1786 -0.2311
20152TIP3    H281948   5.906   0.440  14.176 -1.2025  0.4357 -0.0387
20153TIP3   OH281949   5.534   1.660   3.811 -0.6409  0.1122 -0.8589
20153TIP3    H181950   5.550   1.648   3.717  0.7469 -1.0424 -0.5115
20153TIP3    H281951   5.565   1.579   3.851 -2.6845 -0.0802  0.4801
20154TIP3   OH281952   2.350   0.094   1.506 -0.7925 -0.1655 -0.1605
20154TIP3    H181953   2.400   0.146   1.442 -1.5531 -0.4476 -1.0079
20154TIP3    H281954   2.345   0.151   1.583  0.2958  0.1136 -0.2726
20155TIP3   OH281955   2.848   5.152   2.474 -0.6918 -0.2758  0.0657
20155TIP3    H181956   2.786   5.182   2.407 -0.9244 -0.4797  0.1902
20155TIP3    H281957   2.924   5.122   2.424 -1.6675 -2.3836 -0.2532
20156TIP3   OH281958   1.525   2.959   2.673 -0.2161  0.5066 -0.0516
20156TIP3    H181959   1.452   2.964   2.612 -0.4365  0.3821  0.2005
20156TIP3    H281960   1.576   2.884   2.643 -1.4672 -0.8996  1.1531
20157TIP3   OH281961   6.716   2.088  15.512  0.3862 -0.1778  0.1905
20157TIP3    H181962   6.766   2.155  15.559 -1.5630  2.0369 -0.7003
20157TIP3    H281963   6.770   2.066  15.436 -0.6753  3.7557 -1.9643
20158TIP3   OH281964   3.911   3.426  13.849 -0.4491  0.3668  0.7067
20158TIP3    H181965   3.915   3.505  13.794  0.7329  0.7720  1.3396
20158TIP3    H281966   3.982   3.438  13.912  0.3235 -1.6082  0.2803
20159TIP3   OH281967   0.511   4.487  12.547 -0.4352 -0.9157 -0.2896
20159TIP3    H181968   0.452   4.422  12.585 -2.0599 -0.0001 -1.1389
20159TIP3    H281969   0.523   4.459  12.456 -1.5054  0.1561 -0.7924
20160TIP3   OH281970   1.246   2.748   0.420  0.8307  0.5999  1.0634
20160TIP3    H181971   1.279   2.828   0.460 -1.0634  0.3314  3.3610
20160TIP3    H281972   1.152   2.762   0.412  0.6645 -0.8454  0.0841
20161TIP3   OH281973   3.276   0.213   4.196 -0.8580 -0.3894 -0.5454
20161TIP3    H181974   3.353   0.226   4.141 -0.9587  2.6006 -0.1762
20161TIP3    H281975   3.204   0.200   4.135 -0.4550 -0.5016 -0.9962
20162TIP3   OH281976   3.159   2.147   2.388  0.4353  0.0812 -0.1979
20162TIP3    H181977   3.069   2.178   2.393  0.4139  0.1055 -0.6702
20162TIP3    H281978   3.179   2.145   2.294  0.2410 -1.8865 -0.2412
20163TIP3   OH281979   5.902   2.667   3.408  0.1001  0.5031 -0.9728
20163TIP3    H181980   5.969   2.599   3.407 -0.2881  0.1096 -1.1145
20163TIP3    H281981   5.833   2.632   3.351 -0.8981  0.2065  0.3824
20164TIP3   OH281982   0.550   0.589   3.539  0.5909 -0.2459  0.1056
20164TIP3    H181983   0.595   0.663   3.499  1.3582 -0.9272 -0.3160
20164TIP3    H281984   0.543   0.524   3.470 -1.2364 -0.0988  0.1073
20165TIP3   OH281985   6.207   6.557  15.422 -0.0563 -0.2854 -0.3227
20165TIP3    H181986   6.140   6.613  15.382 -1.2697 -0.9537  0.6920
20165TIP3    H281987   6.215   6.589  15.512  0.3770 -0.7529 -0.1934
20166TIP3   OH281988   4.692   3.658  15.064 -0.3548 -0.3502  0.6910
20166TIP3    H181989   4.658   3.744  15.041 -2.2933 -1.3618 -0.4917
20166TIP3    H281990   4.751   3.635  14.992 -2.6849 -1.4672 -1.0143
20167TIP3   OH281991   6.979   2.155   1.958 -0.3938 -0.3868 -0.1589
20167TIP3    H181992   7.027   2.107   1.890 -1.3470 -0.2170 -0.9804
20167TIP3    H281993   7.029   2.236   1.969  0.8106 -1.2006  0.7062
20168TIP3   OH281994   0.006   1.766   5.485  0.3731  0.2421 -0.9032
20168TIP3    H181995   0.087   1.767   5.537 -0.1849 -0.8474  0.0365
20168TIP3    H281996  -0.063   1.745   5.548 -0.9134  2.6662 -1.3838
20169TIP3   OH281997   4.033   5.377  13.282  0.4148 -0.2035  0.0983
20169TIP3    H181998   4.109   5.347  13.331  0.3365  0.8403  0.9047
20169TIP3    H281999   4.070   5.424  13.207  0.5809  0.3977  0.5473
20170TIP3   OH282000   5.202   4.183   4.174 -0.7419 -0.6920 -0.0607
20170TIP3    H182001   5.152   4.264   4.188  0.7768  0.5171 -1.2762
20170TIP3    H282002   5.137   4.113   4.180 -2.3833  0.7302 -0.5148
20171TIP3   OH282003   3.306   3.003   5.715 -0.6318  0.0681  0.3617
20171TIP3    H182004   3.346   2.963   5.638  0.6427 -0.4484  1.2555
20171TIP3    H282005   3.351   3.087   5.724 -1.2346  0.4193  0.1872
20172TIP3   OH282006   2.781   2.823   3.128 -0.1763  0.4452 -0.0410
20172TIP3    H182007   2.841   2.768   3.079  1.5421  3.1849 -1.2853
20172TIP3    H282008   2.808   2.813   3.220 -0.0128 -0.8497 -0.2206
20173TIP3   OH282009   4.728   4.287   1.450  0.0642 -0.1260  0.1295
20173TIP3    H182010   4.732   4.196   1.420 -0.1693  0.1948 -0.9004
20173TIP3    H282011   4.790   4.333   1.393 -0.8940  0.6187 -0.3293
20174TIP3   OH282012   3.739   3.381   2.223  0.0193  0.6050 -0.3389
20174TIP3    H182013   3.751   3.406   2.315  1.1456  0.1326 -0.3450
20174TIP3    H282014   3.763   3.288   2.220  1.3537  0.9563 -1.3653
20175TIP3   OH282015   0.840   0.217  11.038  0.0178 -0.4571  0.0168
20175TIP3    H182016   0.837   0.305  11.075  0.8688 -0.4618  0.1239
20175TIP3    H282017   0.807   0.160  11.107  0.3625 -0.3189  0.3001
20176TIP3   OH282018   2.686   5.100   3.104  0.5230  0.0411  0.2232
20176TIP3    H182019   2.686   5.086   3.198 -0.4667 -1.4309  0.0412
20176TIP3    H282020   2.763   5.051   3.073  0.6262  0.2027  0.2226
20177TIP3   OH282021   1.475   2.350   1.615  0.9743  0.4303  0.7331
20177TIP3    H182022   1.453   2.354   1.522  0.6803  1.9452  0.8438
20177TIP3    H282023   1.414   2.410   1.657  1.3477  0.0464  1.8670
20178TIP3   OH282024   4.637   4.908  13.475  0.3187  0.6703  0.7367
20178TIP3    H182025   4.553   4.893  13.518  0.2634 -1.0683  0.1096
20178TIP3    H282026   4.669   4.821  13.454  1.4154  1.3634 -0.6832
20179TIP3   OH282027   6.648   5.562   6.388  0.1543  0.2946  0.2664
20179TIP3    H182028   6.668   5.555   6.295 -1.5318 -1.4098 -0.0279
20179TIP3    H282029   6.733   5.576   6.430  1.4073 -2.0336 -1.2709
20180TIP3   OH282030   6.450   3.726   1.783  0.2286 -0.3352 -0.1982
20180TIP3    H182031   6.508   3.801   1.800  1.2965 -1.1302 -0.1965
20180TIP3    H282032   6.363   3.757   1.806  0.5012  1.2222 -1.0921
20181TIP3   OH282033   4.235   4.902   5.550 -0.1289 -0.0072 -0.3961
20181TIP3    H182034   4.188   4.819   5.561  1.1606 -0.5846  1.2109
20181TIP3    H282035   4.323   4.876   5.523  0.7735  0.6756  1.6691
20182TIP3   OH282036   5.850   4.598   2.559 -0.4782  0.4070 -0.5499
20182TIP3    H182037   5.905   4.623   2.485  1.7173 -0.2168  0.7437
20182TIP3    H282038   5.790   4.533   2.524  1.2161 -0.6648 -1.6148
20183TIP3   OH282039   7.137   6.606   5.415 -0.2473 -0.5594  0.3836
20183TIP3    H182040   7.063   6.546   5.421 -1.2924  0.6366  0.0381
20183TIP3    H282041   7.160   6.626   5.505 -1.1272 -0.0489  0.5089
20184TIP3   OH282042   1.247   5.094   2.888  0.2404 -0.2924 -0.7073
20184TIP3    H182043   1.270   5.124   2.975 -0.9423  1.3861 -0.9394
20184TIP3    H282044   1.283   5.005   2.883  2.5324  0.4734  0.5575
20185TIP3   OH282045   3.021   7.037  14.980 -0.2462 -0.3105 -0.3932
20185TIP3    H182046   2.933   7.007  15.003 -0.6293  0.5305 -0.7348
20185TIP3    H282047   3.027   7.125  15.017  0.4209 -0.3194 -0.4658
20186TIP3   OH282048   4.341   3.256   2.996  0.5986 -0.4196  0.6168
20186TIP3    H182049   4.415   3.252   2.935  1.2431 -2.0397  1.4477
20186TIP3    H282050   4.369   3.318   3.064  0.5967  0.0474  0.1951
20187TIP3   OH282051   6.309   6.945   5.806  0.1027  0.3720  0.3164
20187TIP3    H182052   6.273   6.909   5.725  1.8775 -1.6419  0.3266
20187TIP3    H282053   6.257   6.905   5.875 -0.0816  0.4738  0.2382
20188TIP3   OH282054   0.533   1.806   2.832 -0.6905  0.3272 -0.2252
20188TIP3    H182055   0.599   1.743   2.860  0.0271  0.4424 -1.5747
20188TIP3    H282056   0.528   1.794   2.737 -2.0180  0.9053 -0.2509
20189TIP3   OH282057   0.697   5.297   2.841  0.2961  0.0135 -0.3883
20189TIP3    H182058   0.742   5.370   2.883 -0.3589 -0.6011  1.4487
20189TIP3    H282059   0.768   5.240   2.810  0.7899  0.5687 -0.2924
20190TIP3   OH282060   1.018   3.685   4.948 -0.2810  0.6763 -0.1714
20190TIP3    H182061   1.048   3.751   4.886 -0.1749  0.6420 -0.1565
20190TIP3    H282062   1.006   3.733   5.030 -0.2178  0.6799 -0.1643
20191TIP3   OH282063   6.902   6.629   1.001 -0.1452 -0.2144  0.3066
20191TIP3    H182064   6.872   6.547   0.961  0.1572  0.0907 -0.5765
20191TIP3    H282065   6.973   6.603   1.059  1.8087 -0.3404 -1.9942
20192TIP3   OH282066   0.493   3.460  14.592 -0.3785 -0.0235 -0.4144
20192TIP3    H182067   0.455   3.499  14.671 -1.0474  0.5715 -1.0308
20192TIP3    H282068   0.419   3.422  14.545  0.2385 -2.1514  0.1936
20193TIP3   OH282069   1.072   0.894   4.668  0.5403 -0.0819  0.2606
20193TIP3    H182070   1.014   0.914   4.594  0.1027  0.5030  0.7521
20193TIP3    H282071   1.066   0.971   4.724  1.2751 -0.3067  0.6535
20194TIP3   OH282072   7.026   6.741   0.088 -0.4696 -0.3317  0.6376
20194TIP3    H182073   7.026   6.769  -0.003  3.1580 -1.2163  0.2230
20194TIP3    H282074   6.994   6.650   0.086 -0.0824 -0.4619  0.1611
20195TIP3   OH282075   5.537   2.274   3.443  0.1538  0.0365 -0.1228
20195TIP3    H182076   5.523   2.321   3.525  0.8799 -0.5412  0.3423
20195TIP3    H282077   5.466   2.304   3.386  0.6510  1.7645  0.1075
20196TIP3   OH282078   3.809   5.568  15.289 -0.1272  0.2980  0.0525
20196TIP3    H182079   3.895   5.608  15.283  0.1047 -0.2139 -0.0668
20196TIP3    H282080   3.786   5.574  15.382  2.1329 -3.8309  1.1269
20197TIP3   OH282081   0.959   1.783   3.234 -0.1962 -0.0040  0.4289
20197TIP3    H182082   0.942   1.851   3.169 -0.0164  0.0846  0.4740
20197TIP3    H282083   1.054   1.782   3.243 -0.1927 -0.3218  0.3631
20198TIP3   OH282084   2.747   6.178   5.111  0.3508  0.0465 -0.4440
20198TIP3    H182085   2.747   6.270   5.083  1.3394 -0.1330 -1.1032
20198TIP3    H282086   2.775   6.181   5.202  0.8834  0.3728 -0.6134
20199TIP3   OH282087   4.401   4.060   5.863 -0.0074 -0.0512  0.3364
20199TIP3    H182088   4.339   3.988   5.876 -0.2831  0.3998  1.6831
20199TIP3    H282089   4.381   4.092   5.774  0.9881 -2.3895 -0.8154
20200TIP3   OH282090   5.804   4.390   0.046 -0.2178 -0.2223  0.1867
20200TIP3    H182091   5.785   4.484   0.041 -0.4948 -0.2454  0.7215
20200TIP3    H282092   5.882   4.384   0.102 -0.4320 -0.3365  0.4744
20201TIP3   OH282093   5.324   5.756   2.025 -0.3863 -0.0886  0.6202
20201TIP3    H182094   5.348   5.843   2.058  0.0639  1.1024 -2.5736
20201TIP3    H282095   5.408   5.711   2.011 -0.3497  0.5508 -1.5681
20202TIP3   OH282096   4.419   1.981   2.848 -0.1056  0.5021  0.4349
20202TIP3    H182097   4.505   1.948   2.872 -0.1142  0.4099  0.3406
20202TIP3    H282098   4.398   2.045   2.916  0.0500  0.5477  0.4418
20203TIP3   OH282099   5.802   1.554   2.752 -0.3468  0.1783 -0.1959
20203TIP3    H182100   5.833   1.573   2.664  0.0462  1.3869  0.1830
20203TIP3    H282101   5.881   1.538   2.803 -0.5800 -0.7113 -0.0865
20204TIP3   OH282102   2.793   2.120   5.821  0.1152 -0.4000 -0.1291
20204TIP3    H182103   2.809   2.051   5.756  0.3739 -0.3371 -0.1347
20204TIP3    H282104   2.821   2.200   5.778 -0.7967 -0.1973 -0.3585
20205TIP3   OH282105   5.239   5.599   5.289 -0.2850  0.0760  0.5244
20205TIP3    H182106   5.176   5.540   5.331  0.2219  0.7709  2.3870
20205TIP3    H282107   5.316   5.545   5.273  0.2323  0.2084  2.3574
20206TIP3   OH282108   6.450   3.353   2.536  0.3949 -0.3395 -0.5720
20206TIP3    H182109   6.395   3.277   2.514  1.4585 -1.0124 -0.9618
20206TIP3    H282110   6.450   3.406   2.456  0.6487 -0.5402 -0.7030
20207TIP3   OH282111   6.474   3.607   6.100  0.0567 -0.0995 -0.3367
20207TIP3    H182112   6.396   3.616   6.046 -1.0395 -0.7124  1.0955
20207TIP3    H282113   6.449   3.546   6.169  1.5811  0.2494  0.5717
20208TIP3   OH282114   1.772   1.502   1.431  0.5635  0.0987  0.1733
20208TIP3    H182115   1.684   1.482   1.462  0.7349  0.2997  0.8063
20208TIP3    H282116   1.759   1.569   1.364  0.1780 -0.4255 -0.2860
20209TIP3   OH282117   6.123   0.070  13.892  0.2044  0.1131 -0.2526
20209TIP3    H182118   6.055   0.034  13.835  0.0639  0.7806 -0.5200
20209TIP3    H282119   6.086   0.063  13.981 -0.0925  0.1932 -0.3664
20210TIP3   OH282120   1.488   1.661   3.601  0.0698  0.6427  0.1818
20210TIP3    H182121   1.497   1.581   3.652 -0.8323 -0.1809 -0.9040
20210TIP3    H282122   1.522   1.730   3.658  2.4897 -0.7095  0.4966
20211TIP3   OH282123   5.126   6.778   5.039  0.2220 -0.2514 -0.5817
20211TIP3    H182124   5.077   6.695   5.040 -1.7409  0.8569 -0.3430
20211TIP3    H282125   5.104   6.819   5.123  0.1090  1.1030 -1.2592
20212TIP3   OH282126   2.653   2.485   5.562 -0.2853 -0.1256  0.2892
20212TIP3    H182127   2.563   2.488   5.529 -0.1214 -1.0924 -0.2824
20212TIP3    H282128   2.663   2.395   5.595  1.5103 -1.1901 -2.7440
20213TIP3   OH282129   3.563   4.412   3.824  0.0367  0.1570  0.1039
20213TIP3    H182130   3.518   4.388   3.905 -1.0569  2.1124  0.1447
20213TIP3    H282131   3.514   4.366   3.756  0.1326 -0.4349  0.4226
20214TIP3   OH282132   2.762   6.587   3.488 -0.6177 -0.5029  0.4492
20214TIP3    H182133   2.734   6.636   3.411 -1.1820 -0.5304  0.6274
20214TIP3    H282134   2.800   6.653   3.546 -0.3729 -0.4522  0.2338
20215TIP3   OH282135   4.272   2.111   3.348 -0.1723 -0.5859  0.1643
20215TIP3    H182136   4.185   2.126   3.384  0.1364  0.2708  0.5699
20215TIP3    H282137   4.271   2.020   3.320 -1.0104 -0.7464  0.6941
20216TIP3   OH282138   5.092   5.154   0.086  0.2260  0.5385 -0.1981
20216TIP3    H182139   5.060   5.229   0.136  0.0325 -0.5869  1.4631
20216TIP3    H282140   5.066   5.078   0.139 -0.3328 -0.7617 -2.2213
20217TIP3   OH282141   6.018   2.059  12.308  0.0133 -0.4878 -0.2708
20217TIP3    H182142   6.024   2.001  12.384 -1.1529  0.3735  0.5080
20217TIP3    H282143   6.062   2.139  12.336  0.7615 -0.6306 -0.9990
20218TIP3   OH282144   1.989   2.102   5.650  0.2270 -0.1768 -0.0625
20218TIP3    H182145   1.936   2.164   5.701  1.5812  1.7119 -0.8281
20218TIP3    H282146   1.925   2.048   5.604 -1.0136  0.1936  1.1577
20219TIP3   OH282147   6.449   2.310   2.573  0.1777  0.1906  0.4617
20219TIP3    H182148   6.475   2.400   2.557 -1.6723  0.6511 -0.1439
20219TIP3    H282149   6.355   2.315   2.594 -1.2453 -1.9678 -4.1655
20220TIP3   OH282150   2.106   6.286   3.637  0.1192 -0.5827  0.5613
20220TIP3    H182151   2.171   6.218   3.620  1.0446  0.2923  0.5497
20220TIP3    H282152   2.050   6.285   3.559 -0.9160 -2.4485  1.2705
20221TIP3   OH282153   4.580   1.702  12.171  0.0572 -0.5977  0.1478
20221TIP3    H182154   4.543   1.644  12.104  0.7108 -0.3300 -0.4603
20221TIP3    H282155   4.512   1.708  12.238 -2.2863  2.1312 -2.1877
20222TIP3   OH282156   4.213   3.419   5.139 -0.0453  0.2800  0.1849
20222TIP3    H182157   4.277   3.348   5.137  0.8785  1.0168 -2.7956
20222TIP3    H282158   4.247   3.481   5.204  0.2878 -0.9797  1.2382
20223TIP3   OH282159   1.944   0.916   3.640 -0.9800  0.0299  0.2601
20223TIP3    H182160   1.962   0.931   3.733  0.2103 -0.7170  0.1686
20223TIP3    H282161   2.031   0.912   3.600 -1.1174 -4.6739 -0.1035
20224TIP3   OH282162   1.576   3.720  15.306  0.5788  0.1664 -0.1430
20224TIP3    H182163   1.619   3.637  15.287  0.5067  0.1119 -0.0654
20224TIP3    H282164   1.641   3.787  15.281  0.1843  0.1188 -1.3502
20225TIP3   OH282165   2.883   6.050  15.298  0.2609 -0.0004  0.1757
20225TIP3    H182166   2.904   6.120  15.359 -2.4305  2.5548 -1.5076
20225TIP3    H282167   2.800   6.015  15.329  0.6901 -1.2437 -0.0188
20226TIP3   OH282168   1.512   3.803  14.975  0.2854  0.2339  0.0296
20226TIP3    H182169   1.515   3.899  14.979  0.6611  0.3359 -1.8951
20226TIP3    H282170   1.450   3.783  14.905  0.3384 -0.9455  0.2942
20227TIP3   OH282171   2.926   0.640   4.580 -0.8123 -0.2907  0.1047
20227TIP3    H182172   2.946   0.572   4.644 -0.1751  0.2048  0.4470
20227TIP3    H282173   2.985   0.624   4.507 -0.5772 -0.0381  0.2374
20228TIP3   OH282174   3.154   2.984   0.229  0.2140  0.2472 -0.1066
20228TIP3    H182175   3.195   3.044   0.167 -0.1852  1.0661  0.4082
20228TIP3    H282176   3.062   3.010   0.231  0.5698  1.6392  2.3620
20229TIP3   OH282177   5.026   3.554  13.699 -0.4503 -0.0728  0.0813
20229TIP3    H182178   4.971   3.623  13.735 -0.4929 -0.7820  1.4722
20229TIP3    H282179   5.100   3.549  13.760  1.0873  0.6961 -1.5965
20230TIP3   OH282180   1.823   6.008   1.467 -0.4143 -0.4880  0.3982
20230TIP3    H182181   1.899   6.054   1.430 -1.6979  1.7833  0.3798
20230TIP3    H282182   1.748   6.048   1.423 -1.6530 -2.9109  0.1518
20231TIP3   OH282183   3.578   6.120   0.326  0.4774  0.1754 -0.3987
20231TIP3    H182184   3.563   6.029   0.300 -0.7664  0.4686 -0.8071
20231TIP3    H282185   3.569   6.170   0.245 -1.7887  0.9367  0.2469
20232TIP3   OH282186   3.651   3.322   1.467 -0.5866 -0.3689 -0.0434
20232TIP3    H182187   3.653   3.386   1.538 -1.0155 -0.9460  0.4903
20232TIP3    H282188   3.707   3.250   1.497  1.1083  0.3538 -1.2498
20233TIP3   OH282189   6.284   2.739   4.231  0.6038  0.3903 -0.2827
20233TIP3    H182190   6.206   2.767   4.185  1.5036  0.4725 -1.8308
20233TIP3    H282191   6.267   2.648   4.255 -0.1862  0.5903 -0.0815
20234TIP3   OH282192   1.181   4.742   6.232  0.3462 -0.5848 -0.3060
20234TIP3    H182193   1.181   4.746   6.136  2.2601 -2.2597 -0.4286
20234TIP3    H282194   1.247   4.807   6.258 -2.2328  2.0884  0.1344
20235TIP3   OH282195   1.213   3.324   2.103 -0.6173  0.0915  0.1971
20235TIP3    H182196   1.276   3.288   2.041 -2.0850 -0.0226 -1.2920
20235TIP3    H282197   1.131   3.328   2.054 -2.0093 -0.6263  2.3331
20236TIP3   OH282198   5.565   2.143   0.903  0.5135 -0.1617  0.6764
20236TIP3    H182199   5.486   2.131   0.957  1.2926  1.8091  2.3839
20236TIP3    H282200   5.628   2.080   0.937  0.6180  0.2846  1.3320
20237TIP3   OH282201   5.245   5.670   3.714  0.1208  0.7014  0.0992
20237TIP3    H182202   5.296   5.589   3.702 -1.9459 -0.6058 -0.2648
20237TIP3    H282203   5.222   5.669   3.807 -1.3553 -0.0835 -0.2443
20238TIP3   OH282204   0.785   4.457  13.965  0.2100  0.0297 -0.0820
20238TIP3    H182205   0.741   4.372  13.974  0.2360  0.0262  0.0058
20238TIP3    H282206   0.736   4.501  13.896  0.0238  0.0528  0.0641
20239TIP3   OH282207   2.118   6.372   3.181  0.1835 -0.0821  0.5266
20239TIP3    H182208   2.186   6.427   3.143 -0.1814 -0.7150 -1.1554
20239TIP3    H282209   2.146   6.282   3.163 -1.4020 -0.3515 -0.8617
20240TIP3   OH282210   1.351   6.008   2.546 -0.0508 -0.2321  0.0458
20240TIP3    H182211   1.371   5.946   2.477  0.5508 -0.4740  0.4359
20240TIP3    H282212   1.307   5.956   2.614 -1.9909  0.2612 -0.7481
20241TIP3   OH282213   1.589   1.838   1.710  0.0170  0.1250  0.1569
20241TIP3    H182214   1.569   1.800   1.795 -1.9851 -2.5431 -1.3576
20241TIP3    H282215   1.518   1.900   1.694  1.7029  2.5373  1.3473
20242TIP3   OH282216   4.397   6.474   2.532 -0.7870 -0.3799  0.4496
20242TIP3    H182217   4.433   6.560   2.550  2.0008 -1.2520 -0.3810
20242TIP3    H282218   4.363   6.444   2.616  0.8557  0.4018  1.4431
20243TIP3   OH282219   1.165   6.843   5.812 -0.6168 -0.4935  0.0413
20243TIP3    H182220   1.102   6.807   5.750 -0.1727  0.8669 -1.2880
20243TIP3    H282221   1.112   6.896   5.872 -0.7183  2.2379 -2.2195
20244TIP3   OH282222   1.171   6.915  15.576  0.5254 -0.5105 -0.1317
20244TIP3    H182223   1.260   6.924  15.542  0.6579 -1.9487 -0.2418
20244TIP3    H282224   1.153   6.999  15.619  1.5658  0.1463 -0.9290
20245TIP3   OH282225   3.033   5.031   5.174 -0.2660  0.7268 -0.1509
20245TIP3    H182226   3.025   5.127   5.171  0.1456  0.8745  1.7581
20245TIP3    H282227   2.943   4.999   5.177 -0.4198  1.2227  1.6194
20246TIP3   OH282228   2.675   6.980   3.916 -0.3713 -0.4736 -0.2633
20246TIP3    H182229   2.658   7.061   3.965 -0.0690  0.1498 -1.1474
20246TIP3    H282230   2.651   7.002   3.826  2.2487 -0.4869 -1.0536
20247TIP3   OH282231   0.832   5.512  15.094  0.2514  0.0332  0.9533
20247TIP3    H182232   0.755   5.496  15.149 -0.1519  0.5373  0.5446
20247TIP3    H282233   0.829   5.442  15.028 -0.1583  0.3561  0.6221
20248TIP3   OH282234   5.331   1.819   4.251  0.2743 -0.2920 -0.1110
20248TIP3    H182235   5.331   1.825   4.347 -0.8608 -1.0798 -0.0465
20248TIP3    H282236   5.405   1.762   4.231  1.5646  1.2035  0.1661
20249TIP3   OH282237   1.434   5.957  13.516 -0.7248  0.2594  0.2561
20249TIP3    H182238   1.511   5.901  13.522 -0.3624  0.8535  1.4723
20249TIP3    H282239   1.372   5.907  13.462 -0.5800 -1.5288  1.6435
20250TIP3   OH282240   4.719   3.929   1.636  0.5659 -0.5396 -0.2914
20250TIP3    H182241   4.642   3.888   1.677  0.6635 -1.0280 -0.5856
20250TIP3    H282242   4.720   4.018   1.671 -1.1647  0.0655 -1.6181
20251TIP3   OH282243   3.725   5.884   4.177  0.0506 -0.2569  0.5962
20251TIP3    H182244   3.689   5.856   4.093  1.4299 -2.6223  0.7031
20251TIP3    H282245   3.649   5.889   4.236 -0.7753  0.2957 -0.4932
20252TIP3   OH282246   2.778   4.066   5.182 -0.1011 -0.3291 -0.2190
20252TIP3    H182247   2.750   4.087   5.271 -2.3793 -0.8599 -0.7654
20252TIP3    H282248   2.704   4.021   5.143  0.4956  0.6500 -2.6868
20253TIP3   OH282249   5.296   7.132   0.992 -0.2304  0.1853 -0.2918
20253TIP3    H182250   5.203   7.121   0.973  0.2726 -1.3522 -2.2295
20253TIP3    H282251   5.324   7.202   0.934  0.0059  0.0437 -0.3472
20254TIP3   OH282252   5.690   6.491   5.791  0.2576  0.2584  0.2090
20254TIP3    H182253   5.673   6.488   5.885 -0.0090  0.6174  0.1705
20254TIP3    H282254   5.611   6.455   5.750  0.7276 -0.7646  0.1542
20255TIP3   OH282255   0.681   5.104   5.420 -0.4791  0.1794  0.0660
20255TIP3    H182256   0.616   5.161   5.379 -1.9746 -0.5889  1.2396
20255TIP3    H282257   0.660   5.108   5.513 -0.4191 -1.9681  0.2298
20256TIP3   OH282258   2.135   5.248   2.660 -0.2733  0.4392  0.3104
20256TIP3    H182259   2.129   5.276   2.751  1.2277  3.4661 -0.4266
20256TIP3    H282260   2.219   5.202   2.654 -1.3490 -1.7506  0.8296
20257TIP3   OH282261   1.578   0.784   5.076 -0.2945 -0.1009 -0.4418
20257TIP3    H182262   1.572   0.769   4.982 -0.4136 -1.4233 -0.2385
20257TIP3    H282263   1.490   0.765   5.109  0.1331 -1.1851  0.1248
20258TIP3   OH282264   0.900   3.912   5.540 -0.7488 -0.0461  0.3311
20258TIP3    H182265   0.907   3.973   5.466  0.4704  0.1255  0.5605
20258TIP3    H282266   0.932   3.962   5.615 -1.3722 -0.4269  0.8586
20259TIP3   OH282267   2.828   5.499   0.616  0.0438 -0.5324  0.0202
20259TIP3    H182268   2.784   5.474   0.535  0.2466  0.9354 -0.5667
20259TIP3    H282269   2.766   5.555   0.662  0.5483 -0.0573  0.1272
20260TIP3   OH282270   5.385   6.851  13.811  0.8154 -0.7449 -0.6086
20260TIP3    H182271   5.459   6.831  13.868  2.0868 -0.0343 -1.9552
20260TIP3    H282272   5.410   6.815  13.726 -0.4341 -0.5794 -1.0597
20261TIP3   OH282273   6.413   1.816   1.035 -0.0866 -0.1281  0.0666
20261TIP3    H182274   6.492   1.866   1.056 -0.8443  1.4233 -0.6608
20261TIP3    H282275   6.388   1.775   1.118 -0.6244  2.4277  1.2516
20262TIP3   OH282276   5.845   4.974  13.337  0.0228 -0.0092  0.1998
20262TIP3    H182277   5.796   4.992  13.417  0.4231  0.7166  0.2962
20262TIP3    H282278   5.782   4.984  13.266 -0.6007 -1.7283  0.4738
20263TIP3   OH282279   4.500   3.533   5.047 -0.3424 -1.0808 -0.0581
20263TIP3    H182280   4.505   3.486   4.964  0.8734 -3.3264  1.1694
20263TIP3    H282281   4.411   3.569   5.049  0.1209  0.4955 -2.9776
20264TIP3   OH282282   2.802   6.265   3.894 -0.5885  0.1866  0.0738
20264TIP3    H182283   2.720   6.224   3.868  0.0601  0.5565 -2.8652
20264TIP3    H282284   2.788   6.358   3.876  0.6843  0.1617 -1.1251
20265TIP3   OH282285   6.777   5.136   2.812 -0.0179 -0.1447  0.0746
20265TIP3    H182286   6.783   5.212   2.754  1.1636 -0.4232 -0.1814
20265TIP3    H282287   6.713   5.078   2.770  0.2837 -0.0178 -0.5642
20266TIP3   OH282288   6.832   5.746  13.438 -0.2027  0.5356 -0.1828
20266TIP3    H182289   6.818   5.795  13.519  1.5837 -2.1223  1.9531
20266TIP3    H282290   6.760   5.683  13.435  0.7681 -0.6768  0.5326
20267TIP3   OH282291   3.115   2.033  11.450 -0.8276 -0.2583 -0.5139
20267TIP3    H182292   3.191   2.076  11.412  0.7252 -2.6851 -0.3487
20267TIP3    H282293   3.062   2.006  11.374 -0.2344 -0.7377 -0.7660
20268TIP3   OH282294   3.544   7.133  14.874 -0.6793 -0.5317 -0.0718
20268TIP3    H182295   3.603   7.086  14.815 -1.1293  0.7929 -1.6578
20268TIP3    H282296   3.509   7.205  14.821 -1.8371  0.1719  1.5514
20269TIP3   OH282297   0.457   1.893   2.123 -0.2049  0.5953 -0.4737
20269TIP3    H182298   0.468   1.987   2.111  1.0434  0.7355  1.3091
20269TIP3    H282299   0.363   1.881   2.137 -0.5577  1.3779 -2.0300
20270TIP3   OH282300   2.508   6.438  14.256  0.0266  0.0242  0.4410
20270TIP3    H182301   2.561   6.361  14.281  1.3606  0.5192 -0.7181
20270TIP3    H282302   2.532   6.504  14.321 -0.5934 -0.3000  1.0185
20271TIP3   OH282303   3.170   1.325   1.353 -0.2771 -0.5775  0.0886
20271TIP3    H182304   3.211   1.240   1.345  1.0786  0.1329 -0.8892
20271TIP3    H282305   3.080   1.312   1.322  0.2356 -1.4177 -1.0951
20272TIP3   OH282306   0.706   4.148   5.663  0.1841  0.0286 -0.4686
20272TIP3    H182307   0.748   4.220   5.615  1.0235 -0.2069 -0.1010
20272TIP3    H282308   0.778   4.102   5.705 -0.4577 -0.3580  0.2247
20273TIP3   OH282309   3.771   5.336   5.088  0.1089 -0.1139  0.2462
20273TIP3    H182310   3.816   5.337   5.172 -0.2083 -2.5619  0.5149
20273TIP3    H282311   3.821   5.397   5.033  0.5544  1.2216  2.0456
20274TIP3   OH282312   4.686   4.126   5.898  0.0322 -0.2776  0.2531
20274TIP3    H182313   4.735   4.051   5.931  0.0847 -1.4843 -2.3381
20274TIP3    H282314   4.594   4.100   5.906 -0.0335  0.0990  0.8485
20275TIP3   OH282315   4.469   4.197   4.997 -0.1850  0.5645  0.0236
20275TIP3    H182316   4.379   4.165   5.010  1.2099 -3.3043  1.9376
20275TIP3    H282317   4.513   4.175   5.079  2.3495  3.2972 -0.4743
20276TIP3   OH282318   0.238   5.264   3.106 -0.1469  0.3551  0.1811
20276TIP3    H182319   0.219   5.170   3.109 -0.9513  0.5148  0.2408
20276TIP3    H282320   0.332   5.269   3.123 -0.1960 -0.4068  0.7730
20277TIP3   OH282321   5.166   6.559   2.730  0.5623  0.1799  0.3914
20277TIP3    H182322   5.131   6.621   2.666  0.2650 -0.9065 -0.5470
20277TIP3    H282323   5.094   6.498   2.746  1.6980 -1.6173 -0.9436
20278TIP3   OH282324   1.499   1.167   3.114 -0.1894  0.0073 -0.4042
20278TIP3    H182325   1.405   1.186   3.114 -0.5549 -1.5713  0.8639
20278TIP3    H282326   1.540   1.249   3.087 -1.9230  0.7486 -0.9236
20279TIP3   OH282327   6.183   2.969   3.977  0.0218  0.0642  0.1442
20279TIP3    H182328   6.232   3.011   4.048  1.4640 -0.1972 -0.6641
20279TIP3    H282329   6.103   2.937   4.020  0.1256  1.2588  1.3186
20280TIP3   OH282330   4.540   7.131   2.210 -0.0846  0.3890  0.0961
20280TIP3    H182331   4.446   7.140   2.226 -0.0606  1.4890 -0.2854
20280TIP3    H282332   4.576   7.219   2.225  1.1021 -0.3003  1.5427
20281TIP3   OH282333   0.171   4.010   2.052  0.6414  0.3046 -0.3185
20281TIP3    H182334   0.173   4.045   2.141  1.1508 -0.5633  0.0143
20281TIP3    H282335   0.078   3.990   2.037  0.7031 -0.5593  0.4169
20282TIP3   OH282336   2.039   7.019   0.184  0.2212 -0.5665  0.2574
20282TIP3    H182337   1.963   7.070   0.154  0.9452  0.3137 -0.1393
20282TIP3    H282338   2.003   6.934   0.208 -0.9461 -0.0419  0.4255
20283TIP3   OH282339   6.293   1.149   2.665 -0.3422  0.5645 -0.3010
20283TIP3    H182340   6.230   1.206   2.709 -1.0802  0.6578 -1.4252
20283TIP3    H282341   6.243   1.109   2.593  1.4394  2.6827 -2.9338
20284TIP3   OH282342   1.603   3.486   2.429 -0.2600 -0.1438 -0.2034
20284TIP3    H182343   1.516   3.453   2.404 -0.0480  0.8759 -2.5063
20284TIP3    H282344   1.633   3.534   2.353  1.3531  1.5472  1.3953
20285TIP3   OH282345   2.368   5.746   0.848 -0.1180  0.3313 -0.0939
20285TIP3    H182346   2.319   5.670   0.818 -0.5412 -0.2690  1.9874
20285TIP3    H282347   2.402   5.721   0.933  1.6521  1.6850 -0.3441
20286TIP3   OH282348   2.854   6.060   3.456  0.5628  0.1848  0.2182
20286TIP3    H182349   2.792   6.127   3.485 -3.0618 -2.4714 -0.7369
20286TIP3    H282350   2.884   6.090   3.370 -0.9602  0.6466 -0.1852
   7.16023   7.16023  15.75823
